Title
82341
    1SAPS     N    1   0.629   6.328  10.803 -0.0898  0.2769 -0.5120
    1SAPS   HN1    2   0.568   6.366  10.728 -0.9300  0.8370  0.4342
    1SAPS   HN2    3   0.728   6.357  10.789  0.1829  0.0692  0.8474
    1SAPS   HN3    4   0.633   6.224  10.802 -0.1726  0.1354  2.7932
    1SAPS   C12    5   0.575   6.387  10.929 -0.8531 -0.5480  0.0364
    1SAPS  H12A    6   0.611   6.325  11.010 -1.5245  0.5285  1.1905
    1SAPS   C13    7   0.620   6.535  10.951  0.4726  0.2954  0.2233
    1SAPS  O13A    8   0.662   6.604  10.855 -0.3546  0.5164 -0.9857
    1SAPS  O13B    9   0.564   6.601  11.042 -0.1212  0.5196 -0.4616
    1SAPS   C11   10   0.418   6.380  10.937 -0.0554 -0.5932 -0.0021
    1SAPS  H11A   11   0.379   6.456  10.866 -2.5373 -1.3567  0.4655
    1SAPS  H11B   12   0.384   6.422  11.034 -0.6976 -1.2860  0.0784
    1SAPS     P   13   0.231   6.194  10.922 -0.4869  0.1346 -0.0338
    1SAPS   O13   14   0.244   6.052  10.964  0.2702  0.1659 -1.3969
    1SAPS   O14   15   0.147   6.298  10.990 -0.5830  0.3819 -0.1808
    1SAPS   O12   16   0.377   6.247  10.913 -0.5003  0.0277 -0.2579
    1SAPS   O11   17   0.184   6.204  10.769 -0.2594 -0.7136  0.6409
    1SAPS    C1   18   0.236   6.100  10.680  0.6091 -0.0088 -0.3136
    1SAPS    HA   19   0.339   6.067  10.704  0.6507 -0.4427 -1.0643
    1SAPS    HB   20   0.166   6.014  10.682  0.4021  0.1242  2.9938
    1SAPS    C2   21   0.269   6.148  10.536  0.7134 -0.2761  0.4325
    1SAPS    HS   22   0.353   6.220  10.550  0.5618  0.2759 -1.2278
    1SAPS   O21   23   0.153   6.219  10.470  0.2595 -0.1419 -0.6321
    1SAPS   C21   24   0.183   6.301  10.368  0.1424 -0.5879 -0.3095
    1SAPS   O22   25   0.296   6.351  10.354  0.7738  0.5270 -0.3204
    1SAPS   C22   26   0.053   6.340  10.294  0.3102  0.0451  0.0283
    1SAPS   H2R   27  -0.021   6.258  10.310  0.8013  0.2854  6.1190
    1SAPS   H2S   28   0.009   6.431  10.339 -0.7803 -0.9819  1.1359
    1SAPS    C3   29   0.315   6.041  10.445 -0.6241 -0.1380 -0.2307
    1SAPS    HX   30   0.389   5.981  10.502 -0.7109 -1.4272 -1.4223
    1SAPS    HY   31   0.364   6.070  10.350 -0.8232  0.1190 -0.2552
    1SAPS   O31   32   0.212   5.938  10.424 -0.3033  0.6063 -0.0144
    1SAPS   C31   33   0.150   5.948  10.302  0.4950  0.4612 -0.7224
    1SAPS   O32   34   0.155   6.036  10.220  0.2517 -0.1833  0.7862
    1SAPS   C32   35   0.061   5.824  10.278 -0.4172 -1.1609 -0.6962
    1SAPS   H2X   36  -0.010   5.819  10.363 -1.7927  1.5158 -1.5517
    1SAPS   H2Y   37   0.126   5.735  10.266  0.6323 -0.3562 -1.2002
    1SAPS   C23   38   0.070   6.356  10.139  0.4846  0.6053 -0.2945
    1SAPS   H3R   39   0.122   6.265  10.101 -0.0108  0.7009 -1.2313
    1SAPS   H3S   40   0.141   6.439  10.124  2.8426 -0.6727  2.7734
    1SAPS   C24   41  -0.066   6.382  10.070  0.2269 -0.3420  0.3528
    1SAPS   H4R   42  -0.035   6.417   9.970  0.6698  0.6933  0.8312
    1SAPS   H4S   43  -0.113   6.470  10.119  0.6488  0.6164 -0.9119
    1SAPS   C25   44  -0.155   6.252  10.081 -0.0070 -1.0953  0.4620
    1SAPS   H5R   45  -0.111   6.153  10.061 -2.8353 -1.9810 -2.1770
    1SAPS   C26   46  -0.289   6.260  10.094  0.4828  0.0564  0.6133
    1SAPS   H6R   47  -0.343   6.165  10.079 -0.7965  0.8248  0.1886
    1SAPS   C27   48  -0.376   6.382  10.104  0.4738  0.3896 -0.1810
    1SAPS   H7R   49  -0.309   6.469  10.121  0.3459  0.8704 -1.9083
    1SAPS   H7S   50  -0.431   6.363  10.198 -1.4517 -0.1933 -1.3695
    1SAPS   C28   51  -0.476   6.411   9.994 -0.5682  0.2190 -0.0736
    1SAPS   H8R   52  -0.447   6.498   9.934  2.7747 -2.7894 -3.3084
    1SAPS   C29   53  -0.599   6.346   9.984 -0.7185 -1.0906  0.3051
    1SAPS   H9R   54  -0.672   6.370   9.905 -1.7944 -2.1889  0.9357
    1SAPS  C210   55  -0.645   6.219  10.053 -0.1930 -0.1014  0.4758
    1SAPS  H10R   56  -0.605   6.207  10.156 -2.8787 -2.2131  1.4038
    1SAPS  H10S   57  -0.607   6.129   9.999 -1.4631 -0.1516 -0.3758
    1SAPS  C211   58  -0.792   6.218  10.059  0.0284  0.2429 -1.2703
    1SAPS  H11R   59  -0.821   6.305  10.121  2.3717 -0.0810  0.3912
    1SAPS  C212   60  -0.883   6.131  10.017 -0.1542 -0.2931  0.0911
    1SAPS  H12R   61  -0.988   6.153  10.039 -0.1661  0.2038 -0.4577
    1SAPS  C213   62  -0.852   6.008   9.935 -0.1699  0.2511 -0.4533
    1SAPS  H13R   63  -0.783   5.946   9.996  0.2028  3.2444  2.4851
    1SAPS  H13S   64  -0.785   6.044   9.854  2.1370  1.9581  2.0614
    1SAPS  C214   65  -0.965   5.923   9.890 -0.0794 -0.1295  0.0049
    1SAPS  H14R   66  -1.053   5.921   9.956 -1.1681 -0.8436 -1.4127
    1SAPS  C215   67  -0.972   5.838   9.781 -0.1208 -0.5542 -0.0766
    1SAPS  H15R   68  -1.069   5.787   9.769 -0.6524  0.3723  0.1979
    1SAPS  C216   69  -0.864   5.820   9.678 -0.1039  0.7477  0.2103
    1SAPS  H16R   70  -0.829   5.715   9.673  0.3494  0.8971  0.2033
    1SAPS  H16S   71  -0.770   5.877   9.693  0.4557 -0.3201  0.8741
    1SAPS  C217   72  -0.913   5.850   9.536  0.3295  0.1115 -0.3704
    1SAPS  H17R   73  -0.937   5.957   9.520  0.5903  0.2755  0.2889
    1SAPS  H17S   74  -1.011   5.804   9.514 -0.2256  2.8702 -4.9027
    1SAPS  C218   75  -0.816   5.798   9.429  0.4857  0.0559  1.1015
    1SAPS  H18R   76  -0.809   5.687   9.431 -1.6549 -0.1442  0.4077
    1SAPS  H18S   77  -0.717   5.846   9.446  0.1362  2.0631 -1.7590
    1SAPS  C219   78  -0.864   5.832   9.280  0.5399  0.2336  0.0396
    1SAPS  H19R   79  -0.865   5.941   9.257  0.9148  0.2116 -0.0990
    1SAPS  H19S   80  -0.964   5.784   9.281  1.7540 -2.4805 -0.1089
    1SAPS  C220   81  -0.774   5.764   9.174 -0.7838  0.3860  0.2553
    1SAPS  H20R   82  -0.703   5.834   9.125 -1.6033  0.8709 -0.2608
    1SAPS  H20S   83  -0.831   5.709   9.095  0.1750 -1.9362  1.0784
    1SAPS  H20T   84  -0.711   5.682   9.216  1.5578  0.9703 -1.8452
    1SAPS   C33   85  -0.012   5.834  10.143 -0.1456  0.2122 -0.3848
    1SAPS   H3X   86  -0.054   5.935  10.128 -0.4736  0.4066  1.6321
    1SAPS   H3Y   87  -0.102   5.768  10.150 -0.5649  0.8108 -0.1056
    1SAPS   C34   88   0.072   5.797  10.021 -0.1256  0.7685  0.6667
    1SAPS   H4X   89   0.094   5.688  10.025 -1.6327  0.3416 -1.2280
    1SAPS   H4Y   90   0.171   5.847  10.023  1.3147 -1.7635 -1.1681
    1SAPS   C35   91   0.006   5.839   9.888 -0.0690 -0.3205  0.4799
    1SAPS   H5X   92  -0.021   5.947   9.883  0.8236 -0.0662  0.8706
    1SAPS   H5Y   93  -0.087   5.779   9.879  0.6815 -1.3543 -0.7180
    1SAPS   C36   94   0.101   5.811   9.764  0.7660  0.2279  0.0468
    1SAPS   H6X   95   0.142   5.708   9.762  0.4653  0.0666  1.2003
    1SAPS   H6Y   96   0.185   5.883   9.759  0.0572  1.0361 -0.3686
    1SAPS   C37   97   0.029   5.823   9.627 -0.5695 -0.1797  0.0751
    1SAPS   H7X   98  -0.032   5.916   9.630 -1.8028 -0.9527 -0.1734
    1SAPS   H7Y   99  -0.041   5.739   9.606  0.9444 -2.1235  2.2681
    1SAPS   C38  100   0.131   5.818   9.515  0.0983  0.3252 -0.0276
    1SAPS   H8X  101   0.150   5.709   9.503  1.4398  0.6261 -0.8787
    1SAPS   H8Y  102   0.223   5.879   9.533  1.0465 -1.2474  0.6980
    1SAPS   C39  103   0.065   5.848   9.380 -0.0512  0.0210 -0.6871
    1SAPS   H9X  104   0.035   5.955   9.388 -1.2702 -0.4150  1.2740
    1SAPS   H9Y  105  -0.025   5.784   9.364  0.2125  0.0424 -2.4201
    1SAPS  C310  106   0.160   5.845   9.264 -0.4908  0.7232 -0.0922
    1SAPS  H10X  107   0.223   5.754   9.263 -0.4076  0.5763  3.6900
    1SAPS  H10Y  108   0.241   5.920   9.281  2.7623 -2.4486 -0.4611
    1SAPS  C311  109   0.091   5.869   9.129  0.6654  0.0294  0.1093
    1SAPS  H11X  110  -0.002   5.809   9.137  0.1102  1.0432  1.7745
    1SAPS  H11Y  111   0.155   5.834   9.045 -0.7882 -2.3168 -0.1294
    1SAPS  C312  112   0.054   6.024   9.112  0.5541  0.4102  0.1554
    1SAPS  H12X  113  -0.007   6.058   9.198  1.8338  0.0860  1.2289
    1SAPS  H12Y  114  -0.006   6.029   9.018  0.9359  0.0406 -0.1152
    1SAPS  C313  115   0.181   6.121   9.108 -0.5419 -0.0996 -0.3964
    1SAPS  H13X  116   0.251   6.096   9.025 -0.6252 -1.4645 -0.0678
    1SAPS  H13Y  117   0.240   6.101   9.200 -2.0404 -2.3152  0.1505
    1SAPS  C314  118   0.148   6.267   9.110 -0.2738  0.4117  0.6438
    1SAPS  H14X  119   0.241   6.317   9.144 -0.1368 -1.0790  2.6421
    1SAPS  H14Y  120   0.078   6.300   9.190  0.3296  1.7518  0.6438
    1SAPS  C315  121   0.110   6.315   8.970 -0.9077 -0.3813  0.0549
    1SAPS  H15X  122   0.066   6.233   8.909  1.8292 -1.8218 -0.1225
    1SAPS  H15Y  123   0.206   6.332   8.917  0.3556  0.6047  2.5069
    1SAPS  C316  124   0.036   6.447   8.970  0.1686 -0.2872  0.3033
    1SAPS  H16X  125   0.101   6.521   9.020 -1.2757  1.0576  0.2700
    1SAPS  H16Y  126  -0.055   6.447   9.034  0.3245 -2.0896  0.5737
    1SAPS  C317  127   0.017   6.495   8.828 -0.5376 -0.1802 -0.7205
    1SAPS  H17X  128  -0.050   6.432   8.766  2.3316 -2.1690 -2.0421
    1SAPS  H17Y  129   0.120   6.490   8.787 -0.4038  0.2072 -0.4365
    1SAPS  C318  130  -0.040   6.636   8.813  0.3438 -0.0899 -0.2093
    1SAPS  H18X  131  -0.113   6.663   8.891  0.3332 -1.7071  0.3914
    1SAPS  H18Y  132  -0.078   6.646   8.709  2.1594 -2.3941 -1.1851
    1SAPS  H18Z  133   0.053   6.697   8.822 -0.7083  1.8961 -1.9516
    2SAPS     N  134   3.943   6.844  10.568  0.4272 -0.2303 -0.2453
    2SAPS   HN1  135   3.932   6.915  10.643  0.7098  1.4086 -1.6863
    2SAPS   HN2  136   4.042   6.817  10.551 -0.0144 -0.5423 -2.7991
    2SAPS   HN3  137   3.915   6.899  10.484 -0.0996 -4.0005 -2.7911
    2SAPS   C12  138   3.862   6.719  10.594 -0.2190  0.2499 -0.4896
    2SAPS  H12A  139   3.889   6.639  10.527 -1.8351 -0.2482 -0.5840
    2SAPS   C13  140   3.881   6.659  10.734 -0.5782 -0.0804 -0.1515
    2SAPS  O13A  141   3.953   6.714  10.821  0.0215 -0.6047  0.2022
    2SAPS  O13B  142   3.835   6.543  10.741 -0.1241  0.4784 -0.6672
    2SAPS   C11  143   3.706   6.740  10.570 -0.6996 -0.5425 -0.0202
    2SAPS  H11A  144   3.666   6.797  10.657 -0.1277  0.7733 -0.5765
    2SAPS  H11B  145   3.667   6.637  10.560 -0.7031 -0.5971  0.5315
    2SAPS     P  146   3.590   6.939  10.437  0.0479  0.3526  0.4110
    2SAPS   O13  147   3.475   6.927  10.533  0.0682  0.2762  0.3098
    2SAPS   O14  148   3.674   7.065  10.430  0.6349  0.6586  0.1959
    2SAPS   O12  149   3.683   6.806  10.446  0.9296  0.1087  0.2667
    2SAPS   O11  150   3.532   6.920  10.287  0.2883 -0.1413  0.0406
    2SAPS    C1  151   3.470   6.801  10.246  0.2429  0.1027  0.2215
    2SAPS    HA  152   3.553   6.728  10.235  0.3060  0.2455 -0.2342
    2SAPS    HB  153   3.404   6.756  10.324  0.6265  0.4262  0.7420
    2SAPS    C2  154   3.389   6.830  10.119  0.3133  0.0709  0.1863
    2SAPS    HS  155   3.359   6.733  10.072  1.0413  0.3060 -0.7945
    2SAPS   O21  156   3.457   6.922  10.033  0.2979  0.9455 -0.4148
    2SAPS   C21  157   3.548   6.860   9.964 -0.3916  0.0262 -0.0213
    2SAPS   O22  158   3.569   6.738   9.962  0.6461 -0.0160  0.4290
    2SAPS   C22  159   3.611   6.970   9.873 -0.9230  0.4277  0.8421
    2SAPS   H2R  160   3.653   7.038   9.950 -0.3032 -1.5068  2.2950
    2SAPS   H2S  161   3.688   6.912   9.817 -2.4361 -2.7295  1.8436
    2SAPS    C3  162   3.252   6.901  10.156 -0.1838  0.4887 -0.2610
    2SAPS    HX  163   3.275   6.990  10.219  1.8342 -0.5281  0.5086
    2SAPS    HY  164   3.190   6.831  10.218 -1.0971  0.9451 -0.6356
    2SAPS   O31  165   3.182   6.932  10.035 -0.1902 -0.3445 -0.2782
    2SAPS   C31  166   3.058   6.887  10.015 -0.7746 -0.1646 -0.9755
    2SAPS   O32  167   2.990   6.825  10.096 -0.1488 -0.1657  0.2265
    2SAPS   C32  168   3.021   6.935   9.876 -0.1498  0.6529  0.1752
    2SAPS   H2X  169   3.094   6.879   9.815  1.3593  2.3578  0.3286
    2SAPS   H2Y  170   3.044   7.044   9.873 -1.9182  1.0612  0.4069
    2SAPS   C23  171   3.528   7.048   9.782  0.5326  0.2812  0.7263
    2SAPS   H3R  172   3.583   7.134   9.740  2.5427 -0.1743  2.2731
    2SAPS   H3S  173   3.442   7.080   9.845 -0.7108 -2.9220  0.8588
    2SAPS   C24  174   3.449   6.966   9.671  0.3958  0.4451 -0.0907
    2SAPS   H4R  175   3.404   6.871   9.708  1.7335 -0.2223 -0.1332
    2SAPS   H4S  176   3.524   6.934   9.595 -0.3487  1.0056 -1.0900
    2SAPS   C25  177   3.352   7.060   9.599 -0.0539 -0.3926 -0.2233
    2SAPS   H5R  178   3.341   7.156   9.652 -1.7891 -0.2198 -0.8502
    2SAPS   C26  179   3.292   7.049   9.474  0.8392 -0.0764 -0.9328
    2SAPS   H6R  180   3.219   7.126   9.444  1.7929 -0.0057 -3.2622
    2SAPS   C27  181   3.296   6.925   9.387 -0.2056 -0.7557 -0.4837
    2SAPS   H7R  182   3.203   6.916   9.327 -1.3577  2.9535  0.4863
    2SAPS   H7S  183   3.310   6.834   9.450  1.6965  0.4824  1.0004
    2SAPS   C28  184   3.414   6.924   9.299  0.0514  0.0128 -0.1907
    2SAPS   H8R  185   3.505   6.974   9.335  1.9693 -2.4236 -1.3725
    2SAPS   C29  186   3.427   6.860   9.176  0.2006  0.3224 -0.3911
    2SAPS   H9R  187   3.515   6.889   9.116  2.0172  1.1612  2.4748
    2SAPS  C210  188   3.306   6.787   9.111  0.1654 -0.2821 -0.3426
    2SAPS  H10R  189   3.213   6.786   9.172 -0.6917  0.7700 -1.5728
    2SAPS  H10S  190   3.334   6.681   9.091  0.5788 -0.3742  0.6870
    2SAPS  C211  191   3.258   6.844   8.982 -0.2355 -0.0871  0.3118
    2SAPS  H11R  192   3.217   6.945   8.995 -0.6755 -0.1484 -0.5221
    2SAPS  C212  193   3.256   6.803   8.849  0.1488  0.2160 -0.4360
    2SAPS  H12R  194   3.215   6.862   8.766  1.3164  0.0965 -1.1255
    2SAPS  C213  195   3.300   6.662   8.808 -0.3082  0.2106  0.6338
    2SAPS  H13R  196   3.355   6.615   8.893 -1.2551  0.0708  1.1941
    2SAPS  H13S  197   3.378   6.675   8.730 -1.1593  0.0732 -0.2598
    2SAPS  C214  198   3.188   6.572   8.759  0.4108  1.3706 -0.3233
    2SAPS  H14R  199   3.160   6.491   8.828 -0.9822  3.0281  1.1525
    2SAPS  C215  200   3.109   6.584   8.646  0.4221 -0.5011 -0.1000
    2SAPS  H15R  201   3.030   6.512   8.619  1.9530 -1.9116 -0.9901
    2SAPS  C216  202   3.129   6.693   8.546  0.8095 -0.3070 -0.8136
    2SAPS  H16R  203   3.141   6.647   8.445  2.8488 -1.1868 -0.2078
    2SAPS  H16S  204   3.225   6.746   8.564  0.2909  0.0683  1.0427
    2SAPS  C217  205   3.014   6.806   8.541  0.8719  0.0188  0.3151
    2SAPS  H17R  206   2.974   6.835   8.640  0.5994  1.1111 -0.0972
    2SAPS  H17S  207   2.937   6.749   8.485  2.6512 -0.3424 -1.9301
    2SAPS  C218  208   3.052   6.930   8.449 -0.6744  0.9783  0.1101
    2SAPS  H18R  209   3.102   6.894   8.356  2.8261  1.0255  1.8286
    2SAPS  H18S  210   3.138   6.989   8.485  1.5688 -1.8498 -0.2616
    2SAPS  C219  211   2.931   7.020   8.411 -0.2124  0.2615 -0.5983
    2SAPS  H19R  212   2.890   7.078   8.497 -2.2221 -1.9527  0.0476
    2SAPS  H19S  213   2.857   6.948   8.371  0.2659 -1.4896  1.4602
    2SAPS  C220  214   2.969   7.117   8.302 -0.5925  0.3825  1.1380
    2SAPS  H20R  215   2.995   7.051   8.217 -0.9871  2.0683 -0.3495
    2SAPS  H20S  216   3.059   7.178   8.325  0.7763 -0.9412 -0.4752
    2SAPS  H20T  217   2.888   7.185   8.268 -0.3674  0.8329  1.4829
    2SAPS   C33  218   2.879   6.923   9.829  0.1191  0.9031  0.7532
    2SAPS   H3X  219   2.805   6.985   9.885 -1.2385 -1.9653  2.3555
    2SAPS   H3Y  220   2.851   6.816   9.836 -2.1498  1.4184  0.3270
    2SAPS   C34  221   2.874   6.966   9.684  0.6861  0.3146  0.6358
    2SAPS   H4X  222   2.942   6.905   9.620 -0.0436 -0.0960  0.2409
    2SAPS   H4Y  223   2.917   7.068   9.682  3.2539 -0.5861  2.9608
    2SAPS   C35  224   2.737   6.967   9.620 -0.0278  0.9386 -0.0032
    2SAPS   H5X  225   2.668   7.024   9.685  1.6998  1.2375  1.6437
    2SAPS   H5Y  226   2.709   6.860   9.629  0.8256  0.9096  4.0524
    2SAPS   C36  227   2.726   7.013   9.477  0.0454  0.7391 -0.0048
    2SAPS   H6X  228   2.763   7.118   9.471  0.8221  0.4085 -1.6208
    2SAPS   H6Y  229   2.619   7.009   9.449 -0.2288 -0.4872  1.0907
    2SAPS   C37  230   2.791   6.924   9.366 -0.1092  0.3392  0.1536
    2SAPS   H7X  231   2.736   6.828   9.357  0.8587 -0.2442  0.3071
    2SAPS   H7Y  232   2.892   6.899   9.404  0.0392  0.3369 -0.2319
    2SAPS   C38  233   2.783   6.995   9.236 -0.3605  0.3953  0.5620
    2SAPS   H8X  234   2.813   7.102   9.243  2.8314 -0.4576  1.7213
    2SAPS   H8Y  235   2.684   6.986   9.188  0.5821 -1.5663 -1.1579
    2SAPS   C39  236   2.872   6.913   9.136  0.3718 -0.3784 -0.0134
    2SAPS   H9X  237   2.808   6.826   9.108 -1.2354  0.0205  2.1239
    2SAPS   H9Y  238   2.970   6.888   9.183 -1.1126 -0.5453  3.2667
    2SAPS  C310  239   2.895   6.989   9.004  0.2394 -0.7540  0.3688
    2SAPS  H10X  240   2.939   6.913   8.935  1.0952 -1.1118  1.2817
    2SAPS  H10Y  241   2.958   7.079   9.019 -0.2746  0.2819 -2.9122
    2SAPS  C311  242   2.770   7.053   8.938 -0.0558  0.2788  0.0120
    2SAPS  H11X  243   2.750   7.134   9.012  1.2268  1.4284 -0.8367
    2SAPS  H11Y  244   2.677   6.993   8.950  0.2211 -0.1618 -0.0307
    2SAPS  C312  245   2.786   7.110   8.797 -0.3665  0.2224 -0.8602
    2SAPS  H12X  246   2.789   7.021   8.730  0.5993 -0.8012  0.4842
    2SAPS  H12Y  247   2.880   7.168   8.791 -1.5080  2.5913  2.1126
    2SAPS  C313  248   2.666   7.196   8.757  0.1201 -0.1985  0.3095
    2SAPS  H13X  249   2.665   7.283   8.827 -0.2997  0.3904 -0.4138
    2SAPS  H13Y  250   2.572   7.137   8.766  0.3413 -0.4960  0.7008
    2SAPS  C314  251   2.668   7.264   8.618 -0.8679 -0.3028 -0.4698
    2SAPS  H14X  252   2.573   7.322   8.608 -2.1600 -1.9714  1.3451
    2SAPS  H14Y  253   2.683   7.190   8.537 -4.1493  0.0125 -1.5191
    2SAPS  C315  254   2.780   7.369   8.618 -0.1060  0.2639 -0.3982
    2SAPS  H15X  255   2.881   7.326   8.639 -0.4633 -0.9001 -0.9891
    2SAPS  H15Y  256   2.747   7.443   8.694 -1.6643  1.9369 -2.6072
    2SAPS  C316  257   2.783   7.449   8.482 -0.0627  0.4155  0.1720
    2SAPS  H16X  258   2.682   7.488   8.458  0.7795  3.7949  1.5045
    2SAPS  H16Y  259   2.816   7.382   8.400  0.2420  0.1546  0.5026
    2SAPS  C317  260   2.884   7.567   8.495 -0.3305 -0.1151 -0.0641
    2SAPS  H17X  261   2.910   7.584   8.388  1.1665 -0.5376  0.2038
    2SAPS  H17Y  262   2.973   7.536   8.554  0.9392 -0.5950 -2.1058
    2SAPS  C318  263   2.822   7.691   8.557  0.0453  0.2602 -0.4283
    2SAPS  H18X  264   2.893   7.776   8.566  2.7313 -1.8730 -0.0579
    2SAPS  H18Y  265   2.792   7.665   8.661  0.2278 -0.2158 -0.4901
    2SAPS  H18Z  266   2.733   7.711   8.495 -1.0376 -0.0328  0.9766
    3SAPS     N  267   1.815   2.302  10.919 -0.2218  0.1434  0.1175
    3SAPS   HN1  268   1.778   2.292  10.822 -3.2111  0.9921  1.0542
    3SAPS   HN2  269   1.740   2.264  10.981  1.3159 -1.5138  1.0490
    3SAPS   HN3  270   1.846   2.400  10.933 -0.8923  0.5063 -0.7978
    3SAPS   C12  271   1.941   2.217  10.926  0.1957  1.2742  0.4290
    3SAPS  H12A  272   2.029   2.265  10.887  0.3977 -0.0273 -0.8245
    3SAPS   C13  273   1.984   2.178  11.067  0.2068 -0.2592  0.3293
    3SAPS  O13A  274   1.929   2.236  11.163 -0.2619 -1.0290 -0.0036
    3SAPS  O13B  275   2.096   2.117  11.074 -0.2591 -0.1665  0.2711
    3SAPS   C11  276   1.913   2.093  10.828 -0.4902 -0.6105 -0.5567
    3SAPS  H11A  277   1.834   2.027  10.870 -1.8311  0.2805 -1.5768
    3SAPS  H11B  278   2.006   2.033  10.826  1.4855  2.0257  2.2433
    3SAPS     P  279   1.984   2.181  10.594 -0.0814  0.1911  0.2392
    3SAPS   O13  280   2.040   2.310  10.633  0.1097 -0.4522 -0.1130
    3SAPS   O14  281   2.079   2.069  10.586  0.1441 -0.1660  0.3869
    3SAPS   O12  282   1.879   2.139  10.693 -0.2156  0.3072 -0.0035
    3SAPS   O11  283   1.906   2.184  10.449 -0.4164 -0.1587 -0.0968
    3SAPS    C1  284   1.856   2.311  10.400  0.0099  0.4193 -0.4316
    3SAPS    HA  285   1.744   2.309  10.402  0.0054 -0.7100 -1.1953
    3SAPS    HB  286   1.886   2.397  10.464 -2.8260  1.2730 -0.0602
    3SAPS    C2  287   1.910   2.348  10.256 -0.7795 -0.0500 -0.3316
    3SAPS    HS  288   1.874   2.451  10.235  0.5682  0.3430 -0.8193
    3SAPS   O21  289   1.867   2.253  10.161  0.6267  0.6460  0.2485
    3SAPS   C21  290   1.818   2.315  10.049 -0.1843 -0.5817 -0.2842
    3SAPS   O22  291   1.804   2.437  10.039  0.0732  0.0643  0.6519
    3SAPS   C22  292   1.790   2.205   9.940  0.1071 -0.3568 -0.1391
    3SAPS   H2R  293   1.788   2.107   9.992 -0.4303  1.4823  3.6765
    3SAPS   H2S  294   1.685   2.214   9.905  1.0828  0.4171 -3.1378
    3SAPS    C3  295   2.063   2.352  10.264  0.4236  0.3977  0.1235
    3SAPS    HX  296   2.110   2.252  10.273 -1.4496 -0.5314  0.0246
    3SAPS    HY  297   2.082   2.394  10.365 -0.0901 -2.6012  1.5754
    3SAPS   O31  298   2.119   2.442  10.164  0.8252  0.1062 -0.0769
    3SAPS   C31  299   2.142   2.376  10.053 -0.0909 -0.7296 -0.8412
    3SAPS   O32  300   2.118   2.260  10.034  0.2244 -0.1364  0.2476
    3SAPS   C32  301   2.198   2.474   9.949  0.5215 -0.5233  0.7244
    3SAPS   H2X  302   2.266   2.551   9.992  2.8168 -0.9488 -1.8900
    3SAPS   H2Y  303   2.115   2.531   9.903  1.5130 -0.2737 -0.8256
    3SAPS   C23  304   1.875   2.216   9.819  0.2496 -0.7245  0.1645
    3SAPS   H3R  305   1.979   2.195   9.850  0.4383  1.1547  0.9827
    3SAPS   H3S  306   1.860   2.315   9.769 -2.1084 -1.0904  0.0054
    3SAPS   C24  307   1.832   2.108   9.713 -0.8145 -0.9420  1.1369
    3SAPS   H4R  308   1.909   2.122   9.634 -1.1034 -0.2717  0.9670
    3SAPS   H4S  309   1.728   2.129   9.680 -0.7189  0.5431  1.7121
    3SAPS   C25  310   1.842   1.968   9.768 -0.7742  0.0794 -0.5438
    3SAPS   H5R  311   1.787   1.948   9.861 -1.8628 -0.6969 -1.3354
    3SAPS   C26  312   1.912   1.864   9.711  0.2493 -0.6680 -0.7197
    3SAPS   H6R  313   1.918   1.770   9.768  0.7566  0.0216  0.4052
    3SAPS   C27  314   1.996   1.878   9.579 -0.3168 -0.7222  0.0480
    3SAPS   H7R  315   2.099   1.853   9.608 -0.5543 -1.4198  0.3010
    3SAPS   H7S  316   2.008   1.982   9.540  0.4387 -0.5669  0.6819
    3SAPS   C28  317   1.964   1.780   9.470  0.0134 -0.3650  0.7706
    3SAPS   H8R  318   1.961   1.672   9.489  2.7371 -0.6645 -0.0497
    3SAPS   C29  319   1.939   1.819   9.347 -0.2393  0.1635 -0.1341
    3SAPS   H9R  320   1.903   1.742   9.276 -0.8061  1.8789 -1.8102
    3SAPS  C210  321   1.941   1.958   9.293  0.0892  0.5105  0.0657
    3SAPS  H10R  322   2.045   1.994   9.282 -0.0938  1.3770  1.0479
    3SAPS  H10S  323   1.896   2.040   9.354 -0.8887  0.6838 -0.8566
    3SAPS  C211  324   1.881   1.965   9.151  0.6350 -0.8658  0.1670
    3SAPS  H11R  325   1.775   1.936   9.148  0.0842  1.1103 -1.9950
    3SAPS  C212  326   1.942   2.008   9.038 -0.5387  0.6229  0.1782
    3SAPS  H12R  327   1.880   2.011   8.948 -0.2259 -1.0732 -0.1409
    3SAPS  C213  328   2.084   2.063   9.032 -0.5914  0.4517 -0.0690
    3SAPS  H13R  329   2.143   2.012   9.111 -3.4427  0.6482  2.3323
    3SAPS  H13S  330   2.080   2.170   9.062 -0.4778  0.1179  1.2055
    3SAPS  C214  331   2.141   2.060   8.889 -0.4669 -0.0294 -0.1691
    3SAPS  H14R  332   2.222   1.988   8.873  1.4479  2.0764 -0.4259
    3SAPS  C215  333   2.099   2.123   8.777 -0.2050  0.0127  0.1673
    3SAPS  H15R  334   2.166   2.122   8.690 -1.1488 -1.6058 -0.5780
    3SAPS  C216  335   1.985   2.223   8.786  0.4074 -0.4950 -0.7333
    3SAPS  H16R  336   1.944   2.242   8.888 -1.4939  0.6046 -1.6294
    3SAPS  H16S  337   1.905   2.180   8.723  0.3382  0.3510 -1.2382
    3SAPS  C217  338   2.019   2.362   8.731  0.3455 -0.1875 -0.2068
    3SAPS  H17R  339   1.925   2.421   8.724 -0.0477 -0.1916  3.3318
    3SAPS  H17S  340   2.065   2.355   8.630  0.0612 -0.2273 -0.3335
    3SAPS  C218  341   2.109   2.452   8.823  0.0227  0.0982 -0.8923
    3SAPS  H18R  342   2.212   2.420   8.798 -0.7190 -2.0787 -1.3816
    3SAPS  H18S  343   2.105   2.423   8.930  1.4599  0.8535 -0.6064
    3SAPS  C219  344   2.114   2.603   8.799  0.1982 -0.1472 -0.3112
    3SAPS  H19R  345   2.210   2.639   8.841 -0.1402 -1.4635  1.7255
    3SAPS  H19S  346   2.040   2.656   8.862 -1.4090 -0.3917 -1.9293
    3SAPS  C220  347   2.081   2.648   8.654  0.5211  0.0851  0.5282
    3SAPS  H20R  348   2.166   2.605   8.595  0.5371 -0.5994  1.0367
    3SAPS  H20S  349   2.074   2.757   8.633 -3.1056 -0.1581 -0.1782
    3SAPS  H20T  350   1.986   2.601   8.620 -0.9437  1.6934  2.2184
    3SAPS   C33  351   2.297   2.394   9.861 -0.0551  0.5351  0.1363
    3SAPS   H3X  352   2.327   2.301   9.912  1.2123 -0.5409 -2.3926
    3SAPS   H3Y  353   2.386   2.460   9.850 -0.0951  0.4221 -1.0333
    3SAPS   C34  354   2.242   2.360   9.721  0.2251  0.0118 -0.0373
    3SAPS   H4X  355   2.167   2.430   9.679 -0.5276 -2.0704 -2.3342
    3SAPS   H4Y  356   2.196   2.260   9.711  0.1636  0.2149 -2.2391
    3SAPS   C35  357   2.352   2.341   9.618  0.0860 -0.7103  0.4137
    3SAPS   H5X  358   2.414   2.253   9.647 -0.7922 -2.0278 -1.4806
    3SAPS   H5Y  359   2.411   2.435   9.621 -1.6002  0.4424 -0.8705
    3SAPS   C36  360   2.296   2.305   9.481  0.7284  0.1024 -0.1527
    3SAPS   H6X  361   2.211   2.372   9.456 -1.0701 -0.7821  2.9526
    3SAPS   H6Y  362   2.261   2.200   9.476  0.3116  0.2938 -2.1908
    3SAPS   C37  363   2.412   2.312   9.378  0.1863 -0.7300  0.4823
    3SAPS   H7X  364   2.468   2.218   9.397 -1.1403 -1.4321  1.0820
    3SAPS   H7Y  365   2.472   2.403   9.399 -1.1528  0.2721  0.1429
    3SAPS   C38  366   2.361   2.314   9.234 -0.7409  0.4178  0.2493
    3SAPS   H8X  367   2.285   2.395   9.223 -1.9550 -0.2466  2.7757
    3SAPS   H8Y  368   2.292   2.228   9.222 -0.1362 -0.1756  0.9484
    3SAPS   C39  369   2.474   2.303   9.132 -0.1976  0.2189  0.3159
    3SAPS   H9X  370   2.502   2.195   9.128  2.5542  0.8692 -0.8658
    3SAPS   H9Y  371   2.565   2.361   9.159  1.5625 -1.5944 -1.3153
    3SAPS  C310  372   2.444   2.352   8.993  0.1511  0.8479  0.0005
    3SAPS  H10X  373   2.432   2.462   8.988  1.5282  1.1919  2.3504
    3SAPS  H10Y  374   2.352   2.301   8.958  1.3657 -1.6883  0.2672
    3SAPS  C311  375   2.574   2.340   8.904 -0.0499  0.8874  0.2992
    3SAPS  H11X  376   2.595   2.231   8.898 -0.4736  0.8414 -0.4006
    3SAPS  H11Y  377   2.661   2.388   8.955 -2.2093  2.6156  2.6732
    3SAPS  C312  378   2.554   2.393   8.758 -0.1569  0.1351  1.1694
    3SAPS  H12X  379   2.449   2.370   8.728  0.9312 -2.2054 -1.2478
    3SAPS  H12Y  380   2.621   2.338   8.689  0.7507  1.5237  0.8966
    3SAPS  C313  381   2.576   2.540   8.742 -0.4443 -0.7830  0.0054
    3SAPS  H13X  382   2.671   2.570   8.791  0.2360 -0.1589 -1.6322
    3SAPS  H13Y  383   2.489   2.590   8.790  0.4195 -0.1339  0.9343
    3SAPS  C314  384   2.575   2.590   8.594 -0.6980 -0.5698  0.5299
    3SAPS  H14X  385   2.483   2.549   8.547 -0.3345 -1.2153  0.3665
    3SAPS  H14Y  386   2.661   2.545   8.540  0.0599 -0.0276  1.2563
    3SAPS  C315  387   2.596   2.741   8.576 -0.2577 -0.1002  0.1867
    3SAPS  H15X  388   2.686   2.765   8.637 -0.1062  0.9275 -0.4299
    3SAPS  H15Y  389   2.509   2.795   8.620 -1.1261  0.4801 -2.1253
    3SAPS  C316  390   2.622   2.793   8.432 -0.0587  0.0602  0.0161
    3SAPS  H16X  391   2.560   2.740   8.356  0.2653 -2.9116  1.6845
    3SAPS  H16Y  392   2.724   2.757   8.405  0.1913  0.6315  0.1900
    3SAPS  C317  393   2.630   2.944   8.424 -0.4667  0.2389  0.6946
    3SAPS  H17X  394   2.699   2.982   8.346 -1.8153  1.3941  0.0148
    3SAPS  H17Y  395   2.678   2.981   8.517 -0.9371  0.3377  0.9013
    3SAPS  C318  396   2.496   3.002   8.392  0.2122  0.3773 -0.4203
    3SAPS  H18X  397   2.446   2.955   8.305  1.2058 -1.0639 -0.2575
    3SAPS  H18Y  398   2.488   3.111   8.375 -1.9170  0.1468 -1.1817
    3SAPS  H18Z  399   2.431   2.974   8.478 -0.2739 -0.9599 -1.1945
    4SAPS     N  400   5.720   0.566  11.031  0.1521  0.0783 -0.0835
    4SAPS   HN1  401   5.770   0.643  11.080  0.9767 -0.6795  0.3057
    4SAPS   HN2  402   5.690   0.499  11.106  0.8434  0.6300  0.7062
    4SAPS   HN3  403   5.792   0.523  10.969  0.0507 -0.9707  0.4857
    4SAPS   C12  404   5.609   0.628  10.959  0.0791  0.3486 -0.2846
    4SAPS  H12A  405   5.590   0.571  10.869  1.9008 -1.2245  0.2756
    4SAPS   C13  406   5.476   0.607  11.038 -0.4810 -0.3194  1.3695
    4SAPS  O13A  407   5.477   0.540  11.147 -0.3053  0.3587 -0.0086
    4SAPS  O13B  408   5.372   0.657  10.995 -0.5363 -0.1539 -0.2907
    4SAPS   C11  409   5.644   0.778  10.946  0.6048 -0.6191 -0.6169
    4SAPS  H11A  410   5.654   0.817  11.049  0.5362 -1.2877 -0.3594
    4SAPS  H11B  411   5.561   0.833  10.896  0.5030 -0.0113  0.1923
    4SAPS     P  412   5.790   0.876  10.743 -0.0971  0.2928 -0.0133
    4SAPS   O13  413   5.658   0.929  10.690  0.3354  0.1590 -0.7916
    4SAPS   O14  414   5.895   0.982  10.771  0.0148 -0.1294 -0.0933
    4SAPS   O12  415   5.770   0.795  10.880 -0.6933 -0.4224  0.2124
    4SAPS   O11  416   5.847   0.765  10.644 -0.1538 -0.0656 -0.4567
    4SAPS    C1  417   5.976   0.761  10.589  0.3802  0.2934 -0.2798
    4SAPS    HA  418   6.052   0.796  10.663 -1.2265 -0.1682  1.6827
    4SAPS    HB  419   5.995   0.653  10.571 -3.7652 -0.5547 -0.5023
    4SAPS    C2  420   6.006   0.841  10.461 -0.1853 -0.4096  0.2683
    4SAPS    HS  421   5.991   0.950  10.479 -1.5493  0.1033 -3.2596
    4SAPS   O21  422   5.908   0.799  10.360  0.2368  0.0306 -0.1267
    4SAPS   C21  423   5.798   0.874  10.358  0.4618  0.0509  0.1459
    4SAPS   O22  424   5.782   0.982  10.419 -0.4298  0.2633  0.0586
    4SAPS   C22  425   5.671   0.818  10.283 -0.6153 -1.0151 -0.9778
    4SAPS   H2R  426   5.613   0.754  10.352 -0.6620 -1.0584 -1.0561
    4SAPS   H2S  427   5.606   0.906  10.267  0.0742 -0.4339 -0.6062
    4SAPS    C3  428   6.146   0.819  10.395 -0.1646  0.6689 -0.3041
    4SAPS    HX  429   6.166   0.710  10.402 -1.3576  0.3022 -2.0748
    4SAPS    HY  430   6.206   0.880  10.466  2.4505 -0.8108 -1.1100
    4SAPS   O31  431   6.147   0.877  10.263 -0.6285  0.3230 -1.0163
    4SAPS   C31  432   6.247   0.956  10.234  0.5493 -0.2094  0.1157
    4SAPS   O32  433   6.349   0.969  10.304 -0.5929 -0.1668  0.1401
    4SAPS   C32  434   6.216   1.046  10.115  0.2166 -0.6356  0.3534
    4SAPS   H2X  435   6.300   1.118  10.104 -1.2610  1.2767  1.0344
    4SAPS   H2Y  436   6.130   1.105  10.153 -0.5682 -0.8102 -1.0614
    4SAPS   C23  437   5.701   0.753  10.145 -0.8069  0.3086 -0.8227
    4SAPS   H3R  438   5.607   0.740  10.086 -0.9895 -0.2309 -0.4266
    4SAPS   H3S  439   5.741   0.652  10.170  2.8035  1.5677 -0.9645
    4SAPS   C24  440   5.804   0.837  10.067 -0.6515 -0.3133 -0.0832
    4SAPS   H4R  441   5.834   0.774   9.980 -0.6718 -2.0840  1.1476
    4SAPS   H4S  442   5.897   0.851  10.126  0.3427 -1.0205 -1.4323
    4SAPS   C25  443   5.748   0.968  10.021 -0.0434  0.3747  0.2975
    4SAPS   H5R  444   5.739   1.046  10.098  1.5045  0.3220  0.5818
    4SAPS   C26  445   5.708   0.992   9.893 -0.5045  0.0690 -0.3257
    4SAPS   H6R  446   5.656   1.087   9.873 -0.1402  0.0429 -1.4552
    4SAPS   C27  447   5.718   0.896   9.771  0.1024 -0.4696  0.0889
    4SAPS   H7R  448   5.653   0.943   9.694  2.2353  1.2353 -0.7812
    4SAPS   H7S  449   5.665   0.802   9.797  1.1924 -0.4997  2.4454
    4SAPS   C28  450   5.861   0.864   9.715  0.9256 -0.2589  0.6646
    4SAPS   H8R  451   5.929   0.812   9.784  1.4509  1.9590  1.9126
    4SAPS   C29  452   5.913   0.904   9.597  0.3493  0.1135 -0.3713
    4SAPS   H9R  453   6.015   0.865   9.580  0.1963 -1.5249  1.9686
    4SAPS  C210  454   5.849   0.992   9.492 -0.0087 -0.1955  0.2148
    4SAPS  H10R  455   5.931   1.014   9.420  1.3564  0.4499  1.9077
    4SAPS  H10S  456   5.832   1.088   9.544 -0.3411  0.2671 -0.7149
    4SAPS  C211  457   5.727   0.945   9.416 -0.2384  0.4267  0.4290
    4SAPS  H11R  458   5.657   0.887   9.478 -0.0823  0.0025  0.2146
    4SAPS  C212  459   5.702   0.958   9.285 -0.4431  0.1997  0.0257
    4SAPS  H12R  460   5.605   0.922   9.248 -1.2757 -0.0233  2.2755
    4SAPS  C213  461   5.783   1.030   9.185 -0.5086  0.2811 -0.2253
    4SAPS  H13R  462   5.864   1.089   9.234 -0.5825  0.2010 -0.0098
    4SAPS  H13S  463   5.716   1.102   9.133 -2.1144 -0.0894  1.2604
    4SAPS  C214  464   5.842   0.938   9.084  0.4134 -0.1465  0.1713
    4SAPS  H14R  465   5.842   0.837   9.127  1.0632 -0.1177  0.2457
    4SAPS  C215  466   5.903   0.966   8.968  0.1720  0.2395  0.1462
    4SAPS  H15R  467   5.922   0.879   8.903 -1.3925 -2.2147  2.7271
    4SAPS  C216  468   5.913   1.097   8.898 -0.4097  0.7458  0.1035
    4SAPS  H16R  469   6.019   1.116   8.871 -0.2104  1.5774  1.3969
    4SAPS  H16S  470   5.904   1.186   8.964  3.6335  0.8923  0.7108
    4SAPS  C217  471   5.819   1.115   8.778 -0.3221  0.1662  0.3781
    4SAPS  H17R  472   5.841   1.221   8.753 -1.5043  0.4478  0.4559
    4SAPS  H17S  473   5.715   1.099   8.816 -0.0297 -0.6087  0.8687
    4SAPS  C218  474   5.859   1.030   8.659  0.4368  0.4346 -0.1027
    4SAPS  H18R  475   5.846   0.926   8.696  1.7168  1.3898  3.4170
    4SAPS  H18S  476   5.968   1.034   8.635  0.3779  1.1513 -0.2771
    4SAPS  C219  477   5.781   1.061   8.528  0.2103  0.1993 -0.2648
    4SAPS  H19R  478   5.848   1.013   8.454  2.1495  0.3403  1.2977
    4SAPS  H19S  479   5.783   1.168   8.498 -1.2493 -0.2845 -2.3195
    4SAPS  C220  480   5.639   1.009   8.537 -0.1124 -0.3526  0.1020
    4SAPS  H20R  481   5.593   1.039   8.634  0.0681 -1.2338  0.4656
    4SAPS  H20S  482   5.653   0.899   8.545  0.2040 -0.3826 -0.7740
    4SAPS  H20T  483   5.572   1.036   8.452 -2.1648 -2.6700  0.8577
    4SAPS   C33  484   6.169   0.975   9.987 -0.2275  0.2259  0.3595
    4SAPS   H3X  485   6.131   1.053   9.917  1.0499  2.0964  1.6410
    4SAPS   H3Y  486   6.087   0.901   9.999 -0.3021  0.0774 -0.9104
    4SAPS   C34  487   6.290   0.910   9.932 -0.3887  0.0141  0.1249
    4SAPS   H4X  488   6.308   0.825  10.002 -1.5901 -0.1003  0.3142
    4SAPS   H4Y  489   6.364   0.992   9.934 -1.1926  0.7898 -0.9555
    4SAPS   C35  490   6.276   0.848   9.792  0.4733  1.0760  0.6106
    4SAPS   H5X  491   6.186   0.884   9.738  0.0070  0.5923  1.0531
    4SAPS   H5Y  492   6.264   0.739   9.807  1.9620  0.7191 -0.5326
    4SAPS   C36  493   6.406   0.867   9.709  0.4154  0.9103 -0.3546
    4SAPS   H6X  494   6.484   0.810   9.763 -1.6512 -0.7252  1.0840
    4SAPS   H6Y  495   6.433   0.975   9.715  0.0958  0.9198  1.6259
    4SAPS   C37  496   6.405   0.813   9.566 -0.0973 -0.1011  0.3826
    4SAPS   H7X  497   6.407   0.703   9.579  1.3568 -0.0829  0.5493
    4SAPS   H7Y  498   6.498   0.838   9.511 -1.8659  4.1973 -1.0852
    4SAPS   C38  499   6.294   0.852   9.478  0.3826  0.2831  0.1633
    4SAPS   H8X  500   6.282   0.962   9.482 -1.1215  0.0969  1.7419
    4SAPS   H8Y  501   6.203   0.815   9.531  0.5300  0.8074  0.7864
    4SAPS   C39  502   6.312   0.815   9.331 -0.0154  0.1385 -0.8648
    4SAPS   H9X  503   6.301   0.706   9.313 -1.7300  0.1845 -0.2610
    4SAPS   H9Y  504   6.417   0.844   9.310 -0.1038  1.5526  0.4834
    4SAPS  C310  505   6.218   0.891   9.240 -0.4002  0.3280 -0.2712
    4SAPS  H10X  506   6.214   0.998   9.269  0.7029  0.7468 -1.5277
    4SAPS  H10Y  507   6.117   0.848   9.256  0.2057 -1.3020 -0.6041
    4SAPS  C311  508   6.254   0.885   9.091  0.1301 -0.0149  0.1230
    4SAPS  H11X  509   6.364   0.892   9.079 -0.0801  0.1445 -2.0558
    4SAPS  H11Y  510   6.216   0.976   9.041 -0.7689  0.4414  1.5716
    4SAPS  C312  511   6.208   0.762   9.007  0.8480  0.4561  0.1039
    4SAPS  H12X  512   6.098   0.768   8.990  0.4279  1.7992  2.6847
    4SAPS  H12Y  513   6.216   0.669   9.067  1.3649  0.0851 -0.5332
    4SAPS  C313  514   6.295   0.718   8.887 -0.1651  0.3678 -0.0005
    4SAPS  H13X  515   6.241   0.639   8.830 -3.2718  2.0402  0.3679
    4SAPS  H13Y  516   6.392   0.678   8.922 -0.2114  0.8746  0.7299
    4SAPS  C314  517   6.331   0.833   8.794 -0.1834 -0.6884  0.2872
    4SAPS  H14X  518   6.415   0.794   8.732  1.3940  0.5591  1.5461
    4SAPS  H14Y  519   6.371   0.918   8.853 -0.8038 -0.8793  0.9888
    4SAPS  C315  520   6.216   0.875   8.703  0.7249 -0.3635 -0.0425
    4SAPS  H15X  521   6.136   0.911   8.771  0.6433 -0.9665  0.1874
    4SAPS  H15Y  522   6.183   0.783   8.649 -0.9282 -1.0700  2.0317
    4SAPS  C316  523   6.250   0.979   8.595  0.5028  0.0771 -0.1770
    4SAPS  H16X  524   6.170   0.971   8.518  0.1591 -0.9762  0.2776
    4SAPS  H16Y  525   6.344   0.941   8.550  0.4712  1.0914 -1.1650
    4SAPS  C317  526   6.274   1.120   8.635 -0.3134 -0.5204 -0.1991
    4SAPS  H17X  527   6.340   1.132   8.723  0.9579  1.7788 -1.3763
    4SAPS  H17Y  528   6.174   1.163   8.657 -0.3237 -0.7429  0.1967
    4SAPS  C318  529   6.338   1.208   8.522  0.5345 -0.1180 -0.2367
    4SAPS  H18X  530   6.273   1.190   8.434 -0.3776 -1.9494  0.7563
    4SAPS  H18Y  531   6.444   1.182   8.501  0.8159  0.7442  0.0423
    4SAPS  H18Z  532   6.319   1.312   8.558 -1.2958 -0.9566  1.4343
    5SAPS     N  533   1.559   4.098  10.999  1.4397 -0.6008  0.3467
    5SAPS   HN1  534   1.632   4.037  10.957  1.4517 -0.2395 -0.1769
    5SAPS   HN2  535   1.574   4.195  10.964  1.2105 -0.5989  0.2548
    5SAPS   HN3  536   1.563   4.096  11.103 -0.3106 -1.9228  0.4355
    5SAPS   C12  537   1.416   4.067  10.958 -0.5492 -0.0872  0.2858
    5SAPS  H12A  538   1.409   3.962  10.982  2.6936 -1.0899 -2.4676
    5SAPS   C13  539   1.305   4.150  11.023  0.0405  0.3511 -0.2830
    5SAPS  O13A  540   1.330   4.242  11.102  0.1071 -0.4552  0.2562
    5SAPS  O13B  541   1.186   4.127  10.986 -0.2967 -0.2686  0.6049
    5SAPS   C11  542   1.417   4.074  10.804 -0.1582  1.0038 -1.1481
    5SAPS  H11A  543   1.450   4.173  10.768 -0.8845  0.8421 -2.3208
    5SAPS  H11B  544   1.312   4.069  10.768 -0.8859  1.1781  0.8380
    5SAPS     P  545   1.464   3.846  10.666 -0.1042 -0.3630 -0.0716
    5SAPS   O13  546   1.581   3.799  10.592 -0.3015  0.0901  0.4014
    5SAPS   O14  547   1.389   3.753  10.750  0.0799  0.8312  0.0590
    5SAPS   O12  548   1.501   3.971  10.747  0.7591 -0.1416  0.3105
    5SAPS   O11  549   1.360   3.910  10.570  0.4651  0.3516 -0.5338
    5SAPS    C1  550   1.392   4.026  10.489 -0.1618  0.1318  0.1251
    5SAPS    HA  551   1.298   4.081  10.467 -0.5075 -0.7469 -0.6127
    5SAPS    HB  552   1.466   4.100  10.526 -0.7454  1.6356 -1.5872
    5SAPS    C2  553   1.450   3.998  10.349 -0.5333 -0.1743  0.3584
    5SAPS    HS  554   1.553   3.958  10.358  0.9156  1.8921 -4.2376
    5SAPS   O21  555   1.449   4.121  10.278  0.2363  0.6313  0.3451
    5SAPS   C21  556   1.543   4.138  10.192  0.7667 -0.8628 -0.6120
    5SAPS   O22  557   1.639   4.068  10.175  0.0191  0.4244  0.3909
    5SAPS   C22  558   1.513   4.272  10.116 -0.4664  0.3678  0.4623
    5SAPS   H2R  559   1.418   4.258  10.061 -0.0413  0.3137 -0.2720
    5SAPS   H2S  560   1.502   4.346  10.198 -2.0049  0.1744  0.4622
    5SAPS    C3  561   1.370   3.878  10.278 -0.3322  0.2777  0.2110
    5SAPS    HX  562   1.260   3.894  10.288 -0.4490 -0.0601 -0.5280
    5SAPS    HY  563   1.388   3.785  10.335  0.4314 -0.8717 -1.8196
    5SAPS   O31  564   1.406   3.868  10.138  0.0443  0.0426  0.1170
    5SAPS   C31  565   1.521   3.802  10.118 -0.4634  0.1093 -0.2397
    5SAPS   O32  566   1.586   3.745  10.206  0.3445 -0.0410 -0.6935
    5SAPS   C32  567   1.562   3.818   9.967 -0.9160  0.4775 -0.0098
    5SAPS   H2X  568   1.585   3.926   9.955  2.8171 -0.3388 -1.8081
    5SAPS   H2Y  569   1.482   3.771   9.906  0.1887 -3.0300  1.0173
    5SAPS   C23  570   1.621   4.299  10.012  0.0067  0.1214  0.9083
    5SAPS   H3R  571   1.724   4.309  10.053  1.0228 -1.2133 -1.1733
    5SAPS   H3S  572   1.607   4.399   9.967  1.6479  0.2957  0.7518
    5SAPS   C24  573   1.635   4.197   9.897  0.4268 -0.0588  0.0043
    5SAPS   H4R  574   1.536   4.155   9.870  1.3906 -1.1830 -2.0492
    5SAPS   H4S  575   1.690   4.114   9.947 -0.7910 -0.5427  0.5647
    5SAPS   C25  576   1.705   4.216   9.763  0.3457 -1.4357 -0.8123
    5SAPS   H5R  577   1.809   4.180   9.763 -0.0990 -2.8111 -0.2735
    5SAPS   C26  578   1.654   4.240   9.642 -0.0769  0.0929  0.2534
    5SAPS   H6R  579   1.725   4.251   9.559 -0.6343  0.1154 -0.2282
    5SAPS   C27  580   1.510   4.265   9.607  0.1381 -0.5043  0.0067
    5SAPS   H7R  581   1.451   4.297   9.695 -0.1580  0.5759 -0.5658
    5SAPS   H7S  582   1.460   4.174   9.568  2.2204 -0.7157 -2.4844
    5SAPS   C28  583   1.506   4.375   9.506 -0.0958  0.3118  0.0865
    5SAPS   H8R  584   1.479   4.471   9.553  0.7881 -0.2931  1.9166
    5SAPS   C29  585   1.538   4.361   9.377  0.6822  0.2257 -0.4262
    5SAPS   H9R  586   1.538   4.458   9.325 -2.6773 -0.0560 -1.1657
    5SAPS  C210  587   1.584   4.239   9.298  0.1886 -0.0294  0.6937
    5SAPS  H10R  588   1.626   4.163   9.367 -0.0505 -2.5694 -1.7756
    5SAPS  H10S  589   1.672   4.270   9.237 -1.6922  0.7182 -1.8315
    5SAPS  C211  590   1.488   4.185   9.196 -0.0421 -0.5472  0.2131
    5SAPS  H11R  591   1.416   4.108   9.228  1.7841 -2.8573 -0.8709
    5SAPS  C212  592   1.482   4.219   9.066  0.3213  0.0950  0.8506
    5SAPS  H12R  593   1.404   4.172   9.005  1.1407  2.1705 -2.0030
    5SAPS  C213  594   1.558   4.328   8.991  0.4905  0.3076 -0.4172
    5SAPS  H13R  595   1.557   4.421   9.052  0.9479 -0.6950  1.1875
    5SAPS  H13S  596   1.485   4.343   8.909  0.7299 -2.9129 -1.3330
    5SAPS  C214  597   1.691   4.287   8.932 -0.4449  0.6544 -0.6348
    5SAPS  H14R  598   1.695   4.182   8.899  1.0795  0.8798 -1.2357
    5SAPS  C215  599   1.796   4.371   8.902 -0.8826  0.1732  0.7130
    5SAPS  H15R  600   1.888   4.326   8.860 -1.0462 -1.0573  1.6107
    5SAPS  C216  601   1.812   4.521   8.918 -0.6609  0.2369 -0.3739
    5SAPS  H16R  602   1.773   4.560   9.015 -2.8518  0.2985 -1.2039
    5SAPS  H16S  603   1.776   4.580   8.832 -0.4636  0.8061 -0.0685
    5SAPS  C217  604   1.966   4.560   8.926  0.0934 -0.1849  0.0132
    5SAPS  H17R  605   2.028   4.506   9.002  0.7462 -0.2115 -0.5269
    5SAPS  H17S  606   1.973   4.665   8.962  1.3715 -0.8415  1.8808
    5SAPS  C218  607   2.033   4.541   8.789  0.6808 -0.0981 -0.5501
    5SAPS  H18R  608   2.027   4.440   8.743  0.6123 -0.5455  0.4037
    5SAPS  H18S  609   1.980   4.602   8.713 -1.1429 -0.3976  0.4147
    5SAPS  C219  610   2.187   4.573   8.805 -0.0841 -0.3974  0.3085
    5SAPS  H19R  611   2.222   4.487   8.865  0.5273  0.3209  0.9974
    5SAPS  H19S  612   2.185   4.665   8.867  1.2909 -0.5674  0.6357
    5SAPS  C220  613   2.258   4.592   8.668  0.1372  0.1047 -0.4029
    5SAPS  H20R  614   2.217   4.683   8.619 -1.3200 -0.5710 -0.5023
    5SAPS  H20S  615   2.244   4.497   8.612 -0.6935 -0.4448  0.6799
    5SAPS  H20T  616   2.366   4.603   8.689 -0.0007 -0.2466  0.5526
    5SAPS   C33  617   1.697   3.754   9.931 -0.3986  0.5637  0.1442
    5SAPS   H3X  618   1.694   3.656   9.982 -1.3711  0.1119 -0.7403
    5SAPS   H3Y  619   1.775   3.811   9.987 -0.5955 -1.9714  3.2570
    5SAPS   C34  620   1.721   3.729   9.786  0.2877  0.6938  0.2413
    5SAPS   H4X  621   1.644   3.667   9.736 -0.5823  0.8155  1.3884
    5SAPS   H4Y  622   1.814   3.669   9.787  0.9834  1.7390  1.3965
    5SAPS   C35  623   1.745   3.851   9.691  0.5520  0.4621  0.4455
    5SAPS   H5X  624   1.837   3.899   9.731  2.7726 -2.8196 -0.2497
    5SAPS   H5Y  625   1.661   3.918   9.716 -0.9719 -0.5089 -1.6942
    5SAPS   C36  626   1.751   3.816   9.539 -0.8855  0.1253  0.1683
    5SAPS   H6X  627   1.780   3.903   9.476  0.2275  1.3010  2.2247
    5SAPS   H6Y  628   1.650   3.784   9.504 -0.7373 -1.9349  1.4619
    5SAPS   C37  629   1.855   3.700   9.519  0.2212 -0.4771  0.2279
    5SAPS   H7X  630   1.813   3.606   9.561  0.6700 -0.5465  0.5308
    5SAPS   H7Y  631   1.941   3.723   9.585  1.1402 -0.0474 -1.0807
    5SAPS   C38  632   1.907   3.677   9.379  0.0534 -0.0331 -0.1509
    5SAPS   H8X  633   1.980   3.593   9.376 -0.8894 -0.9180  1.0430
    5SAPS   H8Y  634   1.973   3.760   9.343  0.9205 -0.0176  1.4064
    5SAPS   C39  635   1.794   3.663   9.283  0.0402 -0.4786  0.0571
    5SAPS   H9X  636   1.739   3.759   9.270 -0.9127 -0.9957  0.2050
    5SAPS   H9Y  637   1.713   3.595   9.317 -0.2025  0.1155  0.7015
    5SAPS  C310  638   1.836   3.631   9.140  1.0123  0.4763  0.1792
    5SAPS  H10X  639   1.853   3.521   9.139 -3.0563 -0.3151  0.8961
    5SAPS  H10Y  640   1.931   3.683   9.118  0.3902  1.9190  0.7866
    5SAPS  C311  641   1.731   3.674   9.032 -0.4641  0.2808  0.5998
    5SAPS  H11X  642   1.624   3.661   9.061 -0.4282  0.4915  0.8290
    5SAPS  H11Y  643   1.743   3.602   8.948  0.7207  0.5546  0.5174
    5SAPS  C312  644   1.734   3.819   8.986  0.2459  0.5550  0.2980
    5SAPS  H12X  645   1.711   3.887   9.071 -1.3819 -1.2360  1.3566
    5SAPS  H12Y  646   1.650   3.841   8.916  1.4179  0.3205 -1.2422
    5SAPS  C313  647   1.868   3.862   8.923  0.3097  0.0790  0.4963
    5SAPS  H13X  648   1.951   3.863   8.997  1.1818  0.9949 -0.4670
    5SAPS  H13Y  649   1.862   3.967   8.886  2.3484  0.0816  0.0780
    5SAPS  C314  650   1.916   3.773   8.811  0.1100 -0.0124 -0.5342
    5SAPS  H14X  651   1.942   3.671   8.845  1.0740 -0.0765 -1.4265
    5SAPS  H14Y  652   2.005   3.828   8.772 -1.1666  1.1993 -1.8572
    5SAPS  C315  653   1.824   3.751   8.686  0.5136 -0.2902  0.0932
    5SAPS  H15X  654   1.808   3.857   8.655  0.9059  0.8416  3.4376
    5SAPS  H15Y  655   1.725   3.707   8.712 -0.4032  0.5202 -1.8055
    5SAPS  C316  656   1.886   3.662   8.577  0.2727  0.1914 -0.2354
    5SAPS  H16X  657   1.896   3.557   8.611  0.7240 -0.1166 -1.2689
    5SAPS  H16Y  658   1.989   3.701   8.564  0.5165 -0.3663 -0.0081
    5SAPS  C317  659   1.806   3.677   8.447  0.3974  0.7371  0.8715
    5SAPS  H17X  660   1.819   3.778   8.403  0.4643  0.3205 -0.0812
    5SAPS  H17Y  661   1.699   3.671   8.476  0.6512 -1.5031  1.5102
    5SAPS  C318  662   1.830   3.562   8.350 -0.0404 -0.6645  0.2897
    5SAPS  H18X  663   1.897   3.488   8.399 -0.5030 -0.1944  1.6758
    5SAPS  H18Y  664   1.894   3.594   8.266  0.0559 -1.1791  0.1613
    5SAPS  H18Z  665   1.739   3.516   8.304 -0.7958  2.5681 -1.8118
    6SAPS     N  666   1.689   1.937  10.652  0.5707 -0.6749  0.5712
    6SAPS   HN1  667   1.675   1.863  10.724  0.7990 -0.6755  0.6160
    6SAPS   HN2  668   1.770   1.906  10.595  0.1553  0.4883 -0.7014
    6SAPS   HN3  669   1.703   2.033  10.689 -0.7976  0.0041 -0.5779
    6SAPS   C12  670   1.573   1.952  10.558 -0.5904 -0.0435  0.5013
    6SAPS  H12A  671   1.613   1.985  10.464 -1.4021  1.8021  0.7743
    6SAPS   C13  672   1.495   1.822  10.524  0.3403 -1.0857  0.1467
    6SAPS  O13A  673   1.546   1.712  10.562 -0.1012  0.1811 -0.4285
    6SAPS  O13B  674   1.428   1.825  10.420  0.4765  0.2236 -0.4071
    6SAPS   C11  675   1.475   2.059  10.605  0.6630 -0.2993 -0.3568
    6SAPS  H11A  676   1.425   2.032  10.700  0.3053  1.6918  0.0765
    6SAPS  H11B  677   1.391   2.069  10.532 -0.2367  0.3024  0.7314
    6SAPS     P  678   1.497   2.320  10.673 -0.0250  0.0807 -0.1815
    6SAPS   O13  679   1.372   2.302  10.752 -0.3053 -0.0066 -0.2853
    6SAPS   O14  680   1.605   2.392  10.743 -0.1166 -0.4213  1.2314
    6SAPS   O12  681   1.549   2.179  10.620 -0.2813  0.0868  0.0826
    6SAPS   O11  682   1.486   2.395  10.539 -0.0469  0.8913  0.7270
    6SAPS    C1  683   1.364   2.361  10.468 -0.1280  0.8908  0.5226
    6SAPS    HA  684   1.374   2.256  10.435 -0.4119  1.1343 -0.3698
    6SAPS    HB  685   1.271   2.383  10.526  0.1612 -0.7413  1.6623
    6SAPS    C2  686   1.358   2.444  10.335 -0.8666 -0.7325  0.1778
    6SAPS    HS  687   1.373   2.551  10.361  0.9186 -0.6581 -0.9636
    6SAPS   O21  688   1.246   2.416  10.255  0.1332 -0.1996 -0.3319
    6SAPS   C21  689   1.142   2.487  10.295 -0.4938 -0.3121 -0.7771
    6SAPS   O22  690   1.131   2.563  10.388  0.1732  0.1595 -0.3016
    6SAPS   C22  691   1.027   2.442  10.203 -0.0127  0.6501 -0.2858
    6SAPS   H2R  692   1.034   2.331  10.206  2.5303  0.6825 -2.0006
    6SAPS   H2S  693   0.938   2.452  10.269 -0.9677  0.8965 -1.5833
    6SAPS    C3  694   1.490   2.422  10.245  0.5098 -0.5111 -0.4087
    6SAPS    HX  695   1.509   2.315  10.265 -0.9534 -0.6675  0.1856
    6SAPS    HY  696   1.568   2.480  10.300  0.0951  0.2452 -0.6047
    6SAPS   O31  697   1.475   2.452  10.099 -0.1801 -0.2427 -0.0638
    6SAPS   C31  698   1.501   2.575  10.067  0.4577 -0.8769 -0.8439
    6SAPS   O32  699   1.514   2.667  10.149  0.3822  0.1927  0.5860
    6SAPS   C32  700   1.495   2.606   9.913 -0.3980 -0.0441 -0.1261
    6SAPS   H2X  701   1.523   2.711   9.890 -1.2951 -0.1783 -2.0257
    6SAPS   H2Y  702   1.387   2.611   9.888 -0.2646  0.1934 -0.6680
    6SAPS   C23  703   1.026   2.507  10.062  0.0732  0.9803 -0.4569
    6SAPS   H3R  704   0.932   2.484  10.008 -0.7038 -1.3148  1.7257
    6SAPS   H3S  705   1.119   2.476  10.009 -1.3586 -1.5781 -1.6220
    6SAPS   C24  706   1.038   2.664  10.065 -0.7101  0.1076 -0.0366
    6SAPS   H4R  707   1.129   2.688  10.124  2.5041 -5.7941 -1.7181
    6SAPS   H4S  708   0.956   2.704  10.127 -0.9106  1.7914 -1.3334
    6SAPS   C25  709   1.054   2.750   9.942  0.4945 -0.2119  0.4426
    6SAPS   H5R  710   1.070   2.857   9.963 -3.5461  0.9276 -1.3524
    6SAPS   C26  711   1.039   2.722   9.811  0.1440  0.0163  0.2228
    6SAPS   H6R  712   1.060   2.804   9.740 -3.4804  0.9812  0.0613
    6SAPS   C27  713   1.017   2.584   9.753 -0.2753 -0.6201  0.1230
    6SAPS   H7R  714   0.949   2.594   9.666 -0.6227  0.3401  0.4923
    6SAPS   H7S  715   0.979   2.498   9.814  1.3165 -0.6104  1.1983
    6SAPS   C28  716   1.148   2.519   9.702 -0.5865  0.1784 -0.7969
    6SAPS   H8R  717   1.195   2.454   9.777  0.2989 -0.2910 -1.7302
    6SAPS   C29  718   1.200   2.538   9.581 -0.4155 -0.1786 -0.0466
    6SAPS   H9R  719   1.299   2.497   9.556 -0.7593  1.3442 -5.1324
    6SAPS  C210  720   1.149   2.625   9.474  0.3181 -0.1839 -0.0819
    6SAPS  H10R  721   1.237   2.653   9.412  0.7525  0.6124  0.8759
    6SAPS  H10S  722   1.111   2.722   9.514  1.7883  1.1022 -1.6365
    6SAPS  C211  723   1.033   2.554   9.396 -0.0404 -0.4695  0.1513
    6SAPS  H11R  724   0.944   2.532   9.457  2.1234 -1.8555  3.1025
    6SAPS  C212  725   1.037   2.528   9.262 -0.1953 -0.0327 -0.1608
    6SAPS  H12R  726   0.959   2.460   9.223 -0.2954  0.3276 -0.5917
    6SAPS  C213  727   1.145   2.553   9.163  0.3787  0.4805 -0.3387
    6SAPS  H13R  728   1.194   2.652   9.175 -0.5748  1.1817 -1.8937
    6SAPS  H13S  729   1.091   2.585   9.071 -0.8794  1.1791  0.6081
    6SAPS  C214  730   1.233   2.435   9.147  0.3458  0.0149  0.2675
    6SAPS  H14R  731   1.305   2.408   9.225  0.8965 -0.5009 -0.4124
    6SAPS  C215  732   1.248   2.363   9.031 -0.0591 -0.8357 -0.0695
    6SAPS  H15R  733   1.316   2.276   9.033 -0.5852 -1.3925 -2.6310
    6SAPS  C216  734   1.167   2.385   8.900 -0.3558 -0.1038  0.6253
    6SAPS  H16R  735   1.231   2.386   8.809 -2.4536  0.8723 -0.9080
    6SAPS  H16S  736   1.127   2.488   8.907  2.8944  1.2685  0.6962
    6SAPS  C217  737   1.048   2.285   8.878 -0.0263 -0.0685 -0.0165
    6SAPS  H17R  738   0.973   2.292   8.960  0.8457  0.8940  0.7165
    6SAPS  H17S  739   1.087   2.181   8.875  4.3497  1.3671 -0.3169
    6SAPS  C218  740   0.981   2.289   8.740  0.5584  0.0921  0.4477
    6SAPS  H18R  741   0.872   2.298   8.757  0.3062  1.4647 -1.5238
    6SAPS  H18S  742   1.004   2.202   8.675  0.0054  2.1956 -2.8105
    6SAPS  C219  743   1.014   2.408   8.649  0.2876  0.0610 -0.2021
    6SAPS  H19R  744   1.122   2.412   8.621  0.2395  1.7819 -0.2422
    6SAPS  H19S  745   1.003   2.495   8.717  0.7845 -0.3681  0.4529
    6SAPS  C220  746   0.920   2.424   8.528 -0.2465  0.4814 -0.3100
    6SAPS  H20R  747   0.944   2.518   8.474  2.0430  0.2630  0.2032
    6SAPS  H20S  748   0.816   2.435   8.563 -1.3133 -0.5510 -2.9356
    6SAPS  H20T  749   0.923   2.343   8.453  0.1162  0.8434 -0.6926
    6SAPS   C33  750   1.566   2.501   9.831  0.1545 -0.7753 -0.5408
    6SAPS   H3X  751   1.511   2.406   9.846 -0.9112 -0.0618  0.2096
    6SAPS   H3Y  752   1.670   2.476   9.862  0.3335 -2.1004 -2.0348
    6SAPS   C34  753   1.574   2.530   9.675 -0.5358 -0.0226 -0.8736
    6SAPS   H4X  754   1.610   2.635   9.660 -0.7125  0.0424 -0.8457
    6SAPS   H4Y  755   1.467   2.530   9.645 -1.3389  0.2143  1.7171
    6SAPS   C35  756   1.659   2.425   9.605  0.6633 -0.0854 -0.6968
    6SAPS   H5X  757   1.620   2.323   9.625 -0.6060  0.6749  0.8859
    6SAPS   H5Y  758   1.763   2.434   9.644 -0.5817  1.4364  2.5814
    6SAPS   C36  759   1.668   2.452   9.455  0.2990 -0.0936 -0.1119
    6SAPS   H6X  760   1.715   2.552   9.444  3.0244 -1.2234  0.5531
    6SAPS   H6Y  761   1.569   2.467   9.407 -0.1953 -0.1616  0.8690
    6SAPS   C37  762   1.759   2.348   9.375  0.4200  0.8079  0.2520
    6SAPS   H7X  763   1.717   2.245   9.380 -0.6621  1.2473  0.6527
    6SAPS   H7Y  764   1.859   2.344   9.423  0.3552 -0.3361  0.3234
    6SAPS   C38  765   1.762   2.386   9.227 -0.2888 -0.3568  0.2111
    6SAPS   H8X  766   1.831   2.315   9.178 -0.9285 -0.7243 -0.1710
    6SAPS   H8Y  767   1.789   2.493   9.214  3.4231 -1.3011 -0.9621
    6SAPS   C39  768   1.631   2.364   9.147  0.2716  0.5209 -0.3784
    6SAPS   H9X  769   1.547   2.433   9.170 -0.7664 -0.9010  0.2133
    6SAPS   H9Y  770   1.601   2.258   9.138  1.4856  0.1054  0.2041
    6SAPS  C310  771   1.673   2.395   9.002 -0.2503  0.1476  0.1242
    6SAPS  H10X  772   1.751   2.321   8.974  0.0987  0.6531 -0.2582
    6SAPS  H10Y  773   1.720   2.495   8.991 -0.4604  0.3002  0.6403
    6SAPS  C311  774   1.563   2.381   8.893 -0.1203  0.6692  0.5379
    6SAPS  H11X  775   1.488   2.460   8.915 -2.8930 -1.7494  0.4180
    6SAPS  H11Y  776   1.517   2.283   8.919  1.8358  0.2740  2.9920
    6SAPS  C312  777   1.613   2.392   8.743 -0.2532  0.6444 -0.4195
    6SAPS  H12X  778   1.712   2.341   8.743  0.5745  2.1886 -1.0866
    6SAPS  H12Y  779   1.632   2.498   8.719 -0.5931  0.8675  0.2631
    6SAPS  C313  780   1.522   2.324   8.636 -0.3063 -0.5879 -0.2255
    6SAPS  H13X  781   1.454   2.397   8.588  0.7724  1.8405  1.7216
    6SAPS  H13Y  782   1.462   2.240   8.678 -1.2576 -0.5280 -1.4011
    6SAPS  C314  783   1.601   2.271   8.509 -0.3274  0.0648 -0.3984
    6SAPS  H14X  784   1.529   2.218   8.442 -0.5662  1.5009 -1.3185
    6SAPS  H14Y  785   1.684   2.205   8.543 -1.3395 -0.8970  0.2888
    6SAPS  C315  786   1.651   2.376   8.416 -0.2057  0.3716 -0.4735
    6SAPS  H15X  787   1.734   2.432   8.465 -0.1180 -0.0973 -0.0707
    6SAPS  H15Y  788   1.579   2.456   8.391  0.1819  0.6859 -0.5901
    6SAPS  C316  789   1.693   2.306   8.282 -0.2668  0.1470  0.0402
    6SAPS  H16X  790   1.603   2.252   8.245  0.4879 -1.1854  0.0900
    6SAPS  H16Y  791   1.777   2.235   8.291 -1.1329 -1.4806 -3.3625
    6SAPS  C317  792   1.725   2.411   8.173  0.6443  0.7376 -0.6115
    6SAPS  H17X  793   1.658   2.499   8.185 -1.2059 -0.4120 -2.0670
    6SAPS  H17Y  794   1.701   2.362   8.076  2.1928 -0.7091 -0.3121
    6SAPS  C318  795   1.867   2.453   8.177 -0.0546  0.4432  0.0957
    6SAPS  H18X  796   1.935   2.369   8.152 -0.1617  0.3315  0.1799
    6SAPS  H18Y  797   1.884   2.494   8.279 -3.6303 -3.5508  2.6321
    6SAPS  H18Z  798   1.889   2.533   8.103  2.0597  0.0617  0.2550
    7SAPS     N  799   2.043   2.582  10.699 -0.5245  0.3142 -0.2749
    7SAPS   HN1  800   2.069   2.482  10.698 -2.1780 -0.1434  0.1539
    7SAPS   HN2  801   1.941   2.596  10.686 -0.8008  0.5290  1.7166
    7SAPS   HN3  802   2.099   2.616  10.619  0.4222  0.3372  0.3824
    7SAPS   C12  803   2.089   2.651  10.824  0.2993  0.1623 -0.0327
    7SAPS  H12A  804   2.076   2.756  10.804 -2.2229 -0.1729 -0.5614
    7SAPS   C13  805   2.004   2.632  10.950  0.9835  0.7072  0.3965
    7SAPS  O13A  806   1.902   2.557  10.943  0.0003  0.2840  0.0193
    7SAPS  O13B  807   2.052   2.668  11.059  0.3639 -0.1061 -0.0627
    7SAPS   C11  808   2.239   2.617  10.848  0.8660  0.8455  0.6058
    7SAPS  H11A  809   2.252   2.662  10.948 -1.8923  1.6984  0.6590
    7SAPS  H11B  810   2.311   2.651  10.770  1.7907 -0.9167  0.6459
    7SAPS     P  811   2.388   2.420  10.898  0.1642 -0.2596  0.1977
    7SAPS   O13  812   2.471   2.520  10.967 -0.2115  0.5959  0.0982
    7SAPS   O14  813   2.375   2.285  10.958 -0.6593  0.0264  0.3689
    7SAPS   O12  814   2.248   2.476  10.869 -0.1251  0.0840 -0.3392
    7SAPS   O11  815   2.462   2.400  10.757  0.1271 -0.7077  0.4318
    7SAPS    C1  816   2.389   2.304  10.673 -0.5148 -0.7829  0.1346
    7SAPS    HA  817   2.381   2.204  10.720 -1.2127 -0.3212  1.0334
    7SAPS    HB  818   2.281   2.324  10.652 -0.9231 -1.6544  1.3054
    7SAPS    C2  819   2.454   2.284  10.528 -0.1014 -0.8515  0.1486
    7SAPS    HS  820   2.555   2.241  10.543  0.7098  0.1946 -1.9898
    7SAPS   O21  821   2.470   2.419  10.469 -0.2577 -0.4071 -0.4860
    7SAPS   C21  822   2.562   2.419  10.367 -0.2184 -0.0798 -0.0309
    7SAPS   O22  823   2.639   2.333  10.337 -0.3711  0.4729  0.0765
    7SAPS   C22  824   2.565   2.559  10.299  0.1916 -0.3572  0.1051
    7SAPS   H2R  825   2.462   2.582  10.262 -0.8172 -3.2146  0.8962
    7SAPS   H2S  826   2.597   2.638  10.371  0.4832 -2.9587  3.0521
    7SAPS    C3  827   2.363   2.194  10.438 -0.0511  0.4078 -0.6781
    7SAPS    HX  828   2.269   2.251  10.422 -0.9772 -1.2935 -1.6491
    7SAPS    HY  829   2.343   2.098  10.489  1.0739  0.1517 -0.7099
    7SAPS   O31  830   2.421   2.151  10.313 -0.2037  0.0716  0.3726
    7SAPS   C31  831   2.505   2.047  10.307 -0.4398 -0.1767 -0.6728
    7SAPS   O32  832   2.541   1.994  10.412 -0.0848  0.7582  0.0604
    7SAPS   C32  833   2.552   2.016  10.168  0.1640 -0.8293  0.1037
    7SAPS   H2X  834   2.477   1.966  10.102  0.6713  0.7538 -1.7632
    7SAPS   H2Y  835   2.642   1.952  10.176  1.0341 -0.2549 -3.4500
    7SAPS   C23  836   2.661   2.590  10.173 -0.1064  0.3843 -0.1484
    7SAPS   H3R  837   2.668   2.510  10.096 -0.4575 -1.6855  1.8575
    7SAPS   H3S  838   2.761   2.599  10.221 -1.0200  0.4576  1.7968
    7SAPS   C24  839   2.642   2.728  10.115 -0.1114 -0.2135 -0.5024
    7SAPS   H4R  840   2.705   2.757  10.028 -1.0392  1.4416 -0.6722
    7SAPS   H4S  841   2.661   2.797  10.200 -3.5071 -1.0409  1.0956
    7SAPS   C25  842   2.499   2.768  10.076  0.4978  0.6857 -0.4027
    7SAPS   H5R  843   2.442   2.780  10.169 -0.0090  3.7468 -0.9987
    7SAPS   C26  844   2.443   2.776   9.956  0.4881 -0.3250 -0.1778
    7SAPS   H6R  845   2.337   2.804   9.962  0.5668 -0.1526  0.5614
    7SAPS   C27  846   2.508   2.757   9.821 -0.1399 -0.2025  0.2239
    7SAPS   H7R  847   2.461   2.676   9.763  0.0361 -0.3858  0.3368
    7SAPS   H7S  848   2.612   2.724   9.841 -0.2000 -1.1415 -0.9644
    7SAPS   C28  849   2.503   2.884   9.745  0.5469  0.0662  0.4896
    7SAPS   H8R  850   2.519   2.972   9.809  0.6120 -0.6416  1.4627
    7SAPS   C29  851   2.526   2.888   9.611  0.5004 -0.3254  0.4281
    7SAPS   H9R  852   2.523   2.986   9.561 -2.6917 -0.8484 -0.6285
    7SAPS  C210  853   2.538   2.763   9.521  0.2019  0.1795  1.0335
    7SAPS  H10R  854   2.549   2.660   9.561  0.8004 -1.4292 -2.8178
    7SAPS  H10S  855   2.631   2.774   9.460 -0.3922  0.8439  0.2227
    7SAPS  C211  856   2.411   2.751   9.434  0.7734  0.3673  0.2560
    7SAPS  H11R  857   2.319   2.758   9.495 -0.2439  0.6880 -1.2799
    7SAPS  C212  858   2.399   2.750   9.301 -0.1300  0.2987 -0.3335
    7SAPS  H12R  859   2.301   2.746   9.251 -0.5626  1.1776  0.4399
    7SAPS  C213  860   2.517   2.767   9.210  0.0123 -0.1981 -0.3507
    7SAPS  H13R  861   2.512   2.688   9.132  0.2142  0.5305 -1.1231
    7SAPS  H13S  862   2.613   2.745   9.262 -0.8292 -1.6024  0.6587
    7SAPS  C214  863   2.532   2.910   9.151 -0.0212  0.5271  0.3574
    7SAPS  H14R  864   2.593   2.972   9.217  1.1465  0.7147 -0.8490
    7SAPS  C215  865   2.490   2.954   9.030 -0.3114 -0.3361 -0.6561
    7SAPS  H15R  866   2.504   3.055   8.990  0.1286 -1.2601 -3.0402
    7SAPS  C216  867   2.421   2.868   8.924  0.1139  0.0987 -0.1828
    7SAPS  H16R  868   2.336   2.815   8.972 -1.5426  0.9353 -2.0429
    7SAPS  H16S  869   2.499   2.811   8.870  0.4020  1.5942 -1.4055
    7SAPS  C217  870   2.362   2.947   8.812 -0.2593  0.2177 -0.8293
    7SAPS  H17R  871   2.304   2.877   8.748 -0.9512 -0.6253  0.6621
    7SAPS  H17S  872   2.445   2.982   8.748  1.7085 -0.3255  1.2528
    7SAPS  C218  873   2.266   3.061   8.830 -0.0112  0.8283 -0.5348
    7SAPS  H18R  874   2.305   3.142   8.895 -2.0729  0.6754  1.0177
    7SAPS  H18S  875   2.176   3.022   8.882  0.6423  1.2774  0.9724
    7SAPS  C219  876   2.209   3.109   8.691 -0.3517  0.6930 -0.2474
    7SAPS  H19R  877   2.179   3.017   8.637 -1.5631 -0.2567  1.9178
    7SAPS  H19S  878   2.292   3.159   8.636  0.5988 -1.5015 -0.9160
    7SAPS  C220  879   2.085   3.198   8.716  0.0817  0.1023  0.4014
    7SAPS  H20R  880   2.004   3.146   8.771 -1.4445  3.3237  1.4718
    7SAPS  H20S  881   2.037   3.224   8.619  0.3734  0.9929  0.4793
    7SAPS  H20T  882   2.110   3.290   8.774  0.6709 -0.5129  1.1455
    7SAPS   C33  883   2.605   2.145  10.094 -0.7309  0.5141  0.4940
    7SAPS   H3X  884   2.710   2.159  10.125  0.5591 -0.6958 -2.8622
    7SAPS   H3Y  885   2.536   2.230  10.110  0.4709  1.2464  2.0172
    7SAPS   C34  886   2.612   2.142   9.937  0.2418  0.0279 -0.0718
    7SAPS   H4X  887   2.629   2.245   9.899 -0.3973  0.3830  0.5736
    7SAPS   H4Y  888   2.511   2.111   9.904  0.5092  1.4834 -2.4505
    7SAPS   C35  889   2.713   2.037   9.905  0.8671  0.0040  0.1011
    7SAPS   H5X  890   2.683   1.938   9.944 -1.0654  0.2878 -0.5357
    7SAPS   H5Y  891   2.803   2.058   9.967 -0.8669 -1.2130  3.3132
    7SAPS   C36  892   2.745   2.016   9.758 -0.2182 -0.2907  0.5645
    7SAPS   H6X  893   2.810   1.929   9.735  0.1298  0.3483 -1.0188
    7SAPS   H6Y  894   2.800   2.103   9.714 -0.6495 -0.0827  0.4354
    7SAPS   C37  895   2.617   1.995   9.671 -0.1784 -0.1759  0.8457
    7SAPS   H7X  896   2.544   2.076   9.649  0.2588 -0.0031 -0.0429
    7SAPS   H7Y  897   2.561   1.925   9.737 -1.1775 -1.1121 -0.9164
    7SAPS   C38  898   2.642   1.922   9.545 -0.6174  0.1125 -0.2532
    7SAPS   H8X  899   2.543   1.894   9.501  0.8484 -3.2491 -1.8240
    7SAPS   H8Y  900   2.690   1.825   9.570  0.8003  0.8606  0.0380
    7SAPS   C39  901   2.715   1.998   9.443 -0.7990  0.1767  0.2764
    7SAPS   H9X  902   2.817   2.032   9.471 -0.2130  0.8601 -2.4106
    7SAPS   H9Y  903   2.651   2.087   9.426 -2.1897 -1.0176 -1.0528
    7SAPS  C310  904   2.727   1.924   9.310 -0.2828 -0.3441 -0.3082
    7SAPS  H10X  905   2.620   1.910   9.280 -0.1632 -2.4020  0.1081
    7SAPS  H10Y  906   2.759   1.822   9.340 -0.1447 -0.3194 -0.3730
    7SAPS  C311  907   2.814   1.984   9.197 -0.5774  0.0559 -0.1378
    7SAPS  H11X  908   2.924   1.971   9.209 -0.3238  1.3604 -0.8178
    7SAPS  H11Y  909   2.792   2.093   9.202  0.6190  0.3507 -0.7439
    7SAPS  C312  910   2.793   1.924   9.055 -0.0764 -0.0563 -1.2582
    7SAPS  H12X  911   2.789   1.813   9.064 -2.4264  0.0546  0.0879
    7SAPS  H12Y  912   2.880   1.951   8.992 -0.5500  2.7894 -0.8067
    7SAPS  C313  913   2.657   1.954   8.999 -0.1527  0.3745 -0.3351
    7SAPS  H13X  914   2.637   2.061   9.023  0.5898  0.0759  1.8554
    7SAPS  H13Y  915   2.575   1.903   9.055 -1.5104  1.0719 -1.6048
    7SAPS  C314  916   2.644   1.932   8.846  0.2227 -0.4088  0.0736
    7SAPS  H14X  917   2.670   1.828   8.816 -0.7741 -1.1269  1.5621
    7SAPS  H14Y  918   2.716   2.007   8.807  0.2968  0.3146  1.5188
    7SAPS  C315  919   2.500   1.950   8.801  0.7557 -0.4620 -0.1466
    7SAPS  H15X  920   2.464   2.052   8.828 -0.1513 -1.0384  0.9027
    7SAPS  H15Y  921   2.431   1.882   8.854 -0.9234 -1.5258 -3.3863
    7SAPS  C316  922   2.481   1.946   8.647 -0.2663 -0.3106  0.5697
    7SAPS  H16X  923   2.510   1.842   8.625 -2.0118 -1.1642  2.0562
    7SAPS  H16Y  924   2.562   2.006   8.599 -0.8964  0.4970  0.4839
    7SAPS  C317  925   2.345   1.972   8.590 -0.7789  1.0822 -0.1787
    7SAPS  H17X  926   2.319   2.079   8.604  0.7852  1.5840 -0.9508
    7SAPS  H17Y  927   2.270   1.902   8.635 -0.6868 -0.5362 -2.3714
    7SAPS  C318  928   2.325   1.945   8.442 -0.0831  0.1258 -0.1333
    7SAPS  H18X  929   2.399   2.005   8.385 -0.6332 -0.9815 -2.0727
    7SAPS  H18Y  930   2.225   1.966   8.400  0.0516 -0.0220 -0.5252
    7SAPS  H18Z  931   2.342   1.836   8.432  0.7822 -0.2501  3.6774
    8SAPS     N  932   1.895   4.347  10.811 -0.5976 -0.0420  0.2282
    8SAPS   HN1  933   1.849   4.265  10.857 -0.2455 -0.1634  0.3631
    8SAPS   HN2  934   1.972   4.328  10.744  0.2731  0.5127  1.0624
    8SAPS   HN3  935   1.933   4.402  10.890 -2.7547  0.7429  0.7898
    8SAPS   C12  936   1.775   4.421  10.755 -0.5200  0.2965 -0.2344
    8SAPS  H12A  937   1.748   4.372  10.663  0.9015 -0.4038 -0.3104
    8SAPS   C13  938   1.652   4.408  10.848 -0.3059  0.1129 -0.1484
    8SAPS  O13A  939   1.662   4.339  10.955 -0.0258  0.8102 -0.3663
    8SAPS  O13B  940   1.542   4.465  10.818 -0.0920 -0.4754 -0.6350
    8SAPS   C11  941   1.800   4.573  10.725 -0.2782 -0.6127 -0.2061
    8SAPS  H11A  942   1.715   4.609  10.664  0.5252  0.8561 -0.4905
    8SAPS  H11B  943   1.888   4.576  10.657 -0.1134 -2.4638 -0.1368
    8SAPS     P  944   1.815   4.812  10.824  0.3487 -0.3430  0.2319
    8SAPS   O13  945   1.676   4.851  10.802 -0.1249  0.4613 -0.1132
    8SAPS   O14  946   1.890   4.872  10.937  0.0987  0.4690  0.4884
    8SAPS   O12  947   1.817   4.653  10.848 -0.3867 -0.5514 -0.1146
    8SAPS   O11  948   1.905   4.840  10.694 -0.0134 -0.1657 -0.7019
    8SAPS    C1  949   2.041   4.797  10.688  0.1571 -0.6326 -0.3741
    8SAPS    HA  950   2.111   4.863  10.745 -0.8278  0.6018 -0.5567
    8SAPS    HB  951   2.053   4.698  10.736 -0.8193  0.2744  1.9037
    8SAPS    C2  952   2.106   4.792  10.553 -0.7884  0.5584 -0.2041
    8SAPS    HS  953   2.140   4.886  10.503  2.3629 -1.6274 -2.5345
    8SAPS   O21  954   2.027   4.715  10.466 -0.1918 -0.1342 -0.0847
    8SAPS   C21  955   1.947   4.786  10.398  0.7872 -0.2027 -0.0737
    8SAPS   O22  956   1.949   4.907  10.393  0.1998  0.0158 -0.5150
    8SAPS   C22  957   1.851   4.697  10.327 -0.0167  0.1251  0.4364
    8SAPS   H2R  958   1.777   4.659  10.401 -1.8506  2.1673 -0.2293
    8SAPS   H2S  959   1.796   4.764  10.258 -0.3351  0.3920  0.9372
    8SAPS    C3  960   2.242   4.714  10.563  0.5570  0.4740 -0.5001
    8SAPS    HX  961   2.218   4.617  10.611  0.3732  0.7484 -0.0334
    8SAPS    HY  962   2.309   4.768  10.634  0.2050 -0.3256  0.4583
    8SAPS   O31  963   2.296   4.709  10.431  0.2537  0.1592 -0.5285
    8SAPS   C31  964   2.414   4.637  10.422 -0.4055 -0.3831 -0.0313
    8SAPS   O32  965   2.470   4.578  10.511 -0.1749 -0.2723  0.0252
    8SAPS   C32  966   2.455   4.615  10.279 -0.8695  0.1349 -0.3022
    8SAPS   H2X  967   2.475   4.711  10.226  1.2332 -0.4839 -0.7032
    8SAPS   H2Y  968   2.366   4.574  10.226 -1.6352  0.6110  0.5771
    8SAPS   C23  969   1.939   4.607  10.242 -0.7460  0.2945 -0.5180
    8SAPS   H3R  970   1.975   4.529  10.313  0.9718  0.3799 -1.2481
    8SAPS   H3S  971   2.025   4.667  10.204 -0.1959 -0.1138  0.0628
    8SAPS   C24  972   1.860   4.541  10.128 -0.5565  0.2119 -0.1011
    8SAPS   H4R  973   1.804   4.618  10.072  0.2124 -0.7679 -2.3156
    8SAPS   H4S  974   1.782   4.481  10.179 -0.1854  2.7909  3.9472
    8SAPS   C25  975   1.932   4.452  10.030  1.5371  0.4207 -0.4020
    8SAPS   H5R  976   1.972   4.366  10.085 -1.0497  1.6483  3.9417
    8SAPS   C26  977   1.948   4.477   9.902 -0.2502  0.0883 -0.0826
    8SAPS   H6R  978   2.001   4.397   9.848 -0.0590 -0.5763  1.0578
    8SAPS   C27  979   1.898   4.595   9.823 -0.2976 -0.3617  0.8723
    8SAPS   H7R  980   1.982   4.615   9.752  0.9967  0.2850  2.5271
    8SAPS   H7S  981   1.890   4.690   9.879 -0.9758  0.9516 -1.3094
    8SAPS   C28  982   1.775   4.577   9.746  0.0377 -0.2187 -0.4016
    8SAPS   H8R  983   1.684   4.536   9.793 -0.3263  0.8489 -0.1287
    8SAPS   C29  984   1.741   4.619   9.621 -0.7090 -0.1205  0.5227
    8SAPS   H9R  985   1.647   4.585   9.575  0.3339  0.5057 -2.2694
    8SAPS  C210  986   1.829   4.694   9.531 -0.4499 -0.8030 -0.2663
    8SAPS  H10R  987   1.921   4.728   9.584 -1.5975 -0.6876  1.7887
    8SAPS  H10S  988   1.784   4.788   9.493  0.8297  0.8750  2.1353
    8SAPS  C211  989   1.853   4.619   9.404 -0.4673 -0.1454  0.8579
    8SAPS  H11R  990   1.763   4.574   9.358  0.2235  0.0303 -0.7546
    8SAPS  C212  991   1.970   4.613   9.335  0.5507  0.3847  0.3161
    8SAPS  H12R  992   1.974   4.567   9.235  0.6541  0.4487  0.2911
    8SAPS  C213  993   2.100   4.666   9.378 -0.4594  0.0086  0.0699
    8SAPS  H13R  994   2.096   4.756   9.444 -3.0578  0.4283 -0.5342
    8SAPS  H13S  995   2.157   4.706   9.291 -0.5119 -0.1124 -0.0207
    8SAPS  C214  996   2.172   4.562   9.451  0.2184  0.1375 -0.3530
    8SAPS  H14R  997   2.120   4.513   9.535  1.6467  0.6393  0.8655
    8SAPS  C215  998   2.296   4.515   9.438 -0.4273  0.5068  0.5395
    8SAPS  H15R  999   2.335   4.441   9.509  2.1776 -0.1630 -1.4042
    8SAPS  C216 1000   2.392   4.562   9.329 -0.3643  0.3951 -0.1479
    8SAPS  H16R 1001   2.490   4.582   9.378  0.0570  0.4957 -1.0018
    8SAPS  H16S 1002   2.365   4.660   9.282  0.7260  0.5301 -0.5361
    8SAPS  C217 1003   2.408   4.461   9.221  0.7102  0.1397  0.2109
    8SAPS  H17R 1004   2.307   4.439   9.180 -0.4081 -0.3852  2.9823
    8SAPS  H17S 1005   2.440   4.358   9.249 -0.0609 -0.8265 -2.2055
    8SAPS  C218 1006   2.493   4.513   9.106  0.2202 -0.1764  0.2808
    8SAPS  H18R 1007   2.592   4.536   9.150  0.6568  1.5079 -1.4271
    8SAPS  H18S 1008   2.444   4.604   9.065  0.0767 -0.6234 -0.5600
    8SAPS  C219 1009   2.512   4.410   8.992 -0.1205 -0.2508  0.2506
    8SAPS  H19R 1010   2.409   4.385   8.959  0.0220  0.4321 -0.7557
    8SAPS  H19S 1011   2.560   4.317   9.031 -0.2125 -1.2199 -1.8390
    8SAPS  C220 1012   2.570   4.467   8.860  0.2308 -0.3788 -0.2328
    8SAPS  H20R 1013   2.517   4.561   8.832 -0.5839 -0.7816 -0.0841
    8SAPS  H20S 1014   2.539   4.403   8.775 -0.5514  1.7183 -1.6361
    8SAPS  H20T 1015   2.678   4.489   8.866  0.5160 -0.6694 -3.0624
    8SAPS   C33 1016   2.582   4.522  10.250  0.3433  0.2816 -0.1584
    8SAPS   H3X 1017   2.563   4.431  10.312 -0.7069  0.8343  0.3546
    8SAPS   H3Y 1018   2.670   4.567  10.300  0.1420  0.6247 -0.1077
    8SAPS   C34 1019   2.614   4.495  10.101  0.3945 -0.7758  0.1842
    8SAPS   H4X 1020   2.518   4.504  10.046  0.0941 -0.2796  0.7751
    8SAPS   H4Y 1021   2.644   4.391  10.078  2.1186 -0.3748  0.4340
    8SAPS   C35 1022   2.730   4.583  10.051  0.4302 -0.3274 -0.2425
    8SAPS   H5X 1023   2.809   4.558  10.124 -0.0365 -0.4353  0.2351
    8SAPS   H5Y 1024   2.704   4.690  10.064  1.0272 -0.2955  0.7184
    8SAPS   C36 1025   2.769   4.560   9.909  0.4879 -0.3040 -0.1715
    8SAPS   H6X 1026   2.815   4.655   9.874 -0.9291  0.8065  0.8567
    8SAPS   H6Y 1027   2.679   4.540   9.847  0.7039  1.1553 -1.0136
    8SAPS   C37 1028   2.859   4.450   9.888  0.0190  0.2036 -0.2693
    8SAPS   H7X 1029   2.829   4.365   9.953 -0.9371 -0.1136 -1.0980
    8SAPS   H7Y 1030   2.948   4.503   9.928 -0.0895 -0.3008  0.6768
    8SAPS   C38 1031   2.875   4.388   9.748  0.1115  0.2191 -0.3935
    8SAPS   H8X 1032   2.778   4.343   9.716 -0.6162  0.3017  1.5789
    8SAPS   H8Y 1033   2.947   4.303   9.749  1.6720  1.4762 -1.5909
    8SAPS   C39 1034   2.941   4.486   9.644  0.0310 -0.5938 -0.5954
    8SAPS   H9X 1035   3.024   4.538   9.697 -0.6894  0.8518 -0.8208
    8SAPS   H9Y 1036   2.872   4.563   9.604  1.1779  1.4412  1.1001
    8SAPS  C310 1037   3.015   4.419   9.520  0.2203 -0.0506  0.2942
    8SAPS  H10X 1038   2.932   4.392   9.451 -0.8908  2.7993  0.3741
    8SAPS  H10Y 1039   3.065   4.329   9.562 -0.3381 -1.8100 -2.5562
    8SAPS  C311 1040   3.126   4.497   9.452 -0.3621 -0.1591  0.4799
    8SAPS  H11X 1041   3.171   4.437   9.370 -1.2130  1.8923 -1.6000
    8SAPS  H11Y 1042   3.197   4.521   9.534  0.1725  0.8445 -0.2601
    8SAPS  C312 1043   3.091   4.636   9.393 -0.0685 -0.1282  0.4471
    8SAPS  H12X 1044   3.194   4.666   9.363  0.8555 -2.8952  0.5102
    8SAPS  H12Y 1045   3.055   4.702   9.474 -1.0526 -0.7937  0.5650
    8SAPS  C313 1046   2.991   4.636   9.278  0.1968 -0.8302  0.0464
    8SAPS  H13X 1047   2.903   4.576   9.307 -0.4058  0.7804  1.7641
    8SAPS  H13Y 1048   3.046   4.589   9.194 -0.0647  0.1456 -0.6950
    8SAPS  C314 1049   2.946   4.776   9.240  0.0728 -0.1895 -0.5844
    8SAPS  H14X 1050   3.025   4.818   9.174  1.0895 -0.1356  0.6257
    8SAPS  H14Y 1051   2.941   4.849   9.323  0.0886 -0.7027 -0.1216
    8SAPS  C315 1052   2.816   4.774   9.155 -0.1478  0.9306 -0.0817
    8SAPS  H15X 1053   2.731   4.740   9.217 -0.6098 -1.2931 -1.8152
    8SAPS  H15Y 1054   2.840   4.703   9.073  1.2901 -0.7350  1.6799
    8SAPS  C316 1055   2.792   4.916   9.119  0.3723  0.0787 -0.8440
    8SAPS  H16X 1056   2.858   4.946   9.034  0.1664  0.4783 -0.8625
    8SAPS  H16Y 1057   2.803   4.986   9.204  2.1763 -1.1572  0.0179
    8SAPS  C317 1058   2.649   4.947   9.059 -0.3589  0.4393 -0.0084
    8SAPS  H17X 1059   2.629   4.868   8.984 -0.3317 -0.2190  0.6694
    8SAPS  H17Y 1060   2.646   5.046   9.009 -1.5541  0.1924 -0.4637
    8SAPS  C318 1061   2.542   4.953   9.163  0.9717  0.3120  0.1588
    8SAPS  H18X 1062   2.452   5.010   9.129  0.7360  2.0587  3.2567
    8SAPS  H18Y 1063   2.582   4.998   9.257  1.8325  1.3960 -0.7020
    8SAPS  H18Z 1064   2.510   4.852   9.196  1.8181 -0.2608 -0.7356
    9SAPS     N 1065   2.192   5.331   6.177 -0.4563 -0.2947  0.6711
    9SAPS   HN1 1066   2.208   5.321   6.075 -1.3862  1.9205  0.2397
    9SAPS   HN2 1067   2.272   5.283   6.223 -0.1640 -1.3112 -0.8471
    9SAPS   HN3 1068   2.095   5.305   6.204 -0.6446 -1.2561 -0.8225
    9SAPS   C12 1069   2.230   5.475   6.196 -0.0669 -0.5392  0.0437
    9SAPS  H12A 1070   2.335   5.473   6.171 -0.5892  1.9713 -2.9488
    9SAPS   C13 1071   2.157   5.563   6.098  0.5861 -0.1483 -0.8318
    9SAPS  O13A 1072   2.085   5.513   6.009  0.0916  0.3616  0.5643
    9SAPS  O13B 1073   2.196   5.680   6.100 -0.0632  0.5772 -0.1514
    9SAPS   C11 1074   2.187   5.519   6.344 -0.0519  0.5600  0.3819
    9SAPS  H11A 1075   2.081   5.511   6.375 -0.3393 -0.4432 -0.7847
    9SAPS  H11B 1076   2.218   5.625   6.359  1.7233  0.8331 -3.8579
    9SAPS     P 1077   2.376   5.471   6.520  0.4230  0.0139  0.1338
    9SAPS   O13 1078   2.448   5.356   6.578 -0.2894 -0.3525  0.0145
    9SAPS   O14 1079   2.458   5.559   6.436 -0.6745 -0.1190  0.2535
    9SAPS   O12 1080   2.254   5.430   6.435 -0.7396 -0.4949  0.5031
    9SAPS   O11 1081   2.301   5.553   6.632  0.2312 -0.0638  0.1721
    9SAPS    C1 1082   2.350   5.674   6.678  0.1116 -0.7369 -0.1289
    9SAPS    HA 1083   2.447   5.708   6.638 -0.1547  0.3714  0.1534
    9SAPS    HB 1084   2.283   5.754   6.641 -0.4630  0.6264  3.4805
    9SAPS    C2 1085   2.355   5.681   6.835  0.0299 -0.5559  0.1225
    9SAPS    HS 1086   2.394   5.782   6.859 -2.4856  0.5557 -0.1687
    9SAPS   O21 1087   2.425   5.576   6.897 -0.2500 -0.2682 -0.4653
    9SAPS   C21 1088   2.563   5.584   6.875  0.5790  0.3195  0.6885
    9SAPS   O22 1089   2.612   5.680   6.807 -0.5015  0.8338  0.0162
    9SAPS   C22 1090   2.625   5.468   6.940 -1.1288  0.3831 -0.0087
    9SAPS   H2R 1091   2.554   5.383   6.941 -1.1591  0.4107  1.2535
    9SAPS   H2S 1092   2.715   5.436   6.883 -0.9253  0.5093  0.2400
    9SAPS    C3 1093   2.207   5.676   6.892 -0.3094 -0.2591 -0.3477
    9SAPS    HX 1094   2.169   5.578   6.855 -2.5528  0.3523  0.2175
    9SAPS    HY 1095   2.161   5.763   6.841 -0.5093  0.4854  1.0752
    9SAPS   O31 1096   2.195   5.692   7.037 -0.2526 -0.5255  0.6772
    9SAPS   C31 1097   2.164   5.589   7.111  1.3394  0.2199 -0.1753
    9SAPS   O32 1098   2.148   5.475   7.074 -0.4218 -0.2620  0.1977
    9SAPS   C32 1099   2.120   5.626   7.254  0.8920  0.0269 -0.2777
    9SAPS   H2X 1100   2.025   5.573   7.280  0.6097  0.6070 -0.1190
    9SAPS   H2Y 1101   2.086   5.732   7.255 -1.7254 -0.7236 -1.3060
    9SAPS   C23 1102   2.665   5.497   7.088 -0.3935  0.7894  0.0713
    9SAPS   H3R 1103   2.571   5.535   7.133 -0.1703  0.2702  0.9923
    9SAPS   H3S 1104   2.745   5.574   7.092 -0.1294  0.4729  1.0468
    9SAPS   C24 1105   2.701   5.383   7.173  0.3959  0.9370 -0.1433
    9SAPS   H4R 1106   2.710   5.417   7.278 -1.5072 -2.0099  1.1086
    9SAPS   H4S 1107   2.802   5.344   7.147  0.1939  0.6717 -0.5562
    9SAPS   C25 1108   2.612   5.258   7.175 -0.1167 -0.1466 -0.4088
    9SAPS   H5R 1109   2.506   5.285   7.179 -0.4229 -1.2478 -0.7631
    9SAPS   C26 1110   2.655   5.129   7.182 -0.2216 -0.5515 -0.5461
    9SAPS   H6R 1111   2.583   5.049   7.159  0.5406 -2.0140  1.7901
    9SAPS   C27 1112   2.792   5.077   7.197 -0.3894  0.2163 -0.9977
    9SAPS   H7R 1113   2.870   5.155   7.189 -0.6088  0.6639  0.7695
    9SAPS   H7S 1114   2.816   5.005   7.116 -1.5779 -1.3767  0.0088
    9SAPS   C28 1115   2.810   5.020   7.337 -1.0150 -0.2230  0.6678
    9SAPS   H8R 1116   2.762   5.080   7.416 -0.8717  2.0372 -0.8635
    9SAPS   C29 1117   2.876   4.911   7.371  0.0547 -0.0530  0.2019
    9SAPS   H9R 1118   2.895   4.898   7.479  1.3726 -1.4034 -0.1637
    9SAPS  C210 1119   2.958   4.821   7.279 -0.1019 -0.0438  0.5278
    9SAPS  H10R 1120   3.012   4.892   7.212  0.6522  1.3492  2.5147
    9SAPS  H10S 1121   2.897   4.758   7.211 -0.3728 -1.0568  1.6869
    9SAPS  C211 1122   3.060   4.728   7.346 -0.3959  0.8356 -0.1087
    9SAPS  H11R 1123   3.164   4.758   7.326  0.4605 -0.2563  2.3216
    9SAPS  C212 1124   3.044   4.619   7.423 -0.2049 -0.0365 -0.3740
    9SAPS  H12R 1125   3.134   4.564   7.455  0.4608  0.7008 -0.9502
    9SAPS  C213 1126   2.917   4.557   7.460 -0.8826  0.6840 -0.4116
    9SAPS  H13R 1127   2.921   4.446   7.450 -0.5606  0.6310  0.3123
    9SAPS  H13S 1128   2.829   4.591   7.401 -0.5223 -0.2031 -1.5211
    9SAPS  C214 1129   2.906   4.591   7.610 -0.4141 -0.4676  0.9934
    9SAPS  H14R 1130   2.855   4.686   7.629  1.2648  1.2306 -2.0670
    9SAPS  C215 1131   2.954   4.533   7.722 -0.8590 -1.3190  0.3910
    9SAPS  H15R 1132   2.931   4.584   7.817  1.1293  0.2599  0.0768
    9SAPS  C216 1133   3.034   4.407   7.725 -0.0991 -0.2250  0.8072
    9SAPS  H16R 1134   3.115   4.406   7.649 -0.7170  1.5271  0.0635
    9SAPS  H16S 1135   2.965   4.326   7.692  0.4416 -0.7910  1.0425
    9SAPS  C217 1136   3.085   4.372   7.869 -0.1493 -0.2440 -0.9491
    9SAPS  H17R 1137   3.137   4.460   7.912 -0.1285  0.3118 -2.0609
    9SAPS  H17S 1138   3.164   4.295   7.857  0.9542  0.7204 -0.1385
    9SAPS  C218 1139   2.969   4.328   7.954  0.1032  0.1868 -0.2397
    9SAPS  H18R 1140   2.925   4.238   7.907  1.8364 -0.0817 -1.4359
    9SAPS  H18S 1141   2.889   4.404   7.965 -0.7469 -0.8220  0.8369
    9SAPS  C219 1142   3.014   4.284   8.104  0.3380 -0.2277  0.3557
    9SAPS  H19R 1143   3.108   4.337   8.132 -0.6691  2.5642 -1.1317
    9SAPS  H19S 1144   3.017   4.174   8.099 -3.4614 -0.4257 -0.2181
    9SAPS  C220 1145   2.919   4.319   8.211  0.3246  0.5264 -0.4621
    9SAPS  H20R 1146   2.949   4.264   8.303 -0.7866  0.4937 -0.0984
    9SAPS  H20S 1147   2.816   4.285   8.188  0.2271 -0.4293  1.2088
    9SAPS  H20T 1148   2.902   4.425   8.240  0.6086  0.8187 -1.3415
    9SAPS   C33 1149   2.225   5.595   7.358  0.1825  0.3852  0.0103
    9SAPS   H3X 1150   2.295   5.682   7.352  1.6980 -0.6969  1.1945
    9SAPS   H3Y 1151   2.285   5.504   7.340  1.5893  1.0092  1.3079
    9SAPS   C34 1152   2.176   5.569   7.498  0.4500 -0.6382 -0.0567
    9SAPS   H4X 1153   2.257   5.518   7.554  1.3244 -1.9286 -2.3562
    9SAPS   H4Y 1154   2.086   5.504   7.490  0.3520 -0.3658 -1.5521
    9SAPS   C35 1155   2.139   5.698   7.571 -0.1182  0.2198  1.4788
    9SAPS   H5X 1156   2.065   5.756   7.512  2.7980  2.3677 -0.3910
    9SAPS   H5Y 1157   2.236   5.753   7.571  0.5066 -0.6536 -1.9491
    9SAPS   C36 1158   2.087   5.683   7.708 -0.0270 -0.4950 -0.4681
    9SAPS   H6X 1159   1.978   5.661   7.717 -0.4372  1.8735  1.5584
    9SAPS   H6Y 1160   2.081   5.787   7.747 -1.4563 -1.0071  0.7756
    9SAPS   C37 1161   2.170   5.583   7.793 -0.4743 -0.2628 -0.2370
    9SAPS   H7X 1162   2.278   5.610   7.791 -0.7537  1.9049  3.7374
    9SAPS   H7Y 1163   2.143   5.479   7.765  1.3491 -0.9841  0.5118
    9SAPS   C38 1164   2.125   5.606   7.937 -0.7415 -0.0271 -0.6669
    9SAPS   H8X 1165   2.133   5.507   7.988  1.0344 -0.3695 -1.5412
    9SAPS   H8Y 1166   2.017   5.631   7.937 -0.4463  2.0136  3.1267
    9SAPS   C39 1167   2.194   5.729   8.002 -0.5478 -0.1991  0.2222
    9SAPS   H9X 1168   2.166   5.822   7.948  0.0433  0.6484  1.3483
    9SAPS   H9Y 1169   2.301   5.701   7.993 -0.8354 -1.3432  0.1204
    9SAPS  C310 1170   2.165   5.747   8.148 -0.0508 -0.2992  0.0328
    9SAPS  H10X 1171   2.226   5.837   8.173 -0.3493 -0.3573  0.9882
    9SAPS  H10Y 1172   2.184   5.665   8.220 -2.5333  0.3303  1.5152
    9SAPS  C311 1173   2.015   5.777   8.172 -0.0909  0.3286  0.1791
    9SAPS  H11X 1174   1.961   5.687   8.137  0.9194 -0.0009 -0.5813
    9SAPS  H11Y 1175   1.981   5.848   8.093 -1.3470  0.2485  0.6327
    9SAPS  C312 1176   1.960   5.815   8.313  0.3838 -0.4819 -0.0727
    9SAPS  H12X 1177   1.996   5.735   8.382  0.1664 -0.8007 -0.3270
    9SAPS  H12Y 1178   1.850   5.824   8.301  0.3994 -0.3796 -0.1357
    9SAPS  C313 1179   2.012   5.945   8.375 -0.0850 -0.9863 -0.3044
    9SAPS  H13X 1180   2.001   6.019   8.293 -0.4422 -1.0465 -0.3114
    9SAPS  H13Y 1181   2.118   5.925   8.402 -0.5736 -0.9116  1.7808
    9SAPS  C314 1182   1.943   5.994   8.504  0.1021 -0.1521  0.1434
    9SAPS  H14X 1183   1.989   6.078   8.559 -0.5716  0.4734 -0.2163
    9SAPS  H14Y 1184   1.953   5.903   8.567  0.7678  1.0693  1.8732
    9SAPS  C315 1185   1.791   6.031   8.482 -0.4141  0.9053 -0.2958
    9SAPS  H15X 1186   1.742   5.931   8.474  1.0857 -0.1574  2.4145
    9SAPS  H15Y 1187   1.785   6.078   8.382  1.5213  1.6349 -0.1085
    9SAPS  C316 1188   1.735   6.114   8.599  0.0803  0.0610  0.2773
    9SAPS  H16X 1189   1.770   6.064   8.691  2.5485 -1.3298 -1.3029
    9SAPS  H16Y 1190   1.624   6.107   8.597  0.1376 -1.1456 -1.4892
    9SAPS  C317 1191   1.782   6.258   8.582  0.7328 -0.5744  0.1003
    9SAPS  H17X 1192   1.756   6.298   8.482  1.3738  3.1806  1.2402
    9SAPS  H17Y 1193   1.893   6.258   8.591  0.6146  0.4144  2.4309
    9SAPS  C318 1194   1.738   6.358   8.692  0.7167 -0.3963 -0.4794
    9SAPS  H18X 1195   1.627   6.366   8.693  0.5071 -2.1109 -2.5175
    9SAPS  H18Y 1196   1.783   6.459   8.681 -2.1742  1.3930  2.1852
    9SAPS  H18Z 1197   1.772   6.319   8.791  0.6549 -0.8427 -0.6305
   10SAPS     N 1198   1.528   6.199   5.734 -0.5102 -0.0266 -0.8356
   10SAPS   HN1 1199   1.527   6.095   5.734  0.3428 -0.0426 -0.1670
   10SAPS   HN2 1200   1.565   6.238   5.645 -0.2850  0.0589 -0.7052
   10SAPS   HN3 1201   1.595   6.220   5.811 -0.7330 -1.4754 -0.2115
   10SAPS   C12 1202   1.390   6.257   5.765  0.0096  0.4151 -0.4520
   10SAPS  H12A 1203   1.395   6.364   5.760  0.7357  0.3460 -1.6402
   10SAPS   C13 1204   1.281   6.206   5.665 -0.5952 -0.2032  0.6574
   10SAPS  O13A 1205   1.313   6.138   5.562  0.6412  0.6676  0.4915
   10SAPS  O13B 1206   1.157   6.248   5.675 -0.3836  0.0432 -0.6463
   10SAPS   C11 1207   1.358   6.208   5.917 -0.0568 -0.3158  0.4042
   10SAPS  H11A 1208   1.333   6.103   5.892  1.7288 -0.2013 -2.2873
   10SAPS  H11B 1209   1.269   6.268   5.946 -0.4574 -1.4200  1.5593
   10SAPS     P 1210   1.505   6.118   6.103  0.2718  0.5824 -0.2471
   10SAPS   O13 1211   1.558   6.007   6.032  0.5118  0.9847 -0.0274
   10SAPS   O14 1212   1.584   6.162   6.222 -0.3360  0.2567  0.6362
   10SAPS   O12 1213   1.467   6.230   6.009 -0.0957  0.0502  0.1854
   10SAPS   O11 1214   1.362   6.070   6.154 -0.0149 -0.1223 -0.1810
   10SAPS    C1 1215   1.273   6.158   6.228 -0.0308  0.0267  0.6017
   10SAPS    HA 1216   1.269   6.264   6.196  0.6496  0.2254  1.1353
   10SAPS    HB 1217   1.174   6.109   6.224 -0.2332  0.4880 -1.9246
   10SAPS    C2 1218   1.286   6.145   6.387  0.1185  0.4406 -0.8791
   10SAPS    HS 1219   1.180   6.160   6.417 -0.0535 -0.1524 -1.1724
   10SAPS   O21 1220   1.383   6.239   6.441  0.1536 -0.1547  0.0546
   10SAPS   C21 1221   1.361   6.367   6.421 -0.2507  0.1846  0.7995
   10SAPS   O22 1222   1.251   6.415   6.397  0.5498 -0.2411 -0.0090
   10SAPS   C22 1223   1.487   6.457   6.438  0.5487 -0.2371  0.3330
   10SAPS   H2R 1224   1.555   6.441   6.352  1.3444 -1.0968  1.0825
   10SAPS   H2S 1225   1.455   6.563   6.436  2.1308  0.2649 -0.1795
   10SAPS    C3 1226   1.324   6.000   6.439 -0.1574 -0.3769 -0.6652
   10SAPS    HX 1227   1.433   5.980   6.441  0.2687  1.2344 -3.1557
   10SAPS    HY 1228   1.292   5.928   6.361  1.2551 -0.7297 -0.9358
   10SAPS   O31 1229   1.267   5.964   6.568 -0.7002  0.2071 -0.3254
   10SAPS   C31 1230   1.340   5.983   6.670  0.3862 -0.4386  0.0297
   10SAPS   O32 1231   1.453   6.037   6.675  0.1993 -0.4394  1.0713
   10SAPS   C32 1232   1.259   5.918   6.789  0.2948  0.0895 -0.5699
   10SAPS   H2X 1233   1.207   5.831   6.745  1.4083 -0.9906  0.1896
   10SAPS   H2Y 1234   1.186   5.995   6.821  2.5961  1.4793  1.6502
   10SAPS   C23 1235   1.571   6.452   6.570 -0.4801 -0.7300  0.3662
   10SAPS   H3R 1236   1.654   6.521   6.544 -1.2081 -0.0068 -0.0988
   10SAPS   H3S 1237   1.616   6.351   6.576 -0.8785 -1.2577 -3.3863
   10SAPS   C24 1238   1.500   6.497   6.704 -0.1790  0.2162 -1.1288
   10SAPS   H4R 1239   1.446   6.593   6.696  0.8751  1.1542  1.7165
   10SAPS   H4S 1240   1.584   6.518   6.774 -0.3204  1.0820 -1.2081
   10SAPS   C25 1241   1.426   6.377   6.769 -0.2636 -0.2332  0.8436
   10SAPS   H5R 1242   1.489   6.289   6.787  0.5061  0.0983 -0.1149
   10SAPS   C26 1243   1.298   6.381   6.809 -0.1543 -0.8226  0.4079
   10SAPS   H6R 1244   1.258   6.295   6.864  1.7753 -1.1957  1.2937
   10SAPS   C27 1245   1.195   6.493   6.781 -0.2986  1.1399 -0.3627
   10SAPS   H7R 1246   1.239   6.587   6.740  0.5818  0.7875 -0.2425
   10SAPS   H7S 1247   1.163   6.508   6.886 -0.8888 -2.9512  0.1972
   10SAPS   C28 1248   1.078   6.446   6.705 -0.3146 -0.2710  0.0166
   10SAPS   H8R 1249   1.086   6.462   6.597 -0.9149  1.0986  0.1534
   10SAPS   C29 1250   0.960   6.393   6.742  0.0226  0.0067  0.7242
   10SAPS   H9R 1251   0.890   6.356   6.666 -0.4975  0.1385  1.1345
   10SAPS  C210 1252   0.922   6.363   6.889 -0.3632  0.3234  0.1904
   10SAPS  H10R 1253   0.848   6.442   6.915 -0.0207  0.6902  0.0580
   10SAPS  H10S 1254   1.007   6.384   6.957  0.2592  1.6010 -0.9293
   10SAPS  C211 1255   0.855   6.241   6.944 -0.2747 -0.1151  0.3833
   10SAPS  H11R 1256   0.849   6.155   6.875 -2.4043  1.4424 -1.5458
   10SAPS  C212 1257   0.814   6.225   7.073  0.6844 -0.6038  0.5486
   10SAPS  H12R 1258   0.776   6.129   7.113 -1.4339 -0.4157 -0.8435
   10SAPS  C213 1259   0.802   6.320   7.184 -0.5352 -0.6111 -0.2133
   10SAPS  H13R 1260   0.778   6.418   7.138  3.0355  0.7850  0.5194
   10SAPS  H13S 1261   0.898   6.337   7.237 -1.2860  1.8232  0.5011
   10SAPS  C214 1262   0.682   6.277   7.272 -0.6766 -0.3271 -0.2875
   10SAPS  H14R 1263   0.605   6.216   7.221  0.7833 -1.0810 -1.6792
   10SAPS  C215 1264   0.680   6.281   7.406 -0.4712 -0.3936  0.0117
   10SAPS  H15R 1265   0.594   6.242   7.463  0.2284 -2.8345 -0.4658
   10SAPS  C216 1266   0.779   6.364   7.491 -0.1828  0.1001  0.4331
   10SAPS  H16R 1267   0.850   6.423   7.430  1.5850 -0.3366  1.9669
   10SAPS  H16S 1268   0.834   6.298   7.562  0.2420  1.2465  1.2137
   10SAPS  C217 1269   0.709   6.460   7.592  0.1836  0.7456 -0.2777
   10SAPS  H17R 1270   0.624   6.513   7.544 -0.9088  0.3955  1.1906
   10SAPS  H17S 1271   0.787   6.522   7.642 -1.0292  1.0904  1.2514
   10SAPS  C218 1272   0.631   6.378   7.706 -0.7364  0.1599  0.1748
   10SAPS  H18R 1273   0.703   6.304   7.747 -1.7292 -0.8008  0.2335
   10SAPS  H18S 1274   0.546   6.329   7.654 -1.2894  0.8692  0.3948
   10SAPS  C219 1275   0.581   6.455   7.827 -0.3850 -0.3401  0.2751
   10SAPS  H19R 1276   0.533   6.549   7.794 -0.3934  0.1677  1.6674
   10SAPS  H19S 1277   0.674   6.475   7.885 -0.2430 -0.3095  0.0403
   10SAPS  C220 1278   0.481   6.388   7.919  0.4889 -0.0936 -0.0069
   10SAPS  H20R 1279   0.446   6.455   8.000 -2.8648 -0.7855 -0.7280
   10SAPS  H20S 1280   0.529   6.305   7.977  1.8046  0.0006 -0.9102
   10SAPS  H20T 1281   0.387   6.357   7.870 -0.2750  0.5490  1.0163
   10SAPS   C33 1282   1.354   5.883   6.909  0.7489  0.4758 -0.0719
   10SAPS   H3X 1283   1.431   5.819   6.863  0.6442 -0.6433  1.2485
   10SAPS   H3Y 1284   1.284   5.822   6.970 -0.4227 -0.2496 -2.0619
   10SAPS   C34 1285   1.394   6.009   6.986  0.4208 -0.5121  0.5096
   10SAPS   H4X 1286   1.306   6.074   7.006  0.6699 -0.3137  0.9987
   10SAPS   H4Y 1287   1.468   6.063   6.922 -0.8143 -0.3322 -0.8036
   10SAPS   C35 1288   1.462   5.974   7.123  0.4718  0.1564 -0.2498
   10SAPS   H5X 1289   1.489   6.070   7.171  0.5402  0.0767 -0.1297
   10SAPS   H5Y 1290   1.557   5.921   7.100 -0.6085 -2.5760  1.1393
   10SAPS   C36 1291   1.374   5.894   7.219  0.3818 -0.3641  0.6347
   10SAPS   H6X 1292   1.352   5.795   7.174  1.1104  0.5961 -2.0430
   10SAPS   H6Y 1293   1.274   5.942   7.216  0.2531 -0.5969  1.0783
   10SAPS   C37 1294   1.430   5.885   7.362  0.0077 -0.1880 -0.2579
   10SAPS   H7X 1295   1.472   5.982   7.396  1.1191 -0.6254 -0.3389
   10SAPS   H7Y 1296   1.508   5.807   7.372  0.0766  0.1757  3.0146
   10SAPS   C38 1297   1.321   5.846   7.463 -0.0836  0.6760 -0.0012
   10SAPS   H8X 1298   1.298   5.740   7.438  1.8367  0.5080 -1.2093
   10SAPS   H8Y 1299   1.227   5.904   7.446 -0.4776  0.2567  0.6724
   10SAPS   C39 1300   1.367   5.865   7.599 -0.3157  0.1920  0.4553
   10SAPS   H9X 1301   1.404   5.969   7.614  0.5005 -0.4412  3.5928
   10SAPS   H9Y 1302   1.453   5.794   7.607 -0.8468 -0.4241  0.7837
   10SAPS  C310 1303   1.265   5.835   7.705 -0.2093  0.0131  0.0913
   10SAPS  H10X 1304   1.227   5.734   7.683  0.7992  0.0110 -1.8009
   10SAPS  H10Y 1305   1.188   5.914   7.687  0.2019  0.2233 -0.8124
   10SAPS  C311 1306   1.332   5.857   7.841  0.3946  0.2753  0.2527
   10SAPS  H11X 1307   1.383   5.955   7.831 -1.4390  1.1279 -1.2318
   10SAPS  H11Y 1308   1.421   5.790   7.849  0.7886  0.6058 -1.0486
   10SAPS  C312 1309   1.242   5.851   7.965  0.1811  0.0922 -0.2007
   10SAPS  H12X 1310   1.161   5.778   7.949  0.8897 -1.3839  2.3830
   10SAPS  H12Y 1311   1.189   5.947   7.978  0.7258  0.6105 -1.5738
   10SAPS  C313 1312   1.317   5.803   8.091 -0.3362 -0.3235  0.7237
   10SAPS  H13X 1313   1.352   5.901   8.130  0.1706  0.6967 -2.0787
   10SAPS  H13Y 1314   1.392   5.728   8.058 -0.9206 -0.8276  0.5289
   10SAPS  C314 1315   1.227   5.725   8.185  0.4665  0.0959 -0.3203
   10SAPS  H14X 1316   1.286   5.679   8.268 -1.2638 -0.4628  0.6535
   10SAPS  H14Y 1317   1.189   5.636   8.130  0.5040  0.7616 -1.4435
   10SAPS  C315 1318   1.118   5.810   8.254  0.4082 -0.9759 -0.6211
   10SAPS  H15X 1319   1.066   5.884   8.190  0.6180 -1.0960 -0.9358
   10SAPS  H15Y 1320   1.171   5.863   8.336 -2.5861  1.2663  0.0037
   10SAPS  C316 1321   0.998   5.731   8.303 -0.3054  0.9670  0.0373
   10SAPS  H16X 1322   1.039   5.656   8.374  1.8016  0.7842 -1.3062
   10SAPS  H16Y 1323   0.950   5.680   8.217  2.1932  0.5590 -1.1948
   10SAPS  C317 1324   0.883   5.812   8.367  0.2233 -0.0626  0.0277
   10SAPS  H17X 1325   0.800   5.740   8.376  0.7784 -0.6295  0.8358
   10SAPS  H17Y 1326   0.848   5.904   8.316  1.2125  0.2192 -0.1801
   10SAPS  C318 1327   0.903   5.850   8.516  0.8535 -0.3189  0.3872
   10SAPS  H18X 1328   0.805   5.871   8.565  0.9644  1.1232  0.0534
   10SAPS  H18Y 1329   0.956   5.947   8.526 -0.7422  0.6084  0.2244
   10SAPS  H18Z 1330   0.960   5.777   8.577  0.6643  0.2320  1.2466
   11SAPS     N 1331   0.984   1.463   5.936  0.3065  0.1722  0.4544
   11SAPS   HN1 1332   1.008   1.556   5.897 -1.0958  0.4236  0.1633
   11SAPS   HN2 1333   0.899   1.428   5.888 -0.4706  0.0770  1.8342
   11SAPS   HN3 1334   0.963   1.463   6.038 -0.8276  0.2121  0.2281
   11SAPS   C12 1335   1.080   1.358   5.910  0.0151  0.2116 -0.2153
   11SAPS  H12A 1336   1.031   1.268   5.942  0.8462 -0.2673 -0.2799
   11SAPS   C13 1337   1.104   1.338   5.762 -0.6318 -0.1731  0.0692
   11SAPS  O13A 1338   1.049   1.407   5.676  0.1926 -0.1845 -0.4012
   11SAPS  O13B 1339   1.197   1.259   5.734 -0.1749  0.3938  0.6010
   11SAPS   C11 1340   1.210   1.379   5.996 -0.3155 -0.0032  0.3311
   11SAPS  H11A 1341   1.280   1.299   5.963  0.3597  0.2290  1.1678
   11SAPS  H11B 1342   1.188   1.366   6.104  0.7524  0.3786  0.6045
   11SAPS     P 1343   1.345   1.602   6.057  0.0525  0.3660 -0.1960
   11SAPS   O13 1344   1.442   1.683   5.976 -0.2774 -0.1537 -0.0450
   11SAPS   O14 1345   1.250   1.669   6.141 -0.0010 -0.2038  0.0128
   11SAPS   O12 1346   1.265   1.506   5.957  0.4302 -0.0248 -0.4992
   11SAPS   O11 1347   1.423   1.497   6.141  0.0957  0.3780 -0.3301
   11SAPS    C1 1348   1.564   1.497   6.137  0.2489 -0.3503 -0.3723
   11SAPS    HA 1349   1.590   1.389   6.134  2.6996  0.0910  1.3969
   11SAPS    HB 1350   1.614   1.546   6.050  1.9308  1.2048  1.3830
   11SAPS    C2 1351   1.618   1.556   6.278  1.0499  0.4952  0.2563
   11SAPS    HS 1352   1.600   1.471   6.347 -0.4461  0.6296  0.0717
   11SAPS   O21 1353   1.537   1.674   6.321  0.2817 -0.3281 -0.6732
   11SAPS   C21 1354   1.517   1.681   6.451 -0.9723 -1.1275  0.2794
   11SAPS   O22 1355   1.566   1.603   6.529 -0.6628 -0.1850  0.4835
   11SAPS   C22 1356   1.411   1.792   6.476 -0.1318 -0.0360 -0.5455
   11SAPS   H2R 1357   1.360   1.819   6.381  2.8238 -0.8038 -2.4767
   11SAPS   H2S 1358   1.336   1.754   6.549 -1.6074  1.1325 -1.3884
   11SAPS    C3 1359   1.768   1.580   6.273  0.7277 -0.0991 -0.1950
   11SAPS    HX 1360   1.775   1.653   6.189 -2.6419 -1.0742 -1.4761
   11SAPS    HY 1361   1.835   1.494   6.255  1.2064  0.3708 -0.6982
   11SAPS   O31 1362   1.805   1.646   6.398  0.1050  0.1387  0.3427
   11SAPS   C31 1363   1.920   1.705   6.392 -0.2311 -0.1747  0.1011
   11SAPS   O32 1364   1.991   1.717   6.293  0.3458  0.0064 -0.1812
   11SAPS   C32 1365   1.934   1.803   6.514 -0.2714 -0.3304 -0.0158
   11SAPS   H2X 1366   1.956   1.736   6.600 -0.5156 -0.0560  0.2671
   11SAPS   H2Y 1367   1.829   1.833   6.531 -0.6093 -1.3170 -0.2907
   11SAPS   C23 1368   1.478   1.922   6.525  0.8490  0.1522 -0.0174
   11SAPS   H3R 1369   1.397   1.997   6.541 -0.4202 -1.3237  0.7145
   11SAPS   H3S 1370   1.540   1.958   6.440  1.1277 -1.8454 -0.7141
   11SAPS   C24 1371   1.556   1.899   6.656 -0.7716  0.4026 -0.1511
   11SAPS   H4R 1372   1.599   2.001   6.672  2.0762 -1.1695  3.9136
   11SAPS   H4S 1373   1.644   1.832   6.649 -0.6705  0.3397  1.4322
   11SAPS   C25 1374   1.468   1.869   6.784 -0.2596  0.1848 -0.0457
   11SAPS   H5R 1375   1.433   1.765   6.791  1.6583 -0.4205  1.8321
   11SAPS   C26 1376   1.461   1.935   6.902  0.0713  0.5185 -0.3000
   11SAPS   H6R 1377   1.389   1.897   6.977 -1.5532  0.1321 -1.9843
   11SAPS   C27 1378   1.522   2.063   6.949 -0.3859 -0.8733 -0.8749
   11SAPS   H7R 1379   1.444   2.124   6.999  1.1243  0.4349 -0.0009
   11SAPS   H7S 1380   1.564   2.128   6.869 -0.2365  1.7269  1.1935
   11SAPS   C28 1381   1.638   2.044   7.049 -0.5932 -0.5631 -0.2294
   11SAPS   H8R 1382   1.734   2.034   6.997  0.6386 -1.0688  1.9909
   11SAPS   C29 1383   1.643   2.039   7.183  0.3805  0.1905  0.6167
   11SAPS   H9R 1384   1.730   2.014   7.245 -0.3377 -1.2762  1.0829
   11SAPS  C210 1385   1.517   2.054   7.268 -0.1411  1.6349 -0.0514
   11SAPS  H10R 1386   1.447   2.136   7.243  0.6188  2.4934  0.6001
   11SAPS  H10S 1387   1.554   2.079   7.370  1.9866 -1.7896  0.1981
   11SAPS  C211 1388   1.422   1.935   7.285  0.5630 -0.2952 -0.4628
   11SAPS  H11R 1389   1.370   1.895   7.197 -0.2364 -1.5620  0.5585
   11SAPS  C212 1390   1.390   1.868   7.402  0.1790 -0.1654 -0.0826
   11SAPS  H12R 1391   1.322   1.781   7.394  1.0430 -0.9277  0.7013
   11SAPS  C213 1392   1.444   1.895   7.543  0.0588  0.1438 -0.3158
   11SAPS  H13R 1393   1.454   2.005   7.560  0.9548 -0.1715  1.4757
   11SAPS  H13S 1394   1.543   1.855   7.571 -0.1588  0.3069  0.7409
   11SAPS  C214 1395   1.363   1.823   7.645  0.1339 -0.0275  0.2192
   11SAPS  H14R 1396   1.256   1.846   7.656  0.4050  1.2726  0.2899
   11SAPS  C215 1397   1.412   1.754   7.751  0.2844  0.6707 -0.3500
   11SAPS  H15R 1398   1.345   1.695   7.815  0.7661 -1.1536 -1.4488
   11SAPS  C216 1399   1.550   1.719   7.795 -0.2003  0.2746 -0.1204
   11SAPS  H16R 1400   1.630   1.791   7.767 -0.8768  0.3700 -1.9895
   11SAPS  H16S 1401   1.574   1.617   7.756  0.1723  0.7666 -1.2453
   11SAPS  C217 1402   1.565   1.730   7.947  0.0567 -0.2845 -0.4890
   11SAPS  H17R 1403   1.497   1.650   7.983  0.3692  0.1108  1.0368
   11SAPS  H17S 1404   1.528   1.825   7.991 -0.0872 -1.1631  1.3564
   11SAPS  C218 1405   1.710   1.699   7.996  0.1310 -0.0648 -0.4292
   11SAPS  H18R 1406   1.785   1.768   7.951 -0.1329 -0.2651 -1.1981
   11SAPS  H18S 1407   1.739   1.599   7.958 -1.5517  0.4076 -3.2474
   11SAPS  C219 1408   1.729   1.714   8.147  0.1237  0.0582  0.1529
   11SAPS  H19R 1409   1.722   1.816   8.191 -1.6172 -1.1149  2.8033
   11SAPS  H19S 1410   1.835   1.690   8.168  0.9600  4.4116  1.9898
   11SAPS  C220 1411   1.633   1.636   8.239 -0.3823  0.3366  0.2031
   11SAPS  H20R 1412   1.646   1.662   8.346 -1.2573 -1.8521  0.8938
   11SAPS  H20S 1413   1.640   1.526   8.229 -0.4095  0.0129  2.9465
   11SAPS  H20T 1414   1.530   1.667   8.212  0.0474  0.2363 -1.6615
   11SAPS   C33 1415   2.022   1.925   6.486 -0.2766 -0.2714  0.2370
   11SAPS   H3X 1416   1.972   1.972   6.398 -1.9509  0.4341  1.5147
   11SAPS   H3Y 1417   2.124   1.888   6.463 -0.1749  0.0989  0.0940
   11SAPS   C34 1418   2.017   2.024   6.606  0.5430  0.0541 -0.5069
   11SAPS   H4X 1419   1.930   2.092   6.597  1.5103  1.7454  1.8014
   11SAPS   H4Y 1420   2.108   2.086   6.589  1.7714 -1.2218  1.0382
   11SAPS   C35 1421   2.014   1.966   6.748  0.0585 -0.3699  0.6363
   11SAPS   H5X 1422   2.099   1.897   6.765  0.2050 -0.6890 -1.1498
   11SAPS   H5Y 1423   1.921   1.910   6.768  0.3772 -1.0443  0.2431
   11SAPS   C36 1424   2.018   2.072   6.858  0.7987  0.5027 -0.0422
   11SAPS   H6X 1425   1.927   2.136   6.849  0.4964  0.0447 -0.2815
   11SAPS   H6Y 1426   2.100   2.143   6.836  2.2569  0.4768  4.4320
   11SAPS   C37 1427   2.038   2.016   6.998  0.4501  0.6790 -0.1981
   11SAPS   H7X 1428   2.124   1.945   7.001 -0.1862 -0.1006  2.2650
   11SAPS   H7Y 1429   1.951   1.953   7.025  0.8667  0.9228  1.9545
   11SAPS   C38 1430   2.061   2.127   7.111 -0.6930 -0.1004  0.9151
   11SAPS   H8X 1431   1.967   2.185   7.124 -0.8719 -0.0874 -0.3183
   11SAPS   H8Y 1432   2.131   2.199   7.064 -0.5491 -1.0406 -0.3710
   11SAPS   C39 1433   2.108   2.078   7.244 -0.2815  0.8115 -0.0276
   11SAPS   H9X 1434   2.200   2.016   7.237 -0.7194 -0.0157  1.2986
   11SAPS   H9Y 1435   2.037   2.012   7.299 -1.3454  1.2584 -0.8440
   11SAPS  C310 1436   2.148   2.194   7.343 -0.2886  0.3832  0.1111
   11SAPS  H10X 1437   2.066   2.267   7.330  0.1975  0.8042 -0.6404
   11SAPS  H10Y 1438   2.237   2.253   7.311 -0.1543  1.8477  2.8504
   11SAPS  C311 1439   2.165   2.146   7.489  0.0373 -0.3489  0.0355
   11SAPS  H11X 1440   2.245   2.069   7.483 -0.9675 -1.3793 -0.7743
   11SAPS  H11Y 1441   2.064   2.105   7.512 -1.5296  2.2906 -1.6059
   11SAPS  C312 1442   2.212   2.253   7.587  0.2621  0.7223  0.2584
   11SAPS  H12X 1443   2.130   2.327   7.588  0.7672  1.2956  2.2512
   11SAPS  H12Y 1444   2.313   2.288   7.555 -0.1496  1.9720  0.2811
   11SAPS  C313 1445   2.200   2.202   7.733 -0.1351  0.4148  0.1778
   11SAPS  H13X 1446   2.244   2.100   7.734 -0.1766  0.3618 -1.2752
   11SAPS  H13Y 1447   2.097   2.192   7.774 -0.0920 -1.6391 -0.1320
   11SAPS  C314 1448   2.277   2.300   7.828  0.6764  0.8969 -0.3602
   11SAPS  H14X 1449   2.245   2.406   7.826  0.9261  1.0426  1.3282
   11SAPS  H14Y 1450   2.383   2.287   7.797  0.9867 -2.3426  1.5622
   11SAPS  C315 1451   2.263   2.267   7.978 -0.1976 -0.3418 -0.3281
   11SAPS  H15X 1452   2.269   2.157   7.987  1.0794 -0.3287 -0.8178
   11SAPS  H15Y 1453   2.157   2.289   8.004  0.1633  0.5755  0.4170
   11SAPS  C316 1454   2.350   2.342   8.081  0.0040  0.3974 -0.0858
   11SAPS  H16X 1455   2.343   2.452   8.067 -1.1388  0.3339 -0.1249
   11SAPS  H16Y 1456   2.452   2.318   8.044 -1.1870 -1.6896 -2.3034
   11SAPS  C317 1457   2.324   2.301   8.223  1.0278  0.2497 -0.1732
   11SAPS  H17X 1458   2.370   2.201   8.237  1.5833  0.6541  1.0368
   11SAPS  H17Y 1459   2.215   2.290   8.240  1.0231  0.5881  0.0271
   11SAPS  C318 1460   2.369   2.396   8.327  0.5139 -0.5526 -0.3553
   11SAPS  H18X 1461   2.336   2.500   8.307  0.4276 -0.4077  0.5010
   11SAPS  H18Y 1462   2.478   2.409   8.339  0.3979  0.7395 -0.6425
   11SAPS  H18Z 1463   2.337   2.365   8.429  0.7918 -2.2380 -0.7501
   12SAPS     N 1464   6.839   3.744   6.330 -0.1435  0.6541 -0.0289
   12SAPS   HN1 1465   6.894   3.823   6.291  0.9125 -0.1727 -0.2636
   12SAPS   HN2 1466   6.740   3.762   6.304  0.6010  3.6223 -1.1221
   12SAPS   HN3 1467   6.859   3.733   6.431  1.9647  0.7871 -0.3875
   12SAPS   C12 1468   6.881   3.614   6.264 -0.4064 -0.3169 -0.2777
   12SAPS  H12A 1469   6.815   3.537   6.302  2.5724 -1.9533  1.9371
   12SAPS   C13 1470   6.871   3.617   6.108  0.0094 -0.1868  0.2534
   12SAPS  O13A 1471   6.821   3.720   6.055 -0.7199 -0.0657  0.0154
   12SAPS  O13B 1472   6.894   3.508   6.043 -0.5476 -0.8286  0.4520
   12SAPS   C11 1473   7.023   3.586   6.301  0.3087  0.3002  0.1756
   12SAPS  H11A 1474   7.080   3.665   6.248  0.0921  0.6610  0.4734
   12SAPS  H11B 1475   7.061   3.490   6.261  2.7779  0.0361  2.7906
   12SAPS     P 1476   7.073   3.495   6.545  0.1530  0.0297  0.3553
   12SAPS   O13 1477   6.944   3.455   6.610  0.1063  0.3441  0.3097
   12SAPS   O14 1478   7.157   3.385   6.494 -0.2686 -0.2518 -0.1342
   12SAPS   O12 1479   7.046   3.612   6.444 -0.1731 -0.7114  0.5476
   12SAPS   O11 1480   7.153   3.572   6.664  0.0387  0.1502  0.1980
   12SAPS    C1 1481   7.283   3.618   6.630 -0.4930 -0.0673 -0.7147
   12SAPS    HA 1482   7.320   3.581   6.532 -0.8842 -0.5754 -0.6740
   12SAPS    HB 1483   7.270   3.728   6.640 -2.4449 -0.4462  2.3728
   12SAPS    C2 1484   7.387   3.585   6.739 -0.2566  0.8064 -0.2398
   12SAPS    HS 1485   7.481   3.604   6.683 -0.6995  1.5590 -0.7459
   12SAPS   O21 1486   7.366   3.453   6.795 -0.1106  0.2483 -0.2719
   12SAPS   C21 1487   7.427   3.353   6.729  0.0172  0.3303 -0.8617
   12SAPS   O22 1488   7.480   3.363   6.625 -0.0316 -0.4618  0.2910
   12SAPS   C22 1489   7.435   3.224   6.804  0.6197  0.0730  0.2038
   12SAPS   H2R 1490   7.496   3.240   6.896 -0.1706  2.3147  0.3916
   12SAPS   H2S 1491   7.333   3.196   6.838  0.8185  1.3651  2.0328
   12SAPS    C3 1492   7.402   3.701   6.847  0.0139 -0.4162 -0.0445
   12SAPS    HX 1493   7.296   3.727   6.867  0.4416  1.0322  0.4567
   12SAPS    HY 1494   7.445   3.791   6.798 -2.1937 -0.7091 -2.7425
   12SAPS   O31 1495   7.473   3.662   6.970 -0.0582 -0.3888 -0.3364
   12SAPS   C31 1496   7.605   3.669   6.972 -0.3132 -0.0676 -0.1926
   12SAPS   O32 1497   7.672   3.707   6.880 -0.4009 -0.2423  0.7165
   12SAPS   C32 1498   7.662   3.634   7.109  0.4434 -0.7018 -0.0193
   12SAPS   H2X 1499   7.769   3.613   7.090  0.6421 -0.1983  0.5259
   12SAPS   H2Y 1500   7.598   3.553   7.151  2.3064 -1.9069  0.6208
   12SAPS   C23 1501   7.471   3.094   6.714  0.0667 -0.4150 -0.6504
   12SAPS   H3R 1502   7.579   3.112   6.694  0.1167 -0.7273 -0.6691
   12SAPS   H3S 1503   7.412   3.086   6.620 -1.3552  1.5894  0.0105
   12SAPS   C24 1504   7.470   2.968   6.805  0.0902 -0.1637  0.0427
   12SAPS   H4R 1505   7.550   2.974   6.881 -0.7869  1.3946  0.9048
   12SAPS   H4S 1506   7.501   2.881   6.743  0.0596 -0.7558  0.8438
   12SAPS   C25 1507   7.334   2.936   6.856 -0.0385  0.4196 -0.0419
   12SAPS   H5R 1508   7.256   2.941   6.778  0.4105 -0.3374 -0.5583
   12SAPS   C26 1509   7.296   2.910   6.981  0.1272 -0.9314 -0.2627
   12SAPS   H6R 1510   7.187   2.897   6.986 -0.6266  4.0954  2.7671
   12SAPS   C27 1511   7.385   2.893   7.107  0.8348  0.3975  1.0994
   12SAPS   H7R 1512   7.490   2.875   7.077  0.4180  0.6170 -0.5359
   12SAPS   H7S 1513   7.340   2.810   7.167 -3.9429  1.3014 -0.8012
   12SAPS   C28 1514   7.403   3.017   7.181 -0.2107 -0.4740 -0.4355
   12SAPS   H8R 1515   7.453   3.100   7.130  0.3819  1.1249  2.5483
   12SAPS   C29 1516   7.399   3.030   7.312 -0.3753  0.1952  0.5049
   12SAPS   H9R 1517   7.420   3.131   7.352  0.6886  0.6507 -1.1084
   12SAPS  C210 1518   7.345   2.935   7.416 -0.0042  0.2981 -0.4593
   12SAPS  H10R 1519   7.284   2.858   7.366  3.2525 -3.1806  0.4682
   12SAPS  H10S 1520   7.287   2.985   7.497  0.5340 -0.5646  0.4766
   12SAPS  C211 1521   7.448   2.846   7.483  0.0046  0.6317  0.3186
   12SAPS  H11R 1522   7.473   2.764   7.415 -1.0541  0.9477 -0.4793
   12SAPS  C212 1523   7.507   2.842   7.603 -0.3303 -0.1152 -0.2356
   12SAPS  H12R 1524   7.580   2.760   7.614  0.0352  0.1234 -0.8454
   12SAPS  C213 1525   7.503   2.924   7.725  0.2353  0.8740  0.5265
   12SAPS  H13R 1526   7.516   3.031   7.699 -0.6623  1.1350  1.0967
   12SAPS  H13S 1527   7.588   2.897   7.791  2.5352  1.2692 -2.0654
   12SAPS  C214 1528   7.372   2.916   7.788  1.0836  0.5014 -0.1879
   12SAPS  H14R 1529   7.297   2.981   7.739  0.3110 -1.2766 -1.4827
   12SAPS  C215 1530   7.337   2.834   7.893 -0.0317  0.6625 -0.7290
   12SAPS  H15R 1531   7.241   2.849   7.945 -1.3288 -1.3165 -2.3423
   12SAPS  C216 1532   7.431   2.730   7.957 -0.0443  0.0373 -0.0930
   12SAPS  H16R 1533   7.503   2.775   8.027  1.2310  0.5648 -1.6752
   12SAPS  H16S 1534   7.493   2.684   7.877  1.8962 -1.1568  1.9944
   12SAPS  C217 1535   7.351   2.602   8.015 -0.0571 -0.1772  0.1699
   12SAPS  H17R 1536   7.422   2.521   8.040  0.8901  1.1830  2.1736
   12SAPS  H17S 1537   7.299   2.559   7.927  1.1144 -0.1554 -0.5554
   12SAPS  C218 1538   7.263   2.637   8.135 -0.5187 -0.3852 -0.2628
   12SAPS  H18R 1539   7.217   2.544   8.174 -0.5857 -0.7880 -1.2557
   12SAPS  H18S 1540   7.184   2.706   8.097  0.7773  0.5102 -1.4588
   12SAPS  C219 1541   7.335   2.727   8.240 -0.2836 -0.0668 -0.4387
   12SAPS  H19R 1542   7.354   2.831   8.205 -1.7325  0.3050 -0.1874
   12SAPS  H19S 1543   7.425   2.665   8.256 -0.2024  0.2046  0.1771
   12SAPS  C220 1544   7.270   2.742   8.374  0.4694 -0.1084  0.0725
   12SAPS  H20R 1545   7.228   2.645   8.408  1.4755  0.1015  2.0819
   12SAPS  H20S 1546   7.191   2.820   8.372  1.7094  1.1891 -0.2210
   12SAPS  H20T 1547   7.335   2.770   8.459  3.0072  0.8833 -2.0532
   12SAPS   C33 1548   7.648   3.752   7.221 -0.8814  0.0516 -0.3039
   12SAPS   H3X 1549   7.542   3.787   7.223 -1.2973 -1.1481 -0.8143
   12SAPS   H3Y 1550   7.709   3.844   7.211 -1.0420  0.1193 -0.6815
   12SAPS   C34 1551   7.671   3.694   7.362 -0.5936  0.4657 -0.6247
   12SAPS   H4X 1552   7.775   3.654   7.358 -1.4410 -1.8559 -1.4200
   12SAPS   H4Y 1553   7.617   3.598   7.378  0.1399 -0.3744 -2.8264
   12SAPS   C35 1554   7.639   3.793   7.477  0.3624  0.6272 -0.1768
   12SAPS   H5X 1555   7.542   3.835   7.445  0.0262 -0.3352 -0.4593
   12SAPS   H5Y 1556   7.712   3.877   7.484  1.1508 -0.1227  1.2519
   12SAPS   C36 1557   7.636   3.727   7.609  0.3737  0.2503 -0.7588
   12SAPS   H6X 1558   7.736   3.688   7.639  0.4457 -0.2239 -1.5983
   12SAPS   H6Y 1559   7.562   3.645   7.604  1.6979 -1.1678  1.3602
   12SAPS   C37 1560   7.592   3.808   7.728  0.4674 -0.2223  0.1200
   12SAPS   H7X 1561   7.489   3.843   7.706  1.0812  1.3253 -0.4459
   12SAPS   H7Y 1562   7.640   3.908   7.737 -0.6122  0.5751 -2.1414
   12SAPS   C38 1563   7.590   3.718   7.855  0.3534 -0.5393 -0.3542
   12SAPS   H8X 1564   7.691   3.676   7.872 -0.4958 -2.5872 -0.1442
   12SAPS   H8Y 1565   7.536   3.623   7.838  2.3356 -1.8387  0.3169
   12SAPS   C39 1566   7.551   3.800   7.987  0.1857  0.1690  0.6556
   12SAPS   H9X 1567   7.454   3.852   7.974 -0.4575 -0.9680  0.8665
   12SAPS   H9Y 1568   7.629   3.877   8.005  1.0639 -0.9774  1.9082
   12SAPS  C310 1569   7.535   3.714   8.108  0.3713  0.2282 -0.0490
   12SAPS  H10X 1570   7.601   3.626   8.094 -0.6863 -0.7503  0.8410
   12SAPS  H10Y 1571   7.432   3.672   8.116  0.4115 -0.2910 -1.8863
   12SAPS  C311 1572   7.572   3.780   8.238 -0.0301  0.3547  1.0643
   12SAPS  H11X 1573   7.488   3.850   8.261 -0.9807 -0.4402  0.1093
   12SAPS  H11Y 1574   7.662   3.845   8.234 -0.3338  0.7000 -0.7426
   12SAPS  C312 1575   7.563   3.695   8.361 -0.2540  0.4386  0.7402
   12SAPS  H12X 1576   7.459   3.671   8.395  0.8081 -1.2941  3.0363
   12SAPS  H12Y 1577   7.601   3.754   8.447 -0.8200 -0.7349  1.8386
   12SAPS  C313 1578   7.640   3.556   8.355  0.6147 -0.2935 -0.1765
   12SAPS  H13X 1579   7.742   3.567   8.313  0.7516  1.1623  0.4952
   12SAPS  H13Y 1580   7.590   3.485   8.285 -2.0583 -0.7788  2.0769
   12SAPS  C314 1581   7.650   3.515   8.499 -0.0180 -0.0067 -0.3272
   12SAPS  H14X 1582   7.552   3.528   8.550 -0.2436 -2.6262  0.0415
   12SAPS  H14Y 1583   7.711   3.599   8.539 -0.0591  0.5466 -1.3935
   12SAPS  C315 1584   7.714   3.382   8.522 -0.3488  0.3217  0.9334
   12SAPS  H15X 1585   7.751   3.373   8.626  1.6930 -0.8440  0.1556
   12SAPS  H15Y 1586   7.795   3.373   8.447 -1.5165 -0.0153 -0.3339
   12SAPS  C316 1587   7.621   3.258   8.504 -0.4512  1.2537  0.2817
   12SAPS  H16X 1588   7.668   3.160   8.481 -2.4262  0.2111  0.4563
   12SAPS  H16Y 1589   7.564   3.274   8.410  0.9218  0.7107 -0.6854
   12SAPS  C317 1590   7.540   3.241   8.628 -0.1913 -0.3296  0.1424
   12SAPS  H17X 1591   7.505   3.339   8.668 -1.1043 -0.1691 -1.0038
   12SAPS  H17Y 1592   7.604   3.207   8.712  2.8010 -0.1458 -1.8756
   12SAPS  C318 1593   7.430   3.135   8.614 -0.0451  0.4829  0.1867
   12SAPS  H18X 1594   7.346   3.166   8.547 -2.5460 -1.2024  2.3473
   12SAPS  H18Y 1595   7.391   3.112   8.715 -1.8882  0.3439 -0.5039
   12SAPS  H18Z 1596   7.470   3.044   8.565 -2.2733 -1.3325  1.5575
   13SAPS     N 1597   1.213   0.536   5.968  0.6169  0.7115  0.5183
   13SAPS   HN1 1598   1.206   0.433   5.954 -1.2152  0.9514 -0.6656
   13SAPS   HN2 1599   1.136   0.556   6.035  0.3234 -1.8179  1.0201
   13SAPS   HN3 1600   1.188   0.584   5.879  0.3189  1.4332  0.9796
   13SAPS   C12 1601   1.338   0.577   6.028 -0.1473  0.0842 -0.8473
   13SAPS  H12A 1602   1.406   0.606   5.948  1.4944  0.3763  0.5929
   13SAPS   C13 1603   1.314   0.709   6.114 -0.5216 -0.0763 -0.3702
   13SAPS  O13A 1604   1.194   0.741   6.150 -0.8274  0.4431  0.1131
   13SAPS  O13B 1605   1.409   0.770   6.169 -0.0304 -0.2942  0.2488
   13SAPS   C11 1606   1.412   0.462   6.100 -0.2181  0.7533 -0.8633
   13SAPS  H11A 1607   1.342   0.429   6.179  0.3093 -0.5784 -0.9228
   13SAPS  H11B 1608   1.507   0.501   6.143 -1.2255  2.6472 -0.2417
   13SAPS     P 1609   1.348   0.219   6.024 -0.2043  0.2929  0.4714
   13SAPS   O13 1610   1.207   0.249   5.995  0.4975  0.4008 -0.4951
   13SAPS   O14 1611   1.409   0.120   5.935  0.0705 -0.0148  0.3032
   13SAPS   O12 1612   1.432   0.350   6.014 -0.4624 -0.6312 -0.0368
   13SAPS   O11 1613   1.370   0.166   6.175 -0.4604 -0.3168  0.0351
   13SAPS    C1 1614   1.483   0.177   6.258 -0.3995  0.0140 -0.0033
   13SAPS    HA 1615   1.540   0.083   6.244  0.1288  0.5036 -1.3017
   13SAPS    HB 1616   1.547   0.268   6.250  0.9684 -0.9535 -0.5195
   13SAPS    C2 1617   1.440   0.186   6.407  0.5808  0.7361 -0.8408
   13SAPS    HS 1618   1.359   0.262   6.418 -1.1074 -1.1957  1.1527
   13SAPS   O21 1619   1.553   0.213   6.495 -0.2892 -0.3692 -0.0027
   13SAPS   C21 1620   1.584   0.346   6.494  0.4589  0.1530  0.3201
   13SAPS   O22 1621   1.513   0.431   6.442  0.1852 -0.0672 -0.6791
   13SAPS   C22 1622   1.710   0.366   6.581  0.5772  0.7824 -0.2148
   13SAPS   H2R 1623   1.747   0.267   6.615 -0.4820  0.0886 -0.9989
   13SAPS   H2S 1624   1.796   0.398   6.518  0.8887 -0.1184 -0.2496
   13SAPS    C3 1625   1.384   0.047   6.455 -0.5601  0.6167 -0.6269
   13SAPS    HX 1626   1.459  -0.019   6.407 -0.2304  0.2145  0.4202
   13SAPS    HY 1627   1.291   0.022   6.399 -0.1981  0.1376 -1.0275
   13SAPS   O31 1628   1.379   0.021   6.602 -0.1708 -0.3349 -0.0497
   13SAPS   C31 1629   1.298   0.091   6.676 -0.1445  0.6825  0.2385
   13SAPS   O32 1630   1.226   0.183   6.641  0.1036  0.2655 -0.0966
   13SAPS   C32 1631   1.320   0.049   6.823 -0.1367  0.3980  0.9267
   13SAPS   H2X 1632   1.426   0.018   6.830 -0.1915 -1.0096 -2.5675
   13SAPS   H2Y 1633   1.260  -0.040   6.851 -0.1061  0.0326 -0.1345
   13SAPS   C23 1634   1.687   0.470   6.699 -0.0064  0.1673 -0.3875
   13SAPS   H3R 1635   1.640   0.558   6.650 -0.5646  0.3831  0.5213
   13SAPS   H3S 1636   1.791   0.492   6.733  0.3781  1.1859 -2.0869
   13SAPS   C24 1637   1.605   0.411   6.813 -0.0824 -0.8811 -0.4372
   13SAPS   H4R 1638   1.658   0.321   6.851  0.0365 -0.7693 -0.3422
   13SAPS   H4S 1639   1.504   0.382   6.777 -1.3678 -0.3798  2.5175
   13SAPS   C25 1640   1.585   0.513   6.922  1.1405 -0.8222 -0.2105
   13SAPS   H5R 1641   1.531   0.603   6.891 -1.0046 -1.8646  0.3211
   13SAPS   C26 1642   1.640   0.516   7.046  0.0828  0.1389 -0.6515
   13SAPS   H6R 1643   1.628   0.601   7.115 -0.9976  0.3435 -1.0664
   13SAPS   C27 1644   1.727   0.421   7.123 -0.6235  1.0393 -0.3536
   13SAPS   H7R 1645   1.809   0.481   7.168 -0.2674 -0.6213  1.3466
   13SAPS   H7S 1646   1.785   0.354   7.056 -0.7911  0.2721  0.2581
   13SAPS   C28 1647   1.649   0.335   7.224  0.0371  0.4733  0.1709
   13SAPS   H8R 1648   1.627   0.241   7.171 -3.8016  2.7792 -2.8070
   13SAPS   C29 1649   1.583   0.354   7.342 -1.4159  0.1530  0.9806
   13SAPS   H9R 1650   1.515   0.273   7.374  0.2230 -2.6719 -2.1325
   13SAPS  C210 1651   1.604   0.482   7.430  0.2025  0.3545  0.3147
   13SAPS  H10R 1652   1.667   0.556   7.376 -1.8338  1.9902  0.0493
   13SAPS  H10S 1653   1.659   0.448   7.521  0.8155  0.3770 -0.0396
   13SAPS  C211 1654   1.478   0.559   7.452  0.8818 -0.9710  0.7736
   13SAPS  H11R 1655   1.413   0.564   7.363  1.0550  2.2615  0.6997
   13SAPS  C212 1656   1.445   0.636   7.556  0.0949 -0.1995  0.3097
   13SAPS  H12R 1657   1.344   0.679   7.564 -0.5942 -2.0980  3.5483
   13SAPS  C213 1658   1.497   0.636   7.700  0.4576  0.8246  0.0730
   13SAPS  H13R 1659   1.524   0.532   7.730 -0.7926  0.7939  1.1374
   13SAPS  H13S 1660   1.416   0.661   7.771 -0.5622 -0.8188 -0.4535
   13SAPS  C214 1661   1.614   0.725   7.713  0.2319  0.1156  0.3915
   13SAPS  H14R 1662   1.640   0.770   7.616 -1.1787  0.7203  0.2663
   13SAPS  C215 1663   1.681   0.752   7.821 -0.6120  0.5149  0.8799
   13SAPS  H15R 1664   1.769   0.816   7.804 -0.6617  0.1964 -0.6511
   13SAPS  C216 1665   1.656   0.693   7.955  0.2150  1.3121 -0.5799
   13SAPS  H16R 1666   1.747   0.641   7.993 -2.0696 -3.4859 -0.9020
   13SAPS  H16S 1667   1.591   0.603   7.948 -0.6392  1.8411  0.3935
   13SAPS  C217 1668   1.589   0.779   8.061 -0.4306 -0.0473  0.6174
   13SAPS  H17R 1669   1.664   0.855   8.090 -1.2236  1.3618 -0.8473
   13SAPS  H17S 1670   1.574   0.711   8.148  1.1290 -3.2384 -1.4152
   13SAPS  C218 1671   1.448   0.842   8.043 -0.1080  0.2980 -0.3380
   13SAPS  H18R 1672   1.392   0.747   8.037  3.1263 -1.9204  1.5509
   13SAPS  H18S 1673   1.431   0.904   7.952  0.7979  1.1931  0.0793
   13SAPS  C219 1674   1.410   0.926   8.168 -0.8558 -0.0557 -0.0077
   13SAPS  H19R 1675   1.471   1.019   8.179 -0.0715 -0.5723  0.0633
   13SAPS  H19S 1676   1.451   0.870   8.255  0.1721  1.9636  0.8958
   13SAPS  C220 1677   1.261   0.949   8.186 -0.2770 -0.3561 -0.2499
   13SAPS  H20R 1678   1.241   0.979   8.291  0.9249  1.8771 -0.5841
   13SAPS  H20S 1679   1.216   0.853   8.155 -1.5216 -0.4364  1.6520
   13SAPS  H20T 1680   1.230   1.034   8.121 -0.0327 -0.9718 -1.1934
   13SAPS   C33 1681   1.297   0.172   6.915  0.2589 -0.0664 -0.9909
   13SAPS   H3X 1682   1.187   0.189   6.922  0.1981 -0.5271 -0.8192
   13SAPS   H3Y 1683   1.343   0.263   6.871  0.5546  0.0610 -0.4215
   13SAPS   C34 1684   1.343   0.146   7.056  0.5241 -0.5150  0.1865
   13SAPS   H4X 1685   1.320   0.237   7.116  2.0410 -0.4361  0.6935
   13SAPS   H4Y 1686   1.452   0.125   7.051  0.2250 -1.8331 -1.9256
   13SAPS   C35 1687   1.263   0.039   7.140 -0.7965  0.0474 -0.5066
   13SAPS   H5X 1688   1.273  -0.061   7.092 -1.8024  0.4816 -1.6672
   13SAPS   H5Y 1689   1.155   0.061   7.146 -1.2176 -1.8294 -0.5800
   13SAPS   C36 1690   1.327   0.018   7.283  0.0814 -0.0651  0.6498
   13SAPS   H6X 1691   1.320   0.121   7.324  1.5788  1.5525 -2.7578
   13SAPS   H6Y 1692   1.433  -0.010   7.266 -0.5090 -1.0104 -1.9341
   13SAPS   C37 1693   1.237  -0.072   7.365  0.2250 -0.2131  1.0113
   13SAPS   H7X 1694   1.222  -0.166   7.307  1.6742 -1.4035  2.4831
   13SAPS   H7Y 1695   1.140  -0.022   7.388 -1.0725 -1.6173 -1.0725
   13SAPS   C38 1696   1.292  -0.114   7.504  0.6515  0.1999  0.6333
   13SAPS   H8X 1697   1.333  -0.027   7.559  1.2671 -1.5099  2.9962
   13SAPS   H8Y 1698   1.378  -0.185   7.499 -1.9847 -3.2666  0.6041
   13SAPS   C39 1699   1.184  -0.171   7.598  0.0658 -0.1768  0.5680
   13SAPS   H9X 1700   1.226  -0.259   7.653 -1.1392 -0.1632  1.5571
   13SAPS   H9Y 1701   1.100  -0.210   7.535  0.1000 -1.1385  1.0925
   13SAPS  C310 1702   1.124  -0.082   7.709 -0.3071 -0.8455  0.5431
   13SAPS  H10X 1703   1.064  -0.006   7.655 -1.3182 -1.3528  0.9338
   13SAPS  H10Y 1704   1.204  -0.036   7.771  0.5009  1.0562 -1.7593
   13SAPS  C311 1705   1.044  -0.164   7.808  0.0188 -0.0655  1.0349
   13SAPS  H11X 1706   1.101  -0.256   7.835 -1.1858 -0.6348  1.7604
   13SAPS  H11Y 1707   0.954  -0.200   7.754  1.7713 -2.0718 -0.7358
   13SAPS  C312 1708   0.998  -0.078   7.924 -0.0217 -0.8545 -0.4990
   13SAPS  H12X 1709   0.961   0.018   7.883  2.0987  0.4082  0.3752
   13SAPS  H12Y 1710   1.083  -0.051   7.991 -1.6402 -1.8304  2.1282
   13SAPS  C313 1711   0.884  -0.131   8.014 -0.2495  0.3608  0.3055
   13SAPS  H13X 1712   0.784  -0.119   7.967  0.6586  2.3943 -1.2592
   13SAPS  H13Y 1713   0.877  -0.052   8.092  0.2135  0.4590  0.2489
   13SAPS  C314 1714   0.892  -0.280   8.054 -0.5396 -0.1472 -0.0997
   13SAPS  H14X 1715   0.986  -0.308   8.106 -0.4595  0.6382  0.1854
   13SAPS  H14Y 1716   0.889  -0.336   7.958  0.0162 -0.1325 -0.1313
   13SAPS  C315 1717   0.789  -0.334   8.152  0.2041  0.1502 -0.2235
   13SAPS  H15X 1718   0.683  -0.310   8.124 -0.5378 -1.4839  1.0502
   13SAPS  H15Y 1719   0.804  -0.279   8.247 -0.0216  0.3029 -0.2751
   13SAPS  C316 1720   0.797  -0.490   8.172  0.3867 -0.0483 -0.2556
   13SAPS  H16X 1721   0.890  -0.529   8.218  0.6892 -2.8048 -2.9004
   13SAPS  H16Y 1722   0.786  -0.537   8.072 -0.8500 -1.4707  0.5092
   13SAPS  C317 1723   0.675  -0.527   8.247  0.9826  0.8354 -0.2430
   13SAPS  H17X 1724   0.595  -0.462   8.206  0.5773  0.9070  0.6310
   13SAPS  H17Y 1725   0.686  -0.491   8.352  2.8410 -0.9958  0.2542
   13SAPS  C318 1726   0.645  -0.680   8.258 -0.3672 -0.9720 -0.6191
   13SAPS  H18X 1727   0.634  -0.732   8.160  1.5223  0.1512 -1.5065
   13SAPS  H18Y 1728   0.556  -0.700   8.320  0.2329  1.3364  1.1199
   13SAPS  H18Z 1729   0.735  -0.705   8.318  1.9787  3.7459 -1.6782
   14SAPS     N 1730   1.455   3.749   6.160 -0.3749 -0.2109  0.0613
   14SAPS   HN1 1731   1.390   3.792   6.092 -0.8871 -0.8740  0.1258
   14SAPS   HN2 1732   1.397   3.729   6.244 -0.8821  0.2365 -0.1775
   14SAPS   HN3 1733   1.541   3.804   6.182 -0.0546 -0.4107 -0.6424
   14SAPS   C12 1734   1.515   3.627   6.100  0.3874  0.4828 -0.7391
   14SAPS  H12A 1735   1.434   3.579   6.047  0.1532 -1.3540  1.1226
   14SAPS   C13 1736   1.607   3.656   5.983 -0.0681  0.3317  0.5514
   14SAPS  O13A 1737   1.647   3.776   5.953  0.0052  0.5533  0.0103
   14SAPS  O13B 1738   1.657   3.555   5.925 -0.4673  0.0772 -0.0579
   14SAPS   C11 1739   1.585   3.544   6.206  0.0899  0.0301  0.1508
   14SAPS  H11A 1740   1.671   3.602   6.246 -1.3196  1.2562  1.5239
   14SAPS  H11B 1741   1.634   3.455   6.162  3.1815  0.5327  2.2747
   14SAPS     P 1742   1.437   3.378   6.341 -0.3249  0.1066  0.3866
   14SAPS   O13 1743   1.387   3.372   6.478 -0.4589 -0.0997 -0.0886
   14SAPS   O14 1744   1.339   3.356   6.235 -0.2984  0.4195 -0.4689
   14SAPS   O12 1745   1.500   3.518   6.320 -0.1689 -0.0357 -0.4883
   14SAPS   O11 1746   1.563   3.280   6.318 -0.0978 -0.6881  0.2643
   14SAPS    C1 1747   1.632   3.222   6.425 -0.1618 -0.1281  0.2046
   14SAPS    HA 1748   1.576   3.229   6.520 -0.1042 -0.4446  0.2648
   14SAPS    HB 1749   1.653   3.118   6.391 -1.7440  0.0316 -1.3753
   14SAPS    C2 1750   1.770   3.289   6.448 -0.0188  0.3090 -0.4103
   14SAPS    HS 1751   1.826   3.294   6.353  0.8468  1.2987  0.1269
   14SAPS   O21 1752   1.836   3.206   6.548  0.2904  0.0563 -0.4347
   14SAPS   C21 1753   1.961   3.224   6.559 -0.4032  0.2579 -0.3277
   14SAPS   O22 1754   2.032   3.302   6.497 -0.2335  0.2364 -0.0980
   14SAPS   C22 1755   2.004   3.166   6.690 -0.1471 -0.3651  0.0832
   14SAPS   H2R 1756   2.064   3.242   6.744 -1.2746 -0.6938  1.8648
   14SAPS   H2S 1757   1.922   3.145   6.762  0.9837 -0.9835  1.2294
   14SAPS    C3 1758   1.759   3.435   6.501  0.4301  0.2710  0.4606
   14SAPS    HX 1759   1.709   3.482   6.414 -0.1556  0.2048  0.7530
   14SAPS    HY 1760   1.858   3.483   6.510  0.8952 -0.8266  1.6516
   14SAPS   O31 1761   1.677   3.447   6.621 -0.0828 -0.2946 -0.0001
   14SAPS   C31 1762   1.750   3.469   6.730  0.4800 -0.3673 -0.0034
   14SAPS   O32 1763   1.870   3.477   6.739 -0.1026 -0.2968  0.2413
   14SAPS   C32 1764   1.659   3.478   6.845 -0.3979 -0.0231  0.0407
   14SAPS   H2X 1765   1.590   3.390   6.844  0.1899 -0.5309  1.6695
   14SAPS   H2Y 1766   1.598   3.570   6.856 -1.2561 -0.8257  2.6193
   14SAPS   C23 1767   2.101   3.045   6.673  0.6526  0.2826  0.0900
   14SAPS   H3R 1768   2.196   3.081   6.628  0.9804 -0.1286  0.4376
   14SAPS   H3S 1769   2.048   2.973   6.607  1.7062 -1.6912  1.2891
   14SAPS   C24 1770   2.152   2.994   6.813 -0.0127 -0.3598 -0.5303
   14SAPS   H4R 1771   2.177   3.080   6.879 -0.2708 -1.6002  1.2749
   14SAPS   H4S 1772   2.241   2.928   6.805 -0.1587 -1.2374  3.0479
   14SAPS   C25 1773   2.040   2.913   6.879  0.4800  0.4894  0.0454
   14SAPS   H5R 1774   1.976   2.850   6.817  0.0305 -0.7008  1.6519
   14SAPS   C26 1775   2.010   2.894   7.006 -0.0536 -0.2638 -0.0634
   14SAPS   H6R 1776   1.919   2.840   7.035 -0.1490  0.9182  2.0124
   14SAPS   C27 1777   2.068   2.961   7.126  0.4968 -0.3544 -0.0458
   14SAPS   H7R 1778   2.175   2.977   7.102  0.1402  1.0319 -0.7608
   14SAPS   H7S 1779   2.058   2.891   7.212 -0.9678  1.1313  1.0491
   14SAPS   C28 1780   2.012   3.089   7.168  0.2258 -0.5475 -0.6110
   14SAPS   H8R 1781   1.907   3.109   7.140 -1.2263 -2.9552  2.5322
   14SAPS   C29 1782   2.074   3.174   7.257 -0.2283  0.1553  0.1652
   14SAPS   H9R 1783   2.018   3.267   7.273 -0.0735  0.0992  1.0830
   14SAPS  C210 1784   2.212   3.157   7.334  0.4476  0.2136 -0.5471
   14SAPS  H10R 1785   2.302   3.197   7.284  1.0472  0.7525  0.9001
   14SAPS  H10S 1786   2.227   3.048   7.346  2.1436  0.6571  2.0325
   14SAPS  C211 1787   2.211   3.205   7.480  0.1184  0.2986  0.6199
   14SAPS  H11R 1788   2.276   3.292   7.498 -0.8306  1.4435 -1.1689
   14SAPS  C212 1789   2.146   3.170   7.596 -0.2187 -0.8471  0.2430
   14SAPS  H12R 1790   2.172   3.229   7.685  0.9783  0.7692 -1.1329
   14SAPS  C213 1791   2.029   3.070   7.604 -0.5945 -0.7012  0.1800
   14SAPS  H13R 1792   2.080   2.973   7.622  0.5744 -0.1366  0.0583
   14SAPS  H13S 1793   1.987   3.068   7.501 -0.0297  0.3806 -0.0859
   14SAPS  C214 1794   1.916   3.102   7.704 -0.5110  0.5480  0.3125
   14SAPS  H14R 1795   1.830   3.157   7.663 -0.2524  0.2233 -0.6890
   14SAPS  C215 1796   1.905   3.051   7.824  0.1384  0.4571  1.0143
   14SAPS  H15R 1797   1.822   3.088   7.887 -1.3087  1.3748 -1.3094
   14SAPS  C216 1798   2.017   2.982   7.910  0.1115 -0.3926 -0.0203
   14SAPS  H16R 1799   2.112   3.007   7.859 -0.2599  1.4376  0.1114
   14SAPS  H16S 1800   2.013   2.872   7.927  0.4251 -0.3004  0.6824
   14SAPS  C217 1801   2.032   3.047   8.048  0.3211 -0.3385  0.1448
   14SAPS  H17R 1802   2.022   3.157   8.052 -1.0299 -0.3916 -0.9461
   14SAPS  H17S 1803   2.137   3.022   8.071 -0.4654 -4.3357  0.1099
   14SAPS  C218 1804   1.923   2.989   8.146  0.4842  0.2077 -0.2795
   14SAPS  H18R 1805   1.925   2.878   8.138 -0.9624  0.1016  0.4408
   14SAPS  H18S 1806   1.824   3.017   8.105  0.6114  2.2137  0.6618
   14SAPS  C219 1807   1.923   3.031   8.293  0.7959  0.0615  0.3103
   14SAPS  H19R 1808   2.016   2.992   8.339  0.5622  0.8239  1.4847
   14SAPS  H19S 1809   1.838   2.980   8.343  0.0557 -0.0013 -0.9659
   14SAPS  C220 1810   1.913   3.178   8.317 -0.3629  0.3110  0.2881
   14SAPS  H20R 1811   1.809   3.206   8.290 -0.5866 -0.9896 -0.2561
   14SAPS  H20S 1812   1.992   3.230   8.258 -0.0831  0.8438  1.1113
   14SAPS  H20T 1813   1.935   3.199   8.424  0.3089 -1.4366  0.5308
   14SAPS   C33 1814   1.739   3.459   6.980 -0.1676 -0.2193  0.4991
   14SAPS   H3X 1815   1.796   3.554   6.993  2.5380 -1.5369 -0.8855
   14SAPS   H3Y 1816   1.806   3.371   6.973  1.7156  1.2393 -0.6455
   14SAPS   C34 1817   1.650   3.440   7.107  0.2482 -0.3800  0.0919
   14SAPS   H4X 1818   1.591   3.348   7.087 -2.3128  1.3799 -0.9772
   14SAPS   H4Y 1819   1.578   3.524   7.119 -0.4260 -0.5484 -2.1934
   14SAPS   C35 1820   1.729   3.420   7.234 -0.5712 -0.1358 -0.4465
   14SAPS   H5X 1821   1.799   3.503   7.260  2.1701 -2.1021 -1.1757
   14SAPS   H5Y 1822   1.800   3.335   7.234 -0.6368 -0.2151  0.7865
   14SAPS   C36 1823   1.639   3.412   7.359 -0.1719  0.1807  0.2695
   14SAPS   H6X 1824   1.557   3.338   7.347  0.1476  0.0197 -1.0932
   14SAPS   H6Y 1825   1.583   3.508   7.362 -0.6727 -0.0863 -0.2549
   14SAPS   C37 1826   1.712   3.367   7.484  0.0974 -0.2576  0.0738
   14SAPS   H7X 1827   1.791   3.444   7.498  1.8949 -1.6712 -1.6862
   14SAPS   H7Y 1828   1.753   3.264   7.479 -1.2521 -0.8792  1.2951
   14SAPS   C38 1829   1.625   3.371   7.612 -0.4029  0.1635 -0.1018
   14SAPS   H8X 1830   1.565   3.464   7.613  1.0795  1.2058  2.5803
   14SAPS   H8Y 1831   1.700   3.370   7.694  0.3266 -0.1137 -0.7554
   14SAPS   C39 1832   1.536   3.235   7.626  0.2387 -0.2545  0.1497
   14SAPS   H9X 1833   1.603   3.147   7.617 -0.8349 -0.9336 -1.8036
   14SAPS   H9Y 1834   1.452   3.233   7.554 -1.0611  2.2573  1.4566
   14SAPS  C310 1835   1.456   3.209   7.754 -0.5060 -0.0282  0.0779
   14SAPS  H10X 1836   1.404   3.110   7.751  1.1664 -1.0221 -4.1707
   14SAPS  H10Y 1837   1.378   3.287   7.755  0.0317  0.5798 -1.6024
   14SAPS  C311 1838   1.547   3.226   7.880 -0.6960  0.0554  0.2140
   14SAPS  H11X 1839   1.612   3.316   7.878 -0.3386 -0.1942  0.5130
   14SAPS  H11Y 1840   1.611   3.137   7.864 -1.3825  0.0426 -3.2637
   14SAPS  C312 1841   1.470   3.212   8.014 -1.3301  0.1371  0.0987
   14SAPS  H12X 1842   1.387   3.140   8.001 -1.1093 -0.8527  3.3015
   14SAPS  H12Y 1843   1.421   3.312   8.015 -3.0786 -0.6353 -1.6627
   14SAPS  C313 1844   1.564   3.178   8.135  0.4157 -0.2961 -0.0909
   14SAPS  H13X 1845   1.624   3.268   8.156 -0.0350 -0.0785  0.2882
   14SAPS  H13Y 1846   1.639   3.108   8.092  0.2103 -0.2760 -0.4887
   14SAPS  C314 1847   1.491   3.122   8.262 -0.0747  0.3704  0.0645
   14SAPS  H14X 1848   1.570   3.084   8.330  1.0171  1.1406 -0.7396
   14SAPS  H14Y 1849   1.430   3.034   8.232  0.8704 -0.4369  0.4590
   14SAPS  C315 1850   1.406   3.226   8.335 -0.1357  0.1185  0.8849
   14SAPS  H15X 1851   1.332   3.267   8.263 -1.6443 -1.9976  1.1258
   14SAPS  H15Y 1852   1.470   3.310   8.369  1.4546 -0.8429  0.3799
   14SAPS  C316 1853   1.336   3.189   8.472  0.2973  0.1285  0.3976
   14SAPS  H16X 1854   1.420   3.149   8.533  2.2767  0.8650 -1.7340
   14SAPS  H16Y 1855   1.273   3.099   8.461  0.7929 -0.4175  1.7658
   14SAPS  C317 1856   1.251   3.299   8.535  0.2045 -0.5826  0.0704
   14SAPS  H17X 1857   1.188   3.337   8.452  2.0718 -0.3086 -1.3037
   14SAPS  H17Y 1858   1.314   3.385   8.568  1.7540 -1.3564 -0.7346
   14SAPS  C318 1859   1.174   3.240   8.645  0.0526 -0.1544  0.1641
   14SAPS  H18X 1860   1.104   3.314   8.690  0.0773 -0.3175  0.4719
   14SAPS  H18Y 1861   1.247   3.200   8.719  0.5171  0.8127  0.2341
   14SAPS  H18Z 1862   1.118   3.153   8.604 -1.9194  2.0315 -2.0887
   15SAPS     N 1863   2.640   2.080   5.804 -0.2150 -0.3102  0.0238
   15SAPS   HN1 1864   2.623   2.023   5.719 -1.5547 -0.6421  0.5020
   15SAPS   HN2 1865   2.737   2.069   5.839  0.0793  1.2831 -0.2078
   15SAPS   HN3 1866   2.586   2.025   5.873  2.9857 -2.2968  1.2042
   15SAPS   C12 1867   2.596   2.220   5.816  0.4957 -0.6440 -0.3485
   15SAPS  H12A 1868   2.568   2.244   5.918  0.2468  2.3649 -1.0043
   15SAPS   C13 1869   2.694   2.330   5.782 -0.3301  0.5418  0.1755
   15SAPS  O13A 1870   2.808   2.288   5.750 -0.2231  0.0691  0.3620
   15SAPS  O13B 1871   2.678   2.450   5.815 -0.8482 -0.6290  0.2889
   15SAPS   C11 1872   2.466   2.247   5.739  0.8921 -1.2833  0.4425
   15SAPS  H11A 1873   2.477   2.247   5.629 -0.5199 -0.3827  0.2651
   15SAPS  H11B 1874   2.451   2.352   5.772 -0.6033 -0.9812 -1.0509
   15SAPS     P 1875   2.215   2.194   5.755 -0.3530 -0.3479  0.1998
   15SAPS   O13 1876   2.202   2.260   5.627 -0.7403 -0.3913 -0.0544
   15SAPS   O14 1877   2.132   2.077   5.778  0.6540  0.4786  0.0754
   15SAPS   O12 1878   2.370   2.159   5.780 -0.5562 -0.2835  0.5224
   15SAPS   O11 1879   2.182   2.303   5.866 -0.5278 -0.0995 -0.2431
   15SAPS    C1 1880   2.220   2.284   6.002  0.7675  0.2896  0.7345
   15SAPS    HA 1881   2.324   2.249   6.017  0.3176 -1.5266 -0.1337
   15SAPS    HB 1882   2.224   2.388   6.043 -0.9108  0.2762  1.0211
   15SAPS    C2 1883   2.128   2.195   6.088 -0.2409 -1.0315  0.2417
   15SAPS    HS 1884   2.092   2.107   6.029  0.4980 -0.6447 -0.8090
   15SAPS   O21 1885   2.017   2.279   6.118  0.0657  0.1953 -0.5205
   15SAPS   C21 1886   1.912   2.215   6.175  0.3315 -0.1217  0.0466
   15SAPS   O22 1887   1.921   2.091   6.197 -0.0673 -0.6665  0.6948
   15SAPS   C22 1888   1.800   2.315   6.181 -0.5929  0.6294 -0.0509
   15SAPS   H2R 1889   1.844   2.414   6.204  2.0218  0.2467 -2.7927
   15SAPS   H2S 1890   1.753   2.313   6.080 -0.9224 -1.8683  0.0912
   15SAPS    C3 1891   2.206   2.134   6.215 -0.2919 -0.5563  0.2594
   15SAPS    HX 1892   2.288   2.083   6.160  1.0284  1.5326  0.1603
   15SAPS    HY 1893   2.160   2.048   6.267  0.4275 -1.7942 -1.0942
   15SAPS   O31 1894   2.269   2.245   6.286  0.3530 -0.0810  0.9144
   15SAPS   C31 1895   2.365   2.210   6.362 -0.0711  0.5615 -0.7650
   15SAPS   O32 1896   2.390   2.095   6.393  0.3449  0.8229 -0.0334
   15SAPS   C32 1897   2.453   2.328   6.393 -0.0019  0.2774  0.5180
   15SAPS   H2X 1898   2.387   2.413   6.422  0.7014  0.8227  0.5598
   15SAPS   H2Y 1899   2.509   2.358   6.301  0.7982 -0.7632  0.6383
   15SAPS   C23 1900   1.691   2.279   6.287  0.6954 -0.0544 -0.5665
   15SAPS   H3R 1901   1.662   2.172   6.279 -1.9943  0.6295 -0.7947
   15SAPS   H3S 1902   1.603   2.334   6.247  0.9758  1.6726  1.0300
   15SAPS   C24 1903   1.725   2.319   6.433 -0.3892 -0.3993 -0.1258
   15SAPS   H4R 1904   1.765   2.422   6.450  1.3774 -1.3019  1.7698
   15SAPS   H4S 1905   1.808   2.254   6.468  0.0845  1.1075  1.7771
   15SAPS   C25 1906   1.614   2.281   6.530 -0.9070 -0.3722 -0.0322
   15SAPS   H5R 1907   1.554   2.194   6.497  0.5680 -1.1423 -0.7755
   15SAPS   C26 1908   1.564   2.355   6.633  0.0346  0.0091  0.4492
   15SAPS   H6R 1909   1.484   2.320   6.700  0.7557 -0.3255  1.1538
   15SAPS   C27 1910   1.611   2.490   6.677 -0.1427 -0.0176  0.4997
   15SAPS   H7R 1911   1.629   2.550   6.585 -1.5806 -0.4905 -0.1233
   15SAPS   H7S 1912   1.714   2.480   6.717 -0.7634  0.1144  2.2096
   15SAPS   C28 1913   1.515   2.565   6.765  0.6835 -0.5356  0.3439
   15SAPS   H8R 1914   1.464   2.656   6.732 -0.8522 -0.6577  2.2461
   15SAPS   C29 1915   1.521   2.557   6.900  0.2781 -0.2498  0.2986
   15SAPS   H9R 1916   1.455   2.621   6.960  2.8725  1.1956  1.8387
   15SAPS  C210 1917   1.606   2.464   6.984 -0.0465 -0.3804 -0.0467
   15SAPS  H10R 1918   1.685   2.414   6.924  0.5935  1.3768 -0.7511
   15SAPS  H10S 1919   1.542   2.394   7.042  0.9391  0.3277  1.9566
   15SAPS  C211 1920   1.695   2.535   7.087  0.4581 -0.7991  0.3716
   15SAPS  H11R 1921   1.772   2.600   7.043  1.5946 -1.2704  1.6126
   15SAPS  C212 1922   1.681   2.523   7.220 -0.1848  0.1570  0.4562
   15SAPS  H12R 1923   1.748   2.584   7.282  1.8578  0.7551 -2.1603
   15SAPS  C213 1924   1.597   2.429   7.302  0.4379  0.5939  0.1756
   15SAPS  H13R 1925   1.629   2.325   7.278  0.6465  0.6939  0.0159
   15SAPS  H13S 1926   1.493   2.426   7.261  0.8674 -1.8816 -0.9184
   15SAPS  C214 1927   1.586   2.456   7.445 -0.3426 -0.9661  0.1395
   15SAPS  H14R 1928   1.503   2.522   7.474 -0.5433 -1.8683  1.7712
   15SAPS  C215 1929   1.668   2.413   7.543 -0.2897 -0.6805  0.1430
   15SAPS  H15R 1930   1.643   2.441   7.646 -0.5662  1.5666 -0.4760
   15SAPS  C216 1931   1.792   2.322   7.542  0.4843  0.5904  0.4278
   15SAPS  H16R 1932   1.883   2.359   7.594  2.2594 -2.4708 -0.2696
   15SAPS  H16S 1933   1.818   2.301   7.436 -2.2286 -2.4018  0.2327
   15SAPS  C217 1934   1.754   2.188   7.609  0.5565 -0.7526 -0.3819
   15SAPS  H17R 1935   1.837   2.116   7.588  2.8995  2.0169 -1.2505
   15SAPS  H17S 1936   1.654   2.158   7.571 -0.8196  2.4000  0.4805
   15SAPS  C218 1937   1.743   2.207   7.758  1.4429 -0.2795  0.2867
   15SAPS  H18R 1938   1.644   2.241   7.792  1.5458 -0.6794  1.0257
   15SAPS  H18S 1939   1.823   2.276   7.793  2.3774 -1.8293  1.3509
   15SAPS  C219 1940   1.780   2.070   7.827  0.5951  0.1159  0.0396
   15SAPS  H19R 1941   1.879   2.040   7.789  0.8444 -0.2718  0.9591
   15SAPS  H19S 1942   1.707   1.989   7.806 -0.1131  0.5278  0.8415
   15SAPS  C220 1943   1.788   2.076   7.978  0.9137 -0.0581  0.2557
   15SAPS  H20R 1944   1.822   1.976   8.012  0.6136 -0.6836 -1.1944
   15SAPS  H20S 1945   1.685   2.077   8.020  0.8754 -1.1763  0.2210
   15SAPS  H20T 1946   1.853   2.160   8.008  0.7732  0.3644 -0.5723
   15SAPS   C33 1947   2.546   2.318   6.509 -0.4745  0.1613  0.1127
   15SAPS   H3X 1948   2.605   2.224   6.514  0.2470  0.5968 -0.1765
   15SAPS   H3Y 1949   2.487   2.304   6.602 -0.3749 -0.5633  0.0748
   15SAPS   C34 1950   2.657   2.418   6.517 -0.2467 -0.0313  0.1511
   15SAPS   H4X 1951   2.610   2.519   6.512 -2.0573 -0.8249  0.1899
   15SAPS   H4Y 1952   2.712   2.406   6.421  0.8289 -2.2828  0.9830
   15SAPS   C35 1953   2.750   2.408   6.640 -0.0486 -0.4983  0.2115
   15SAPS   H5X 1954   2.819   2.327   6.606  0.2479 -0.3146  0.3726
   15SAPS   H5Y 1955   2.691   2.366   6.724 -0.2689  0.3041  0.4626
   15SAPS   C36 1956   2.825   2.535   6.680  0.2170  0.0643  0.4730
   15SAPS   H6X 1957   2.761   2.625   6.676  0.5772  0.2646 -1.4227
   15SAPS   H6Y 1958   2.905   2.533   6.603 -0.5142 -1.3622 -0.2946
   15SAPS   C37 1959   2.883   2.527   6.819 -0.4459  0.1102  0.8143
   15SAPS   H7X 1960   2.964   2.602   6.833 -0.9513  0.9017 -0.3234
   15SAPS   H7Y 1961   2.923   2.429   6.854 -0.4033  0.1176  0.7867
   15SAPS   C38 1962   2.777   2.553   6.926 -0.4209 -0.0200 -0.0841
   15SAPS   H8X 1963   2.680   2.503   6.905 -0.3620  0.0305 -0.4832
   15SAPS   H8Y 1964   2.749   2.661   6.924 -0.4350  0.0800  2.4486
   15SAPS   C39 1965   2.833   2.512   7.063  0.4224 -0.0384 -0.5672
   15SAPS   H9X 1966   2.932   2.564   7.067 -0.2302  1.1771  0.7070
   15SAPS   H9Y 1967   2.849   2.402   7.068  1.0526 -0.1373 -3.2010
   15SAPS  C310 1968   2.727   2.544   7.173 -0.1219 -0.0250  0.1188
   15SAPS  H10X 1969   2.630   2.502   7.141 -0.0535  1.0180 -1.5964
   15SAPS  H10Y 1970   2.728   2.652   7.199  0.4938  0.3084 -1.1998
   15SAPS  C311 1971   2.776   2.483   7.306 -0.3732  0.0322 -0.2323
   15SAPS  H11X 1972   2.866   2.536   7.343 -0.5375  0.5007 -0.4934
   15SAPS  H11Y 1973   2.800   2.381   7.267  0.6055  0.3951 -0.6084
   15SAPS  C312 1974   2.672   2.486   7.421 -0.3048 -0.5441 -0.0162
   15SAPS  H12X 1975   2.722   2.429   7.502 -3.8461 -0.8248  2.1964
   15SAPS  H12Y 1976   2.579   2.443   7.379 -1.0887  1.9220 -1.0069
   15SAPS  C313 1977   2.651   2.630   7.471  0.4639 -0.0098 -0.4791
   15SAPS  H13X 1978   2.622   2.706   7.396 -1.5106  2.0601  2.1582
   15SAPS  H13Y 1979   2.745   2.666   7.519 -0.1377 -0.4887  1.1510
   15SAPS  C314 1980   2.543   2.630   7.576 -0.9516  0.0725 -0.6063
   15SAPS  H14X 1981   2.447   2.589   7.538 -2.3932  1.8333  0.9892
   15SAPS  H14Y 1982   2.519   2.738   7.584  0.8793  0.3783  4.3241
   15SAPS  C315 1983   2.577   2.572   7.713 -0.6408  0.5594  0.4247
   15SAPS  H15X 1984   2.667   2.625   7.752 -0.0676 -0.8223  1.0229
   15SAPS  H15Y 1985   2.617   2.470   7.695 -0.9491  0.4102  0.5778
   15SAPS  C316 1986   2.461   2.578   7.809  0.0517  0.5049 -0.1173
   15SAPS  H16X 1987   2.491   2.516   7.897  1.7926  2.1115  0.4897
   15SAPS  H16Y 1988   2.371   2.545   7.753  2.1933 -3.6264 -1.5852
   15SAPS  C317 1989   2.451   2.719   7.872 -0.1719  0.3457  0.1917
   15SAPS  H17X 1990   2.459   2.807   7.806  1.3406  2.1124  2.5811
   15SAPS  H17Y 1991   2.535   2.729   7.944  1.4537 -1.0384 -1.4176
   15SAPS  C318 1992   2.322   2.744   7.951  0.3275 -0.0908  0.0898
   15SAPS  H18X 1993   2.326   2.840   8.008  1.0113  0.1964 -0.4148
   15SAPS  H18Y 1994   2.308   2.669   8.031  1.2983 -1.2199 -0.7517
   15SAPS  H18Z 1995   2.233   2.747   7.885 -0.8161  1.0917  1.6218
   16SAPS     N 1996   4.248   3.536   5.993  0.1686 -0.3376 -0.8864
   16SAPS   HN1 1997   4.195   3.526   6.082  0.7319 -0.8733 -0.6006
   16SAPS   HN2 1998   4.257   3.437   5.963 -1.6008 -0.8968  0.2841
   16SAPS   HN3 1999   4.344   3.572   6.011  0.9374 -2.1599 -1.1912
   16SAPS   C12 2000   4.185   3.625   5.899 -0.3904 -0.5343 -0.1689
   16SAPS  H12A 2001   4.265   3.639   5.828  0.6462  0.7845  1.2156
   16SAPS   C13 2002   4.054   3.569   5.827  0.1704 -0.2452  0.0423
   16SAPS  O13A 2003   4.015   3.455   5.870  0.5513  0.1632  0.1281
   16SAPS  O13B 2004   3.992   3.632   5.745  0.8430 -0.6723 -0.1018
   16SAPS   C11 2005   4.160   3.767   5.965 -0.1765 -0.3593  0.6993
   16SAPS  H11A 2006   4.070   3.765   6.030 -0.3952 -1.9042  0.3926
   16SAPS  H11B 2007   4.136   3.833   5.879 -0.7547 -0.2371  0.9494
   16SAPS     P 2008   4.305   3.954   6.083 -0.0211 -0.5120 -0.0362
   16SAPS   O13 2009   4.454   3.969   6.070  0.1704 -0.1919  0.0051
   16SAPS   O14 2010   4.222   4.052   6.005  0.3697 -0.0322  0.0437
   16SAPS   O12 2011   4.278   3.808   6.032  0.0233  0.1504  0.1794
   16SAPS   O11 2012   4.257   3.939   6.239  0.3263  0.7158  0.3385
   16SAPS    C1 2013   4.310   3.820   6.295 -0.3693  0.6193 -0.8796
   16SAPS    HA 2014   4.230   3.744   6.295  1.2646 -1.1792 -0.2638
   16SAPS    HB 2015   4.393   3.768   6.243 -0.4353 -0.4684  0.0496
   16SAPS    C2 2016   4.352   3.838   6.444 -0.2340  0.0258 -0.1296
   16SAPS    HS 2017   4.397   3.745   6.485 -0.6978  0.2885  1.0097
   16SAPS   O21 2018   4.239   3.886   6.522  0.0803 -0.0341 -0.4361
   16SAPS   C21 2019   4.150   3.794   6.546 -0.2604  0.2708  0.8827
   16SAPS   O22 2020   4.160   3.672   6.520 -0.5989 -0.2878 -0.0895
   16SAPS   C22 2021   4.052   3.849   6.649 -0.2924  0.4593 -0.3143
   16SAPS   H2R 2022   4.108   3.885   6.739  2.9147 -2.0455 -1.1463
   16SAPS   H2S 2023   4.005   3.939   6.603  0.8274  0.6825 -1.0640
   16SAPS    C3 2024   4.459   3.952   6.460 -0.3069 -0.5469  0.1875
   16SAPS    HX 2025   4.419   4.047   6.419 -0.7331  0.1491  2.1389
   16SAPS    HY 2026   4.549   3.941   6.395  0.5365  2.6907  0.6452
   16SAPS   O31 2027   4.482   3.974   6.603  0.0816 -0.9510 -0.0507
   16SAPS   C31 2028   4.577   3.898   6.644  0.2732  0.2748 -0.3411
   16SAPS   O32 2029   4.647   3.822   6.574  0.3912  0.2035  0.3783
   16SAPS   C32 2030   4.602   3.926   6.782 -0.1725 -0.9033 -0.0836
   16SAPS   H2X 2031   4.602   3.836   6.848  0.4298 -0.8508  0.0027
   16SAPS   H2Y 2032   4.524   3.994   6.822  0.0605 -0.2706 -0.6883
   16SAPS   C23 2033   3.942   3.751   6.701  0.0527 -0.0489  0.0902
   16SAPS   H3R 2034   3.990   3.669   6.758 -0.1094 -1.0399 -1.1637
   16SAPS   H3S 2035   3.883   3.700   6.622  0.8074  0.0173 -0.5285
   16SAPS   C24 2036   3.842   3.829   6.791  0.6391  0.8909  0.7750
   16SAPS   H4R 2037   3.776   3.749   6.830  0.0942  0.6387 -0.6175
   16SAPS   H4S 2038   3.788   3.903   6.728  0.6045 -0.0076 -0.2784
   16SAPS   C25 2039   3.906   3.903   6.911  0.1226  0.6943  0.4145
   16SAPS   H5R 2040   3.954   3.994   6.874 -1.3151  1.3164  0.0129
   16SAPS   C26 2041   3.906   3.860   7.041 -0.1401  0.1107  0.0803
   16SAPS   H6R 2042   3.970   3.916   7.110  0.0489 -0.3011  0.2432
   16SAPS   C27 2043   3.835   3.731   7.086  0.6742 -0.6842 -0.1189
   16SAPS   H7R 2044   3.877   3.641   7.036  0.9882  0.1310 -1.3630
   16SAPS   H7S 2045   3.732   3.746   7.046  0.7865  0.9870  0.1869
   16SAPS   C28 2046   3.834   3.713   7.240  0.4516 -0.7694 -0.2754
   16SAPS   H8R 2047   3.786   3.792   7.299  1.9030  1.9581 -2.5104
   16SAPS   C29 2048   3.903   3.617   7.306  0.3014 -0.2433 -0.1941
   16SAPS   H9R 2049   3.889   3.624   7.415 -0.5128  0.2620 -0.3207
   16SAPS  C210 2050   4.007   3.522   7.257  0.3762 -0.4810 -0.9168
   16SAPS  H10R 2051   4.061   3.576   7.177 -0.6569  1.1513 -0.5655
   16SAPS  H10S 2052   3.950   3.440   7.207 -0.9420  0.7099 -1.4681
   16SAPS  C211 2053   4.116   3.471   7.350  0.2111  0.6679  0.8458
   16SAPS  H11R 2054   4.215   3.507   7.319 -0.9134  2.6459 -0.7207
   16SAPS  C212 2055   4.106   3.412   7.472 -0.0227 -0.2593  0.2636
   16SAPS  H12R 2056   4.200   3.384   7.521  0.0489 -1.4846 -0.5320
   16SAPS  C213 2057   3.984   3.389   7.551 -0.0483 -0.1684 -0.5648
   16SAPS  H13R 2058   3.976   3.284   7.587  0.5505  0.1583  0.5738
   16SAPS  H13S 2059   3.893   3.413   7.492  0.2171  0.5152 -0.7005
   16SAPS  C214 2060   3.979   3.478   7.673  0.3320  0.2664 -0.2282
   16SAPS  H14R 2061   4.026   3.576   7.654  2.0733 -0.4902 -0.0268
   16SAPS  C215 2062   3.918   3.461   7.792 -0.7863 -0.3213 -0.2922
   16SAPS  H15R 2063   3.923   3.535   7.873  0.7307 -0.5977 -0.1186
   16SAPS  C216 2064   3.831   3.343   7.824  0.4094 -0.2686 -0.1961
   16SAPS  H16R 2065   3.851   3.260   7.753 -2.4360  0.2152 -1.7289
   16SAPS  H16S 2066   3.723   3.369   7.814  0.2582 -0.5780  0.5956
   16SAPS  C217 2067   3.864   3.274   7.956 -0.0156  1.2070  0.3123
   16SAPS  H17R 2068   3.837   3.344   8.039 -2.2488  3.0047 -1.7771
   16SAPS  H17S 2069   3.974   3.256   7.952 -0.5662 -2.8757 -2.2000
   16SAPS  C218 2070   3.786   3.139   7.979  0.1932 -0.2360 -0.8866
   16SAPS  H18R 2071   3.831   3.059   7.915 -1.1181 -1.8050  0.0566
   16SAPS  H18S 2072   3.679   3.148   7.952  0.2075 -0.3534 -0.9869
   16SAPS  C219 2073   3.804   3.104   8.132 -0.5732  0.1902  0.0263
   16SAPS  H19R 2074   3.910   3.107   8.163 -0.0113 -0.5533 -1.7487
   16SAPS  H19S 2075   3.767   2.999   8.140  0.3742 -0.3067 -1.7183
   16SAPS  C220 2076   3.711   3.188   8.224  0.1621 -0.2447  0.2283
   16SAPS  H20R 2077   3.609   3.151   8.197  0.1571  0.2934 -0.4974
   16SAPS  H20S 2078   3.720   3.298   8.216  0.4579 -0.0362  2.6208
   16SAPS  H20T 2079   3.729   3.150   8.327 -0.4363  0.3638  0.5648
   16SAPS   C33 2080   4.744   4.001   6.798 -0.3177  0.5050 -0.7190
   16SAPS   H3X 2081   4.729   4.110   6.781 -1.0652  0.4175 -0.6508
   16SAPS   H3Y 2082   4.816   3.942   6.738  0.3633 -1.6306  1.9955
   16SAPS   C34 2083   4.810   3.990   6.942  0.1484  0.2590  0.0154
   16SAPS   H4X 2084   4.913   4.028   6.924  1.6127 -3.1027  0.3999
   16SAPS   H4Y 2085   4.826   3.882   6.966  0.0931 -0.1486 -1.6141
   16SAPS   C35 2086   4.735   4.070   7.051  0.2871 -0.0450  0.6868
   16SAPS   H5X 2087   4.634   4.026   7.068  0.4899 -1.5941 -1.6232
   16SAPS   H5Y 2088   4.720   4.174   7.014 -1.2591 -0.1163  1.0472
   16SAPS   C36 2089   4.814   4.096   7.178 -0.2197  0.2380  0.4028
   16SAPS   H6X 2090   4.901   4.160   7.154 -0.3125  0.7229  1.3329
   16SAPS   H6Y 2091   4.843   4.000   7.226 -0.8577 -1.0503 -1.6711
   16SAPS   C37 2092   4.728   4.181   7.276  0.0940  0.3385  0.1698
   16SAPS   H7X 2093   4.644   4.124   7.321 -1.4819  1.2129 -1.5278
   16SAPS   H7Y 2094   4.678   4.258   7.213  0.1292  0.3607  0.1689
   16SAPS   C38 2095   4.805   4.246   7.390 -0.0262  0.2224 -0.3087
   16SAPS   H8X 2096   4.727   4.290   7.455  0.9828  1.0919  0.3510
   16SAPS   H8Y 2097   4.869   4.331   7.357  2.2644 -0.7589  1.3418
   16SAPS   C39 2098   4.889   4.148   7.481  0.5537 -0.6178 -0.1698
   16SAPS   H9X 2099   4.976   4.118   7.418  1.0422  2.4100 -1.1202
   16SAPS   H9Y 2100   4.826   4.063   7.513 -0.6933  0.4801  0.3724
   16SAPS  C310 2101   4.932   4.215   7.607 -0.2029  0.3164  0.4785
   16SAPS  H10X 2102   4.935   4.326   7.608  0.5110  0.3502 -1.3663
   16SAPS  H10Y 2103   5.032   4.173   7.627  1.1503  2.7506 -0.7274
   16SAPS  C311 2104   4.847   4.180   7.736  0.4954  0.9869 -0.2504
   16SAPS  H11X 2105   4.874   4.077   7.765 -1.5776  0.7157  0.9278
   16SAPS  H11Y 2106   4.739   4.178   7.709  0.2829 -1.3565  0.5533
   16SAPS  C312 2107   4.890   4.262   7.852  1.1380 -0.1006  0.5313
   16SAPS  H12X 2108   4.844   4.213   7.942  1.6988 -0.3463  0.6899
   16SAPS  H12Y 2109   4.858   4.367   7.839 -1.0902 -0.7449  0.3026
   16SAPS  C313 2110   5.042   4.269   7.876 -0.2588 -0.1720  0.0434
   16SAPS  H13X 2111   5.088   4.341   7.806  1.1027 -2.8009 -1.9755
   16SAPS  H13Y 2112   5.079   4.168   7.848  0.2048  0.4432 -1.6588
   16SAPS  C314 2113   5.076   4.298   8.024 -0.0166  0.7173 -0.8261
   16SAPS  H14X 2114   5.187   4.300   8.039 -0.2199  1.0949  0.8614
   16SAPS  H14Y 2115   5.032   4.233   8.102  0.3536  0.4054 -0.8690
   16SAPS  C315 2116   5.035   4.439   8.073  0.3459  0.2386 -0.1900
   16SAPS  H15X 2117   5.068   4.445   8.179  0.5839 -0.8245 -0.1922
   16SAPS  H15Y 2118   4.926   4.450   8.057  0.4512 -2.5852 -4.7427
   16SAPS  C316 2119   5.112   4.547   7.993 -0.2034  0.8659 -0.3402
   16SAPS  H16X 2120   5.068   4.540   7.892  1.5116  0.7756 -1.1220
   16SAPS  H16Y 2121   5.218   4.516   7.981 -0.6155 -1.0496  0.5436
   16SAPS  C317 2122   5.103   4.675   8.064 -0.5448 -0.2705 -0.0906
   16SAPS  H17X 2123   5.160   4.760   8.022  0.3900 -1.5607 -1.5319
   16SAPS  H17Y 2124   5.151   4.662   8.164 -0.3465 -3.6386 -0.4960
   16SAPS  C318 2125   4.957   4.711   8.092 -0.1916 -0.1221 -0.4280
   16SAPS  H18X 2126   4.900   4.710   7.997  1.1418  2.9210 -1.3724
   16SAPS  H18Y 2127   4.955   4.814   8.135 -3.0236  1.6096 -4.1905
   16SAPS  H18Z 2128   4.912   4.641   8.166  0.6464 -0.2487 -0.0221
   17SAPC     N 2129   2.421   1.256  10.472 -0.2521  0.1265 -0.5917
   17SAPC   C12 2130   2.291   1.196  10.416  0.0278  0.7198 -0.6233
   17SAPC  H12A 2131   2.217   1.274  10.423  0.0157  0.6132  0.7194
   17SAPC  H12B 2132   2.248   1.122  10.482  0.6754 -0.4022 -1.4141
   17SAPC   C13 2133   2.540   1.172  10.455 -0.2839  0.1030  0.0114
   17SAPC  H13A 2134   2.631   1.210  10.500 -0.4181  1.0483 -0.4996
   17SAPC  H13B 2135   2.526   1.074  10.497 -0.7499  0.7164  1.3498
   17SAPC  H13C 2136   2.558   1.155  10.350  0.5434 -0.7382  0.2843
   17SAPC   C14 2137   2.431   1.386  10.401 -0.7333  0.0238  0.2077
   17SAPC  H14A 2138   2.462   1.375  10.298 -0.4472  1.7660  0.0675
   17SAPC  H14B 2139   2.334   1.433  10.392 -0.8395 -0.0004  1.1246
   17SAPC  H14C 2140   2.500   1.451  10.453  0.1310  0.6441 -1.6165
   17SAPC   C15 2141   2.397   1.291  10.617 -0.3482  0.4375 -0.8529
   17SAPC  H15A 2142   2.323   1.370  10.624  0.9444  2.0301 -3.6870
   17SAPC  H15B 2143   2.370   1.209  10.682 -0.2100  1.9912  1.2777
   17SAPC  H15C 2144   2.477   1.331  10.678 -2.2703 -0.7255  2.7427
   17SAPC   C11 2145   2.293   1.148  10.265 -0.2257  0.0311  0.1830
   17SAPC  H11A 2146   2.344   1.224  10.202 -0.7701 -1.1889 -1.7919
   17SAPC  H11B 2147   2.188   1.145  10.230 -0.1325  1.7133 -0.3162
   17SAPC     P 2148   2.290   0.886  10.322 -0.0487 -0.4988 -0.2535
   17SAPC   O13 2149   2.291   0.789  10.211 -0.3575 -0.2233 -0.0900
   17SAPC   O14 2150   2.360   0.844  10.444 -0.7067 -0.4455  0.3419
   17SAPC   O12 2151   2.359   1.018  10.261  0.2111 -0.3577 -0.2526
   17SAPC   O11 2152   2.148   0.928  10.361 -0.0146  0.4996 -0.2044
   17SAPC    C1 2153   2.031   0.845  10.369  0.2817 -0.3819  0.2966
   17SAPC    HA 2154   2.059   0.738  10.375 -2.1194 -1.2729 -2.0257
   17SAPC    HB 2155   1.976   0.858  10.464 -0.7683 -1.7028 -0.0920
   17SAPC    C2 2156   1.935   0.882  10.248  0.0694 -0.3125  0.8841
   17SAPC    HS 2157   1.840   0.824  10.249 -0.4067  0.4625  1.1495
   17SAPC   O21 2158   2.014   0.858  10.122  0.0921 -0.1454  0.1156
   17SAPC   C21 2159   2.023   0.734  10.096 -0.5063  0.2334 -0.3333
   17SAPC   O22 2160   1.971   0.641  10.157 -0.1966 -0.2485 -0.0942
   17SAPC   C22 2161   2.102   0.707   9.967 -0.1047 -0.7747 -0.2112
   17SAPC   H2R 2162   2.150   0.806   9.953 -0.8501 -0.6156 -1.8046
   17SAPC   H2S 2163   2.175   0.625   9.987 -0.6014 -1.6713 -1.8807
   17SAPC    C3 2164   1.897   1.038  10.249  0.7421 -0.1284  0.1822
   17SAPC    HX 2165   1.987   1.100  10.228  0.6921 -0.7552 -2.2099
   17SAPC    HY 2166   1.856   1.074  10.346  0.2626 -1.8042  0.6245
   17SAPC   O31 2167   1.809   1.065  10.141  0.3198 -0.5348  0.1277
   17SAPC   C31 2168   1.684   1.027  10.154  0.2504 -0.1666 -0.6729
   17SAPC   O32 2169   1.634   1.013  10.268  0.0422  0.0418  0.3427
   17SAPC   C32 2170   1.614   1.007  10.017  0.0817 -0.2167 -0.3317
   17SAPC   H2X 2171   1.688   1.021   9.936 -0.7760  3.2227 -0.6693
   17SAPC   H2Y 2172   1.554   1.100  10.016  1.9787  1.0752  0.6806
   17SAPC   C23 2173   2.012   0.668   9.848  0.2585  0.1930 -0.1737
   17SAPC   H3R 2174   1.952   0.578   9.872 -3.1253  2.0883 -0.8066
   17SAPC   H3S 2175   2.085   0.658   9.765 -0.2704 -0.1188 -0.6044
   17SAPC   C24 2176   1.902   0.770   9.805 -0.4370  0.1414 -0.0222
   17SAPC   H4R 2177   1.946   0.870   9.790 -0.5234  0.4154  1.4262
   17SAPC   H4S 2178   1.834   0.783   9.892 -2.5045 -0.4349 -1.4840
   17SAPC   C25 2179   1.820   0.712   9.689 -0.6184  0.0058 -0.0682
   17SAPC   H5R 2180   1.766   0.618   9.709 -1.8833  0.2227 -2.2421
   17SAPC   C26 2181   1.814   0.756   9.563  0.1078  0.3600  0.1464
   17SAPC   H6R 2182   1.754   0.698   9.491 -0.0471 -0.2661  0.7662
   17SAPC   C27 2183   1.872   0.875   9.502  0.5711 -0.5710  0.0367
   17SAPC   H7R 2184   1.880   0.847   9.395  1.0269 -1.0262  0.1839
   17SAPC   H7S 2185   1.970   0.902   9.548 -0.2547 -1.3038  2.3598
   17SAPC   C28 2186   1.791   1.004   9.513  0.5944 -0.2898  0.9464
   17SAPC   H8R 2187   1.759   1.037   9.613 -1.7886 -0.3379  0.2574
   17SAPC   C29 2188   1.749   1.083   9.406  1.0999 -0.3164 -0.3440
   17SAPC   H9R 2189   1.683   1.166   9.434  0.5001 -0.4948 -1.1928
   17SAPC  C210 2190   1.780   1.066   9.260  0.8621  0.7706 -0.5383
   17SAPC  H10R 2191   1.686   1.081   9.203 -0.0062 -1.6487  0.1214
   17SAPC  H10S 2192   1.791   0.957   9.241  1.4576  0.8090 -0.4310
   17SAPC  C211 2193   1.899   1.149   9.203  0.3632  0.4122  0.1545
   17SAPC  H11R 2194   1.996   1.126   9.248  1.0546  2.7036 -0.0365
   17SAPC  C212 2195   1.904   1.252   9.121  0.3174  0.5481 -0.1291
   17SAPC  H12R 2196   2.006   1.293   9.107  0.2972  0.4713 -0.5325
   17SAPC  C213 2197   1.792   1.329   9.057  0.0790  0.1705  0.0505
   17SAPC  H13R 2198   1.698   1.297   9.108 -0.4520 -1.8478 -2.0543
   17SAPC  H13S 2199   1.793   1.315   8.947  2.2457 -0.5213  0.1068
   17SAPC  C214 2200   1.810   1.479   9.090  0.5343 -0.0555  0.6889
   17SAPC  H14R 2201   1.885   1.499   9.167  1.4056 -2.2681  0.4873
   17SAPC  C215 2202   1.765   1.585   9.009 -0.2173  0.5346 -0.3918
   17SAPC  H15R 2203   1.776   1.690   9.039 -1.8637  2.1164 -4.5880
   17SAPC  C216 2204   1.673   1.557   8.890 -0.1515 -0.4828 -0.1696
   17SAPC  H16R 2205   1.593   1.634   8.892  0.4096  0.1151  1.9436
   17SAPC  H16S 2206   1.636   1.453   8.889  0.9842 -0.8968 -1.6155
   17SAPC  C217 2207   1.750   1.564   8.764  0.2714  0.3333  0.5097
   17SAPC  H17R 2208   1.686   1.527   8.682  2.3864  1.5703 -1.8611
   17SAPC  H17S 2209   1.819   1.477   8.764 -1.0687 -0.7515  0.2324
   17SAPC  C218 2210   1.824   1.688   8.740 -0.1490 -0.0971  0.4740
   17SAPC  H18R 2211   1.895   1.717   8.820  0.2864 -1.8298  0.7472
   17SAPC  H18S 2212   1.754   1.773   8.754  2.1174  1.5835  2.5440
   17SAPC  C219 2213   1.895   1.698   8.603  0.3060  0.1121 -0.2431
   17SAPC  H19R 2214   1.822   1.696   8.520 -0.8635 -1.2392  0.7610
   17SAPC  H19S 2215   1.954   1.604   8.604  1.0654  0.5777  0.2381
   17SAPC  C220 2216   1.999   1.810   8.589  0.7419  0.4398  0.4973
   17SAPC  H20R 2217   1.947   1.903   8.556 -0.8749 -0.6225 -0.0718
   17SAPC  H20S 2218   2.079   1.781   8.517  0.5389  1.7577 -0.3006
   17SAPC  H20T 2219   2.046   1.826   8.688 -0.2914  1.1578  0.8917
   17SAPC   C33 2220   1.519   0.878  10.008  0.5637 -0.1145  0.1867
   17SAPC   H3X 2221   1.478   0.865  10.111  0.0250  1.0609  0.1425
   17SAPC   H3Y 2222   1.576   0.785   9.987  2.1166  0.4607  1.6211
   17SAPC   C34 2223   1.418   0.889   9.888  0.1748  0.3010  0.0304
   17SAPC   H4X 2224   1.345   0.971   9.907 -2.3959 -1.7433 -0.3522
   17SAPC   H4Y 2225   1.364   0.793   9.876 -2.0487  1.5913 -0.8932
   17SAPC   C35 2226   1.483   0.922   9.752 -0.4187 -0.1286  0.4460
   17SAPC   H5X 2227   1.571   0.856   9.734 -1.9350 -1.5475 -2.6582
   17SAPC   H5Y 2228   1.515   1.028   9.753 -0.7477 -0.0301  0.9903
   17SAPC   C36 2229   1.392   0.882   9.628 -0.0548 -0.5313  0.1228
   17SAPC   H6X 2230   1.294   0.936   9.633 -1.0204 -2.0812 -1.1314
   17SAPC   H6Y 2231   1.354   0.780   9.646  1.9183 -0.9504  2.3135
   17SAPC   C37 2232   1.464   0.912   9.497  0.0398 -0.2099  0.8335
   17SAPC   H7X 2233   1.545   0.841   9.469 -0.8917  0.1994 -3.6025
   17SAPC   H7Y 2234   1.506   1.014   9.510 -2.4505  1.1623 -1.0756
   17SAPC   C38 2235   1.371   0.897   9.379  0.4338 -0.4410  0.1921
   17SAPC   H8X 2236   1.281   0.961   9.390  0.7976  0.1690 -0.2690
   17SAPC   H8Y 2237   1.332   0.794   9.372 -0.3515 -0.2080  1.0180
   17SAPC   C39 2238   1.441   0.927   9.248 -0.2340 -0.0396 -0.9374
   17SAPC   H9X 2239   1.523   0.858   9.218 -1.1790 -0.6133 -2.2992
   17SAPC   H9Y 2240   1.485   1.028   9.259 -1.9339  0.6719 -0.3166
   17SAPC  C310 2241   1.342   0.931   9.127 -0.7090 -0.1667 -1.5238
   17SAPC  H10X 2242   1.252   0.993   9.146 -0.4448 -0.7516  2.3728
   17SAPC  H10Y 2243   1.299   0.830   9.106 -1.5375 -0.2240  0.2769
   17SAPC  C311 2244   1.402   0.982   9.000  0.3176  0.4769 -0.1046
   17SAPC  H11X 2245   1.456   0.896   8.955 -0.7914 -0.6758  0.6975
   17SAPC  H11Y 2246   1.470   1.065   9.029  1.0135 -0.1165 -0.0397
   17SAPC  C312 2247   1.287   1.019   8.902  0.3151 -0.2373 -0.2577
   17SAPC  H12X 2248   1.227   1.106   8.937 -1.4523 -0.8393 -1.6171
   17SAPC  H12Y 2249   1.212   0.937   8.895 -0.1141  0.2522 -1.9011
   17SAPC  C313 2250   1.332   1.048   8.765 -0.5966  0.3123  0.3255
   17SAPC  H13X 2251   1.406   1.131   8.763 -0.3008  0.0368 -0.9554
   17SAPC  H13Y 2252   1.244   1.088   8.709 -0.3531  0.2320 -0.1142
   17SAPC  C314 2253   1.389   0.922   8.696  0.0767  0.2182 -0.1336
   17SAPC  H14X 2254   1.300   0.855   8.693 -0.4678  0.9649 -1.0802
   17SAPC  H14Y 2255   1.473   0.867   8.744 -0.1510  0.2790  0.3387
   17SAPC  C315 2256   1.425   0.958   8.555  0.7360  0.9028  0.4320
   17SAPC  H15X 2257   1.354   1.031   8.510  0.7894 -0.1520 -1.5005
   17SAPC  H15Y 2258   1.414   0.869   8.489 -0.1550  1.4075 -0.1362
   17SAPC  C316 2259   1.567   1.011   8.544 -0.1825  0.1556  0.0846
   17SAPC  H16X 2260   1.598   0.977   8.443  2.7377  0.6376  0.7370
   17SAPC  H16Y 2261   1.641   0.964   8.612  1.6103  0.3762 -1.6093
   17SAPC  C317 2262   1.594   1.159   8.564 -0.7660 -0.0870  0.0603
   17SAPC  H17X 2263   1.564   1.195   8.665  1.0465 -1.2749  1.0912
   17SAPC  H17Y 2264   1.528   1.221   8.501 -2.6197  0.6595  2.5593
   17SAPC  C318 2265   1.743   1.200   8.545 -0.4897 -0.2875 -0.0430
   17SAPC  H18X 2266   1.798   1.144   8.624 -0.9369 -1.9061 -0.8371
   17SAPC  H18Y 2267   1.787   1.171   8.447 -2.2650  0.3458 -1.0654
   17SAPC  H18Z 2268   1.756   1.309   8.563  0.9340 -0.1670 -1.5380
   18SAPC     N 2269   3.074   6.283  10.948 -0.4636 -0.3464 -0.3547
   18SAPC   C12 2270   3.100   6.275  10.797  0.0470 -0.0729  0.1320
   18SAPC  H12A 2271   3.170   6.197  10.771  0.7467  0.1315  1.3358
   18SAPC  H12B 2272   3.143   6.372  10.773 -0.0985 -0.2679 -0.9993
   18SAPC   C13 2273   3.031   6.150  10.994 -0.0547  0.3611  0.3806
   18SAPC  H13A 2274   3.108   6.074  10.991 -1.5737 -1.2212 -0.9589
   18SAPC  H13B 2275   2.990   6.157  11.093 -3.6390 -1.7655 -0.7842
   18SAPC  H13C 2276   2.943   6.118  10.940  0.9354 -1.5320 -0.1658
   18SAPC   C14 2277   3.200   6.312  11.019 -0.6865  0.7224 -0.0744
   18SAPC  H14A 2278   3.285   6.263  10.974 -0.8144 -0.1143  0.5832
   18SAPC  H14B 2279   3.217   6.419  11.025  0.2687  0.6915 -1.5440
   18SAPC  H14C 2280   3.198   6.285  11.123  3.2705  0.2385  0.0279
   18SAPC   C15 2281   2.973   6.384  10.982 -0.5190  0.4242  0.1836
   18SAPC  H15A 2282   2.952   6.366  11.086  2.2920 -1.4621  0.5529
   18SAPC  H15B 2283   3.010   6.484  10.965 -1.6928  1.0651  1.2178
   18SAPC  H15C 2284   2.886   6.362  10.923 -0.0423  1.4972 -0.9663
   18SAPC   C11 2285   2.978   6.263  10.694 -0.2284  0.6519 -0.0388
   18SAPC  H11A 2286   2.921   6.172  10.723  0.5164  0.2488  0.1864
   18SAPC  H11B 2287   3.011   6.233  10.592  0.2534 -0.7101  0.4884
   18SAPC     P 2288   2.757   6.403  10.678  0.1003 -0.1508  0.0342
   18SAPC   O13 2289   2.692   6.300  10.765 -0.1773  0.0119 -0.3781
   18SAPC   O14 2290   2.722   6.546  10.710 -0.0516 -0.5742  0.2423
   18SAPC   O12 2291   2.912   6.384  10.697 -0.7403 -0.5146 -0.4772
   18SAPC   O11 2292   2.732   6.362  10.530 -0.9061 -0.0248 -0.6503
   18SAPC    C1 2293   2.795   6.437  10.426  0.0204  0.0243  0.7542
   18SAPC    HA 2294   2.790   6.547  10.444 -0.1859  0.0193  0.7260
   18SAPC    HB 2295   2.899   6.404  10.405 -0.0935 -0.7917  1.4324
   18SAPC    C2 2296   2.729   6.418  10.279  0.6869  0.2434 -0.4581
   18SAPC    HS 2297   2.649   6.493  10.261  1.1379  0.2987 -2.4905
   18SAPC   O21 2298   2.678   6.287  10.256 -0.0493 -0.3373  0.1392
   18SAPC   C21 2299   2.552   6.261  10.281  0.3506 -0.1067  0.0629
   18SAPC   O22 2300   2.472   6.344  10.328  0.0370 -0.3236  0.5021
   18SAPC   C22 2301   2.523   6.111  10.245 -0.4047 -0.5628  0.2254
   18SAPC   H2R 2302   2.549   6.050  10.334 -0.5903  2.7329  2.7651
   18SAPC   H2S 2303   2.417   6.103  10.214 -0.5854  2.3878 -0.2503
   18SAPC    C3 2304   2.826   6.449  10.158 -0.5823 -0.0591  0.0326
   18SAPC    HX 2305   2.917   6.385  10.166 -0.1586  0.6761  1.5775
   18SAPC    HY 2306   2.862   6.553  10.178  0.9305 -0.3466 -0.9745
   18SAPC   O31 2307   2.768   6.438  10.026 -0.6405 -0.4223 -0.5792
   18SAPC   C31 2308   2.830   6.489   9.926 -0.2197 -0.0716 -0.4585
   18SAPC   O32 2309   2.939   6.549   9.936  0.4439  0.0332 -0.4763
   18SAPC   C32 2310   2.762   6.463   9.802 -0.4237  0.6377  0.1363
   18SAPC   H2X 2311   2.660   6.506   9.811 -0.2873  1.1627 -0.6600
   18SAPC   H2Y 2312   2.747   6.353   9.803  1.5950  0.3093 -0.1956
   18SAPC   C23 2313   2.614   6.048  10.136 -0.2915 -0.7220 -0.8243
   18SAPC   H3R 2314   2.575   5.944  10.129  1.4778 -1.6046  1.3701
   18SAPC   H3S 2315   2.715   6.028  10.177 -0.1111  0.3039 -0.7360
   18SAPC   C24 2316   2.601   6.125  10.007 -0.8700 -0.3249 -0.2151
   18SAPC   H4R 2317   2.682   6.097   9.936 -2.0345  1.9503 -2.6276
   18SAPC   H4S 2318   2.632   6.231  10.019  0.4186 -0.7350  0.1723
   18SAPC   C25 2319   2.470   6.117   9.938  0.9791 -0.0618  0.0669
   18SAPC   H5R 2320   2.409   6.207   9.956  0.8900  0.7793 -3.6597
   18SAPC   C26 2321   2.434   6.010   9.862  0.1433 -0.3783  0.8847
   18SAPC   H6R 2322   2.338   6.011   9.807  1.0430 -3.0112 -0.9684
   18SAPC   C27 2323   2.510   5.883   9.848 -0.8429  0.1350 -0.2817
   18SAPC   H7R 2324   2.465   5.793   9.895 -0.1415 -0.0557  0.0461
   18SAPC   H7S 2325   2.602   5.873   9.909 -2.8576 -4.0801  2.5353
   18SAPC   C28 2326   2.542   5.872   9.696  0.1620 -0.1973 -0.8078
   18SAPC   H8R 2327   2.589   5.957   9.645  5.4372 -1.8280  0.7880
   18SAPC   C29 2328   2.521   5.764   9.623 -0.2099  0.7253  0.5001
   18SAPC   H9R 2329   2.565   5.766   9.522 -0.9152 -1.5373  0.0911
   18SAPC  C210 2330   2.468   5.633   9.659 -0.1292  0.6518  0.5341
   18SAPC  H10R 2331   2.377   5.626   9.596  0.9705 -0.9184 -0.9561
   18SAPC  H10S 2332   2.430   5.624   9.763  1.4391  0.9933  1.1680
   18SAPC  C211 2333   2.570   5.526   9.629 -0.3659 -0.3840  0.5414
   18SAPC  H11R 2334   2.584   5.498   9.524  2.2607 -0.6250  0.8901
   18SAPC  C212 2335   2.609   5.432   9.721  0.1114 -0.7467 -0.8403
   18SAPC  H12R 2336   2.685   5.362   9.683  0.0222 -0.9040 -0.7304
   18SAPC  C213 2337   2.561   5.424   9.865  0.2534  0.3210  0.2626
   18SAPC  H13R 2338   2.458   5.381   9.865 -0.1905  1.1053 -2.7788
   18SAPC  H13S 2339   2.541   5.524   9.908 -1.5446  0.1205 -0.0105
   18SAPC  C214 2340   2.653   5.356   9.964 -0.7742 -0.1008 -0.0016
   18SAPC  H14R 2341   2.735   5.416  10.007  0.0085  0.0948 -1.6782
   18SAPC  C215 2342   2.685   5.226   9.965 -0.6236 -0.1569 -0.0309
   18SAPC  H15R 2343   2.759   5.183  10.033  1.1268 -1.2913 -2.5090
   18SAPC  C216 2344   2.612   5.120   9.882 -0.6452  0.5699  0.3326
   18SAPC  H16R 2345   2.525   5.162   9.827 -0.1989 -1.3579 -1.9803
   18SAPC  H16S 2346   2.565   5.059   9.962 -2.0850  2.4664  1.0086
   18SAPC  C217 2347   2.704   5.043   9.780 -0.5863 -0.5653 -0.6089
   18SAPC  H17R 2348   2.799   5.020   9.833  0.0815  2.4088 -0.3415
   18SAPC  H17S 2349   2.749   5.106   9.701  1.2902 -1.6235 -0.4389
   18SAPC  C218 2350   2.637   4.924   9.719  0.4333  0.0718  0.6190
   18SAPC  H18R 2351   2.543   4.967   9.678  0.0742 -0.1966  1.1445
   18SAPC  H18S 2352   2.600   4.853   9.796  1.1404 -0.0398  0.8602
   18SAPC  C219 2353   2.723   4.855   9.615 -0.2239  0.7782  0.0314
   18SAPC  H19R 2354   2.795   4.791   9.671  1.1931  1.6723 -0.7031
   18SAPC  H19S 2355   2.780   4.926   9.551  0.8542  1.5819  1.8020
   18SAPC  C220 2356   2.633   4.768   9.531  0.4946  0.2547  0.0120
   18SAPC  H20R 2357   2.582   4.690   9.591 -0.1565 -0.0746 -0.9547
   18SAPC  H20S 2358   2.701   4.710   9.465  1.6700  1.0726  0.4495
   18SAPC  H20T 2359   2.567   4.840   9.477 -0.0804  0.9271  1.5402
   18SAPC   C33 2360   2.839   6.498   9.669  0.0783 -0.2524 -0.1177
   18SAPC   H3X 2361   2.935   6.442   9.664  0.3685  0.1668  0.6408
   18SAPC   H3Y 2362   2.870   6.605   9.668  3.8819 -1.1873  0.1982
   18SAPC   C34 2363   2.760   6.464   9.538 -0.1117 -0.5078 -1.1437
   18SAPC   H4X 2364   2.668   6.527   9.537  0.9526  1.0913 -1.0640
   18SAPC   H4Y 2365   2.737   6.355   9.543 -0.8008 -0.3215  0.3355
   18SAPC   C35 2366   2.835   6.493   9.410  0.7952  0.6852 -0.1738
   18SAPC   H5X 2367   2.923   6.425   9.405  0.4600  0.0410  1.7657
   18SAPC   H5Y 2368   2.874   6.597   9.411  1.1195  0.5641  0.2837
   18SAPC   C36 2369   2.744   6.484   9.286 -0.4693  0.2534 -0.3752
   18SAPC   H6X 2370   2.674   6.569   9.278 -1.3651 -0.5895 -2.2568
   18SAPC   H6Y 2371   2.696   6.384   9.280  2.7635 -1.4774  0.5264
   18SAPC   C37 2372   2.835   6.484   9.164 -0.0271  0.8434 -0.4805
   18SAPC   H7X 2373   2.898   6.393   9.158 -0.8184 -0.0120  2.6102
   18SAPC   H7Y 2374   2.915   6.562   9.172  0.0771  0.9497 -2.1616
   18SAPC   C38 2375   2.758   6.506   9.035 -0.2244 -0.2135  0.2236
   18SAPC   H8X 2376   2.675   6.576   9.060 -1.7444 -1.1687 -1.8639
   18SAPC   H8Y 2377   2.729   6.410   8.987 -0.3846  0.8290 -1.9026
   18SAPC   C39 2378   2.842   6.578   8.924 -0.0427 -0.4018 -0.6918
   18SAPC   H9X 2379   2.915   6.504   8.885 -0.5445 -1.0774 -0.3459
   18SAPC   H9Y 2380   2.904   6.656   8.974 -0.0148 -2.2572  2.4200
   18SAPC  C310 2381   2.760   6.643   8.813 -0.3681 -0.7867  0.5752
   18SAPC  H10X 2382   2.831   6.663   8.729 -1.1496 -1.0611 -0.1551
   18SAPC  H10Y 2383   2.717   6.737   8.853 -1.1885 -1.7593  2.0439
   18SAPC  C311 2384   2.641   6.558   8.781  0.3696 -0.2573 -0.2357
   18SAPC  H11X 2385   2.577   6.554   8.871  1.8262 -0.1307  0.8322
   18SAPC  H11Y 2386   2.671   6.451   8.775  0.9950 -0.1149  0.2702
   18SAPC  C312 2387   2.556   6.598   8.657 -0.7509  0.0128 -0.2753
   18SAPC  H12X 2388   2.526   6.704   8.671 -1.8790 -0.2996 -0.1795
   18SAPC  H12Y 2389   2.474   6.522   8.656  2.2536 -3.5036  0.5083
   18SAPC  C313 2390   2.620   6.591   8.515  0.4601 -0.4808  0.2317
   18SAPC  H13X 2391   2.659   6.490   8.491 -0.1197 -0.4885 -0.6928
   18SAPC  H13Y 2392   2.708   6.659   8.524  0.1929 -0.3414  2.4355
   18SAPC  C314 2393   2.522   6.639   8.404 -0.3386  0.4254  0.1762
   18SAPC  H14X 2394   2.421   6.594   8.414 -0.9347  1.3702 -1.3172
   18SAPC  H14Y 2395   2.549   6.606   8.301 -2.2851 -0.1041 -0.1972
   18SAPC  C315 2396   2.496   6.788   8.407  0.3270  0.3432  0.1485
   18SAPC  H15X 2397   2.581   6.859   8.416  0.1990  0.4344  0.6687
   18SAPC  H15Y 2398   2.443   6.801   8.503  1.1388 -0.5922  0.7341
   18SAPC  C316 2399   2.399   6.836   8.301  0.1287 -0.3325  0.0584
   18SAPC  H16X 2400   2.317   6.760   8.295  0.1814 -0.4190  0.4400
   18SAPC  H16Y 2401   2.451   6.834   8.203  2.1895  2.5204  0.9863
   18SAPC  C317 2402   2.328   6.966   8.335 -0.4257  0.2649  0.1211
   18SAPC  H17X 2403   2.274   6.962   8.432  2.0604  1.1242  1.6501
   18SAPC  H17Y 2404   2.253   6.983   8.255  0.4994 -0.3702 -0.8985
   18SAPC  C318 2405   2.425   7.080   8.338  0.0765  0.1182  0.0855
   18SAPC  H18X 2406   2.372   7.175   8.359  0.7582  0.8129 -1.1875
   18SAPC  H18Y 2407   2.485   7.088   8.245 -0.4398  1.8782 -0.1333
   18SAPC  H18Z 2408   2.503   7.050   8.412 -1.9129 -2.3393  1.3366
   19SAPC     N 2409   0.299   0.920  10.833 -0.4067 -0.1056  0.2654
   19SAPC   C12 2410   0.171   1.002  10.836 -0.0311  0.2578 -0.3406
   19SAPC  H12A 2411   0.204   1.091  10.888  1.9204  0.0688 -1.1875
   19SAPC  H12B 2412   0.095   0.953  10.895 -1.2644  0.6583 -1.5558
   19SAPC   C13 2413   0.385   0.932  10.960  0.2043  0.1879  0.4058
   19SAPC  H13A 2414   0.382   1.028  11.010  1.0212 -0.0046  0.8461
   19SAPC  H13B 2415   0.333   0.867  11.030 -0.0681 -1.2365 -1.0625
   19SAPC  H13C 2416   0.479   0.884  10.939  0.4461  1.2987 -1.2230
   19SAPC   C14 2417   0.262   0.774  10.824 -0.2476  0.5374  0.6529
   19SAPC  H14A 2418   0.242   0.726  10.919 -0.8929 -2.1448 -0.7225
   19SAPC  H14B 2419   0.166   0.763  10.775 -0.0632 -0.8870  0.5692
   19SAPC  H14C 2420   0.332   0.708  10.773  0.5598  0.0969  2.2571
   19SAPC   C15 2421   0.386   0.962  10.719 -0.1541  0.1536 -1.1074
   19SAPC  H15A 2422   0.326   0.965  10.629  1.1300  1.1487 -1.9670
   19SAPC  H15B 2423   0.445   1.050  10.739  1.6290 -1.2359  0.1008
   19SAPC  H15C 2424   0.461   0.886  10.699 -0.9792 -0.3254 -2.5022
   19SAPC   C11 2425   0.093   1.032  10.708 -0.1119 -0.1198 -0.6113
   19SAPC  H11A 2426   0.167   1.088  10.647  1.1370 -1.9691 -0.9020
   19SAPC  H11B 2427   0.009   1.100  10.731 -0.3279 -0.5258 -0.1878
   19SAPC     P 2428   0.069   0.873  10.499  0.6316 -0.2781  0.2276
   19SAPC   O13 2429   0.203   0.893  10.446  0.1032  0.6041  0.1537
   19SAPC   O14 2430   0.019   0.737  10.494  0.0984  0.7799 -0.0792
   19SAPC   O12 2431   0.048   0.910  10.649 -0.2318  0.4303 -0.1452
   19SAPC   O11 2432  -0.038   0.968  10.430  0.2413  0.6968 -0.2191
   19SAPC    C1 2433  -0.167   0.922  10.396 -0.0791  0.6356 -0.1122
   19SAPC    HA 2434  -0.207   0.872  10.486  0.9136 -0.2866 -0.1739
   19SAPC    HB 2435  -0.230   1.010  10.371  0.2528  1.7875  2.7890
   19SAPC    C2 2436  -0.165   0.828  10.276 -0.7124  1.0826  0.2073
   19SAPC    HS 2437  -0.134   0.724  10.300 -1.5886  0.0579 -2.6558
   19SAPC   O21 2438  -0.085   0.883  10.176 -0.7960 -0.4609  0.2166
   19SAPC   C21 2439  -0.032   0.800  10.092  0.0610  0.0912 -0.4372
   19SAPC   O22 2440  -0.027   0.676  10.099  0.1066 -0.1943 -0.3943
   19SAPC   C22 2441   0.027   0.866   9.961 -0.1602 -0.4394  0.7258
   19SAPC   H2R 2442   0.037   0.973   9.988  0.2785 -0.4925  0.7782
   19SAPC   H2S 2443   0.122   0.818   9.930 -0.1398  0.6519 -1.0259
   19SAPC    C3 2444  -0.308   0.798  10.217  0.4375 -0.1608 -0.4906
   19SAPC    HX 2445  -0.354   0.895  10.188 -1.1584 -0.3713  1.1355
   19SAPC    HY 2446  -0.361   0.748  10.301  1.6892  1.4658  1.3576
   19SAPC   O31 2447  -0.300   0.726  10.097  0.2371 -0.6574 -0.5274
   19SAPC   C31 2448  -0.345   0.600  10.104 -0.4842  0.1735 -0.2506
   19SAPC   O32 2449  -0.370   0.531  10.204 -0.0336 -0.2270  0.5903
   19SAPC   C32 2450  -0.357   0.552   9.960  0.0098  0.6886 -0.0342
   19SAPC   H2X 2451  -0.267   0.568   9.896 -0.8025 -1.4988 -1.8564
   19SAPC   H2Y 2452  -0.442   0.605   9.912 -3.6671 -5.1688 -1.0872
   19SAPC   C23 2453  -0.073   0.869   9.832 -0.0947 -0.0166  0.4307
   19SAPC   H3R 2454  -0.029   0.946   9.766  0.0350 -0.9255 -0.5728
   19SAPC   H3S 2455  -0.177   0.899   9.858  0.0853  1.5692 -0.5641
   19SAPC   C24 2456  -0.071   0.743   9.748  0.1386 -0.0168  0.5046
   19SAPC   H4R 2457  -0.143   0.759   9.665 -1.3136 -0.5717  1.6084
   19SAPC   H4S 2458  -0.109   0.659   9.810 -0.2491  0.0033  0.2966
   19SAPC   C25 2459   0.056   0.704   9.678 -0.1841  0.5290  0.0656
   19SAPC   H5R 2460   0.118   0.641   9.742 -1.2052  1.1191  1.7104
   19SAPC   C26 2461   0.096   0.745   9.561  0.5147  0.9655 -0.0722
   19SAPC   H6R 2462   0.184   0.696   9.518  1.3287  1.5761  0.8636
   19SAPC   C27 2463   0.028   0.848   9.471 -0.0555  0.9044  0.5800
   19SAPC   H7R 2464  -0.071   0.888   9.503 -1.1490 -1.4281  0.3032
   19SAPC   H7S 2465   0.019   0.799   9.372 -1.0154  0.6528  0.7845
   19SAPC   C28 2466   0.130   0.956   9.467  0.3642 -0.0372 -0.2471
   19SAPC   H8R 2467   0.143   0.991   9.571 -0.3647  0.2854 -0.2539
   19SAPC   C29 2468   0.204   1.015   9.373  0.5539 -0.2032 -0.5142
   19SAPC   H9R 2469   0.271   1.099   9.398  1.3714 -0.8980 -0.3055
   19SAPC  C210 2470   0.192   0.967   9.229  0.1241 -0.0481  0.4626
   19SAPC  H10R 2471   0.094   1.007   9.195  0.1487  1.2954  1.8661
   19SAPC  H10S 2472   0.190   0.857   9.217  2.1714  0.1085 -2.3200
   19SAPC  C211 2473   0.314   1.013   9.149  0.3897 -0.4419 -0.6989
   19SAPC  H11R 2474   0.406   1.020   9.210  0.5993  0.2116 -1.0775
   19SAPC  C212 2475   0.302   1.051   9.026 -0.2636 -0.6787  0.1978
   19SAPC  H12R 2476   0.389   1.079   8.965 -0.7453  1.1415  0.2973
   19SAPC  C213 2477   0.177   1.058   8.946  0.7216  0.0583  0.1601
   19SAPC  H13R 2478   0.100   1.106   9.010 -0.5074  0.3020 -1.4418
   19SAPC  H13S 2479   0.151   0.951   8.933  2.6547 -0.5370  0.7813
   19SAPC  C214 2480   0.191   1.122   8.810 -0.1939  0.6344 -0.1488
   19SAPC  H14R 2481   0.206   1.231   8.810 -1.1778  0.8798 -3.2335
   19SAPC  C215 2482   0.231   1.070   8.694 -0.0819  0.1650  0.4643
   19SAPC  H15R 2483   0.220   1.123   8.598 -1.1799 -2.0484 -0.7381
   19SAPC  C216 2484   0.264   0.924   8.653  0.0016 -0.7204 -0.0675
   19SAPC  H16R 2485   0.179   0.853   8.645 -1.0971  0.5404  0.0247
   19SAPC  H16S 2486   0.335   0.879   8.726  1.0286  1.1409  0.1532
   19SAPC  C217 2487   0.340   0.931   8.522  0.0529 -0.6197  0.1862
   19SAPC  H17R 2488   0.436   0.983   8.544 -0.1099  0.1036 -0.7668
   19SAPC  H17S 2489   0.281   0.991   8.449 -1.4136 -0.4440  1.4575
   19SAPC  C218 2490   0.374   0.795   8.457 -0.9035  0.2811  0.3274
   19SAPC  H18R 2491   0.281   0.744   8.422  0.0528 -1.3615  0.0939
   19SAPC  H18S 2492   0.419   0.737   8.540 -0.7193 -0.3516 -0.2030
   19SAPC  C219 2493   0.478   0.810   8.341 -0.1640  0.4482  0.7181
   19SAPC  H19R 2494   0.574   0.847   8.381  0.2090  1.4389 -0.9824
   19SAPC  H19S 2495   0.439   0.877   8.262 -0.9499  0.4309  1.0716
   19SAPC  C220 2496   0.512   0.668   8.287 -0.3813 -0.0192 -0.3617
   19SAPC  H20R 2497   0.427   0.627   8.228 -0.3574  1.0240 -1.1344
   19SAPC  H20S 2498   0.527   0.599   8.373  0.2643 -0.1739 -0.5901
   19SAPC  H20T 2499   0.598   0.667   8.218  2.1850 -0.2699  2.5916
   19SAPC   C33 2500  -0.390   0.402   9.949  0.5179 -1.3667  0.1605
   19SAPC   H3X 2501  -0.483   0.372  10.002  0.2735  0.5887  0.9272
   19SAPC   H3Y 2502  -0.313   0.335   9.991  1.1312 -2.1781 -2.1140
   19SAPC   C34 2503  -0.406   0.368   9.798 -0.0315  0.1954  0.5163
   19SAPC   H4X 2504  -0.333   0.431   9.744 -0.1263  0.8181  1.0991
   19SAPC   H4Y 2505  -0.509   0.399   9.768 -0.6106 -1.9214  0.1447
   19SAPC   C35 2506  -0.401   0.216   9.763 -0.3942 -0.1165  0.1066
   19SAPC   H5X 2507  -0.472   0.152   9.821  0.7178 -0.9288  0.6203
   19SAPC   H5Y 2508  -0.298   0.182   9.789 -0.7130 -0.5870  0.8078
   19SAPC   C36 2509  -0.414   0.186   9.609 -0.3635  0.2099  0.3678
   19SAPC   H6X 2510  -0.379   0.082   9.592  3.6373  1.3551  0.6504
   19SAPC   H6Y 2511  -0.336   0.252   9.565  0.3919 -1.3827 -0.7896
   19SAPC   C37 2512  -0.552   0.220   9.556 -0.1349  0.3345 -0.7179
   19SAPC   H7X 2513  -0.576   0.328   9.564 -0.1457  0.3041 -0.3033
   19SAPC   H7Y 2514  -0.627   0.162   9.614  1.9443 -0.2744  1.5270
   19SAPC   C38 2515  -0.570   0.201   9.405  0.4842  0.5282 -0.2650
   19SAPC   H8X 2516  -0.676   0.204   9.374  0.3774  0.7145  0.1185
   19SAPC   H8Y 2517  -0.545   0.095   9.384 -0.5153  0.2636 -0.1683
   19SAPC   C39 2518  -0.478   0.292   9.317 -0.1107 -0.5307 -0.2370
   19SAPC   H9X 2519  -0.376   0.249   9.324 -0.2583 -0.8124  0.2317
   19SAPC   H9Y 2520  -0.490   0.398   9.346  2.6036 -0.0446 -0.6933
   19SAPC  C310 2521  -0.506   0.285   9.160 -0.1416  0.4976 -0.5459
   19SAPC  H10X 2522  -0.600   0.341   9.146 -0.5051  0.5214  1.5600
   19SAPC  H10Y 2523  -0.508   0.177   9.132  2.3906  0.1079  0.5064
   19SAPC  C311 2524  -0.402   0.355   9.088  0.2739  0.8089  0.3084
   19SAPC  H11X 2525  -0.302   0.306   9.096 -0.0971  0.0772  0.5142
   19SAPC  H11Y 2526  -0.397   0.454   9.138 -0.2855  0.4880  1.0162
   19SAPC  C312 2527  -0.424   0.382   8.935  0.0983  1.1416 -0.2520
   19SAPC  H12X 2528  -0.341   0.432   8.881  1.9705 -1.4555  0.0456
   19SAPC  H12Y 2529  -0.523   0.432   8.928 -0.4071 -0.0099 -2.2626
   19SAPC  C313 2530  -0.430   0.256   8.846 -0.1968  0.5905  0.0042
   19SAPC  H13X 2531  -0.524   0.204   8.873 -0.0138 -0.6806 -1.6236
   19SAPC  H13Y 2532  -0.342   0.189   8.862 -0.8793 -0.3260  0.0248
   19SAPC  C314 2533  -0.446   0.275   8.695  0.3846 -0.8184  0.0940
   19SAPC  H14X 2534  -0.457   0.176   8.646 -1.3087 -1.0261  0.8109
   19SAPC  H14Y 2535  -0.360   0.332   8.654 -1.9092  2.2734 -0.7721
   19SAPC  C315 2536  -0.572   0.351   8.652  0.0869  0.1014  0.1331
   19SAPC  H15X 2537  -0.578   0.457   8.685 -0.4376  0.3729 -0.8143
   19SAPC  H15Y 2538  -0.649   0.294   8.707  1.2186 -0.5863  1.0562
   19SAPC  C316 2539  -0.588   0.360   8.500  0.1594  0.0124  0.0082
   19SAPC  H16X 2540  -0.589   0.261   8.449  2.6181  0.1554 -0.4396
   19SAPC  H16Y 2541  -0.493   0.393   8.454  0.2339 -1.4758 -0.9772
   19SAPC  C317 2542  -0.709   0.444   8.448 -0.0387 -0.0457 -0.2623
   19SAPC  H17X 2543  -0.681   0.549   8.472  1.9558 -0.6035  0.0317
   19SAPC  H17Y 2544  -0.801   0.417   8.504 -0.7143  3.4073  0.4955
   19SAPC  C318 2545  -0.725   0.446   8.299 -0.1036 -0.1120  0.0198
   19SAPC  H18X 2546  -0.740   0.340   8.268 -1.0400  0.1373 -0.4272
   19SAPC  H18Y 2547  -0.636   0.492   8.252 -0.7190  0.6563 -0.4215
   19SAPC  H18Z 2548  -0.815   0.508   8.280  0.2466  0.0506 -1.1881
   20SAPC     N 2549   6.273   5.647  10.921 -0.2042  0.0148  0.5178
   20SAPC   C12 2550   6.374   5.668  10.804  0.0937 -0.4169  0.1907
   20SAPC  H12A 2551   6.458   5.604  10.827  0.0087 -0.5965 -0.0062
   20SAPC  H12B 2552   6.408   5.769  10.823 -0.0830 -0.9590  4.3054
   20SAPC   C13 2553   6.227   5.501  10.930  0.1232 -0.0873  0.4831
   20SAPC  H13A 2554   6.164   5.488  11.017 -0.4502 -0.9825 -0.0499
   20SAPC  H13B 2555   6.158   5.476  10.851  2.1163 -0.1748 -1.3047
   20SAPC  H13C 2556   6.306   5.428  10.926 -0.1583 -0.3304 -2.2385
   20SAPC   C14 2557   6.330   5.689  11.051 -0.3502  0.7029  0.6371
   20SAPC  H14A 2558   6.402   5.769  11.048  2.1339 -1.2904  2.5331
   20SAPC  H14B 2559   6.249   5.712  11.119 -0.8194  2.2322 -0.3721
   20SAPC  H14C 2560   6.380   5.602  11.091 -2.6757 -0.9385  0.2034
   20SAPC   C15 2561   6.158   5.733  10.883 -0.2134 -0.5489 -0.2847
   20SAPC  H15A 2562   6.077   5.714  10.952  0.5675 -1.5723  0.3843
   20SAPC  H15B 2563   6.182   5.836  10.901  2.6462 -1.1750 -0.0344
   20SAPC  H15C 2564   6.120   5.730  10.782 -4.0928 -1.4075  0.9990
   20SAPC   C11 2565   6.330   5.639  10.658 -0.5247 -0.6696  0.6252
   20SAPC  H11A 2566   6.406   5.686  10.593 -1.4819 -0.9110 -0.7120
   20SAPC  H11B 2567   6.231   5.689  10.643 -1.0855 -0.2764  4.4992
   20SAPC     P 2568   6.450   5.414  10.606  0.0651  0.2391  0.1720
   20SAPC   O13 2569   6.559   5.447  10.704 -0.6165  0.0980  0.0924
   20SAPC   O14 2570   6.405   5.269  10.596 -0.9206  0.1258  0.5036
   20SAPC   O12 2571   6.319   5.499  10.623  0.0050 -0.4527  0.0226
   20SAPC   O11 2572   6.494   5.457  10.465 -0.2839 -0.1806 -0.0251
   20SAPC    C1 2573   6.412   5.464  10.350 -0.0298 -0.3809  0.3429
   20SAPC    HA 2574   6.304   5.454  10.377  0.0858  0.0530  0.9956
   20SAPC    HB 2575   6.431   5.557  10.292 -0.6434 -0.7318 -0.4435
   20SAPC    C2 2576   6.438   5.345  10.246  0.5281 -0.2491 -0.1005
   20SAPC    HS 2577   6.397   5.371  10.146  2.4570  1.5197 -0.5050
   20SAPC   O21 2578   6.390   5.216  10.295  0.5270  0.5611 -0.7191
   20SAPC   C21 2579   6.257   5.194  10.275  0.1450 -0.5670 -0.1880
   20SAPC   O22 2580   6.178   5.278  10.229  0.2368  0.5165 -0.2434
   20SAPC   C22 2581   6.242   5.036  10.285  0.5873  0.0415 -0.1568
   20SAPC   H2R 2582   6.343   4.990  10.273  1.3884  1.8493 -0.7473
   20SAPC   H2S 2583   6.205   5.009  10.386 -0.3692 -0.6279 -0.6705
   20SAPC    C3 2584   6.589   5.323  10.215  1.6332 -0.2145 -0.7068
   20SAPC    HX 2585   6.610   5.261  10.304 -0.3519  2.3262  1.7243
   20SAPC    HY 2586   6.645   5.416  10.239  0.5978  0.4240 -0.6739
   20SAPC   O31 2587   6.619   5.257  10.088  0.1996 -0.3014 -0.0707
   20SAPC   C31 2588   6.636   5.124  10.086 -0.3392 -0.5793  0.5631
   20SAPC   O32 2589   6.633   5.049  10.179  0.7495  0.4198  0.4314
   20SAPC   C32 2590   6.665   5.101   9.934 -0.0898  0.3650 -0.0806
   20SAPC   H2X 2591   6.751   5.166   9.909 -0.4364  1.0671  0.5283
   20SAPC   H2Y 2592   6.571   5.126   9.880 -0.2271  1.3262  0.5810
   20SAPC   C23 2593   6.150   4.972  10.186  0.9731 -0.4963 -0.5218
   20SAPC   H3R 2594   6.044   4.985  10.220  0.6411  1.0822 -2.0086
   20SAPC   H3S 2595   6.171   4.863  10.192  2.2681 -0.3719 -2.2410
   20SAPC   C24 2596   6.155   5.010  10.046  0.8582  0.4149  0.7295
   20SAPC   H4R 2597   6.128   5.118  10.045 -0.2658  0.1685  1.9337
   20SAPC   H4S 2598   6.076   4.953   9.993  0.1065  2.8755 -0.9576
   20SAPC   C25 2599   6.285   4.991   9.982 -0.5405  0.0652 -0.1785
   20SAPC   H5R 2600   6.371   5.019  10.044  0.7510  0.2566 -1.9740
   20SAPC   C26 2601   6.312   4.923   9.870  0.5186  0.5425  0.5025
   20SAPC   H6R 2602   6.415   4.895   9.844 -0.5186 -1.3215 -1.9801
   20SAPC   C27 2603   6.212   4.901   9.753  0.1788  1.0449  0.3642
   20SAPC   H7R 2604   6.196   4.994   9.694 -1.2069 -0.9781 -2.7126
   20SAPC   H7S 2605   6.111   4.879   9.795 -0.5846 -0.6374 -2.1128
   20SAPC   C28 2606   6.257   4.794   9.658  0.1461  0.3482 -0.3118
   20SAPC   H8R 2607   6.288   4.697   9.701  0.5346 -0.0070 -1.3635
   20SAPC   C29 2608   6.253   4.778   9.526 -0.1215  0.4113 -0.4853
   20SAPC   H9R 2609   6.294   4.683   9.490  2.0439  1.0653  0.1109
   20SAPC  C210 2610   6.225   4.879   9.423 -0.4302  0.6636 -0.2215
   20SAPC  H10R 2611   6.208   4.977   9.473  0.7738  0.6972  0.1445
   20SAPC  H10S 2612   6.130   4.854   9.372 -0.1524  1.6788 -1.2670
   20SAPC  C211 2613   6.330   4.905   9.322  0.0313  0.1758  0.4893
   20SAPC  H11R 2614   6.424   4.923   9.375 -1.0864  0.5435  2.4354
   20SAPC  C212 2615   6.315   4.909   9.189  0.1782 -0.8823  0.4063
   20SAPC  H12R 2616   6.409   4.914   9.131  1.3893 -0.3575  2.3130
   20SAPC  C213 2617   6.183   4.909   9.114 -0.5470  0.0648 -0.3949
   20SAPC  H13R 2618   6.096   4.942   9.174 -1.8289 -1.2467 -1.4470
   20SAPC  H13S 2619   6.148   4.805   9.095 -0.7423 -0.0681  0.6337
   20SAPC  C214 2620   6.197   5.014   9.007 -0.9572 -0.5488  0.1147
   20SAPC  H14R 2621   6.211   5.118   9.038  1.1912 -0.2604 -1.5977
   20SAPC  C215 2622   6.203   4.979   8.878 -0.0124  0.1895 -0.3368
   20SAPC  H15R 2623   6.226   5.061   8.808 -1.1590 -0.0216 -0.9929
   20SAPC  C216 2624   6.204   4.843   8.823 -0.5565 -0.8509  0.6191
   20SAPC  H16R 2625   6.101   4.810   8.800 -0.1185 -1.0909 -1.1191
   20SAPC  H16S 2626   6.260   4.773   8.889 -0.5201 -0.6554  0.7974
   20SAPC  C217 2627   6.285   4.839   8.693  0.2774  0.6308 -0.1715
   20SAPC  H17R 2628   6.332   4.739   8.684  2.0796  1.5012 -1.2563
   20SAPC  H17S 2629   6.372   4.907   8.710 -0.0075  0.9821 -0.1166
   20SAPC  C218 2630   6.220   4.896   8.566  0.3610 -0.3160 -1.0353
   20SAPC  H18R 2631   6.204   5.002   8.594  0.2788 -0.6220  0.1281
   20SAPC  H18S 2632   6.127   4.842   8.538  0.4472 -0.4386 -1.0859
   20SAPC  C219 2633   6.305   4.898   8.441 -0.3608  0.4022  0.6663
   20SAPC  H19R 2634   6.308   4.794   8.402  0.7413  0.6264  0.1180
   20SAPC  H19S 2635   6.408   4.926   8.471 -0.0150 -1.8706  1.7818
   20SAPC  C220 2636   6.256   4.986   8.325  1.1642 -0.7907  0.9379
   20SAPC  H20R 2637   6.316   4.959   8.236  0.6179 -1.5839  0.8026
   20SAPC  H20S 2638   6.276   5.093   8.349  2.5070 -0.1452 -2.5859
   20SAPC  H20T 2639   6.147   4.969   8.308  1.0122 -1.1249  2.1009
   20SAPC   C33 2640   6.720   4.953   9.903  0.0550  0.6224 -0.4648
   20SAPC   H3X 2641   6.652   4.873   9.939 -0.2718  1.1431  0.0863
   20SAPC   H3Y 2642   6.816   4.937   9.956  0.4024 -1.5231 -1.6537
   20SAPC   C34 2643   6.753   4.928   9.760  0.5990 -0.0861  0.5125
   20SAPC   H4X 2644   6.823   4.843   9.745  0.0189 -0.6014  0.6366
   20SAPC   H4Y 2645   6.793   5.023   9.720 -2.0078  1.0116  0.3531
   20SAPC   C35 2646   6.630   4.898   9.673 -0.2793 -0.4133  0.8521
   20SAPC   H5X 2647   6.571   4.991   9.667  0.2516 -0.0948  0.4783
   20SAPC   H5Y 2648   6.566   4.819   9.717 -1.5825 -1.4421 -2.5954
   20SAPC   C36 2649   6.670   4.836   9.539 -0.3202 -0.6316  0.3599
   20SAPC   H6X 2650   6.574   4.807   9.492 -1.8662  1.9530  1.7162
   20SAPC   H6Y 2651   6.738   4.748   9.549 -1.5662 -1.8662 -1.3379
   20SAPC   C37 2652   6.754   4.926   9.446 -0.2299 -0.4989  0.5650
   20SAPC   H7X 2653   6.852   4.954   9.490  0.6573 -0.8681 -1.0981
   20SAPC   H7Y 2654   6.712   5.029   9.445  2.6005  0.7974 -1.6182
   20SAPC   C38 2655   6.780   4.873   9.302 -0.3089  0.1103 -0.1525
   20SAPC   H8X 2656   6.674   4.867   9.267  0.2340  0.9505 -2.1137
   20SAPC   H8Y 2657   6.818   4.770   9.320 -0.4939  0.3582  1.7985
   20SAPC   C39 2658   6.858   4.968   9.209 -0.2433  0.3530 -0.3071
   20SAPC   H9X 2659   6.952   5.007   9.253 -0.1364  0.2437 -0.4402
   20SAPC   H9Y 2660   6.797   5.058   9.188  1.0961  1.1422 -0.9141
   20SAPC  C310 2661   6.894   4.897   9.078  0.3570  0.2893 -0.0399
   20SAPC  H10X 2662   6.807   4.865   9.017  0.9980 -1.9464  0.1331
   20SAPC  H10Y 2663   6.942   4.799   9.098 -1.3650 -0.9173 -1.4436
   20SAPC  C311 2664   6.977   4.982   8.983  0.0732  0.9917  0.0453
   20SAPC  H11X 2665   7.075   5.006   9.029  1.1726 -2.0954 -0.4190
   20SAPC  H11Y 2666   6.926   5.079   8.969 -1.7987  0.2441  1.3438
   20SAPC  C312 2667   7.006   4.911   8.850 -0.5410 -0.3814 -0.0676
   20SAPC  H12X 2668   6.911   4.889   8.796  0.0481 -2.2187 -0.4548
   20SAPC  H12Y 2669   7.047   4.812   8.879 -0.8164 -0.3824  0.3207
   20SAPC  C313 2670   7.116   4.981   8.769  0.0266 -0.0404 -0.0381
   20SAPC  H13X 2671   7.202   4.999   8.837  0.3106  0.9240 -0.6336
   20SAPC  H13Y 2672   7.074   5.077   8.731  1.5119 -0.1905 -2.2396
   20SAPC  C314 2673   7.152   4.892   8.648  0.0772 -0.3076  0.3896
   20SAPC  H14X 2674   7.072   4.859   8.577 -0.0380  0.0121  0.3695
   20SAPC  H14Y 2675   7.176   4.791   8.688 -0.6776 -1.4693 -1.8890
   20SAPC  C315 2676   7.254   4.947   8.554 -0.6972 -1.0099 -0.0480
   20SAPC  H15X 2677   7.203   5.028   8.499  2.3231  1.6885  0.7976
   20SAPC  H15Y 2678   7.295   4.867   8.487  3.3536  1.3309 -0.7126
   20SAPC  C316 2679   7.369   5.012   8.628 -0.4069  0.2603 -0.4813
   20SAPC  H16X 2680   7.378   4.955   8.723 -0.1353  1.5713  0.3156
   20SAPC  H16Y 2681   7.331   5.113   8.656 -1.4993 -0.0786 -0.6855
   20SAPC  C317 2682   7.498   5.037   8.550  0.1120 -0.0242 -0.0313
   20SAPC  H17X 2683   7.466   5.056   8.445  0.3079  2.6453  0.3282
   20SAPC  H17Y 2684   7.545   4.937   8.535 -2.5096 -1.7814  2.4238
   20SAPC  C318 2685   7.602   5.135   8.600  0.2586  0.0627  0.5647
   20SAPC  H18X 2686   7.670   5.091   8.675  0.2437  0.0986  0.5986
   20SAPC  H18Y 2687   7.548   5.215   8.655 -1.1297 -1.1269  0.9738
   20SAPC  H18Z 2688   7.649   5.189   8.515 -1.0507  3.0122  1.5675
   21SAPC     N 2689   6.035   4.307  10.988  0.2827 -0.5163  0.2681
   21SAPC   C12 2690   5.961   4.199  10.913  0.8113 -1.2692  0.2565
   21SAPC  H12A 2691   5.886   4.247  10.851 -0.1596 -2.5452  0.4064
   21SAPC  H12B 2692   5.914   4.130  10.980 -0.4700  1.8770  2.8669
   21SAPC   C13 2693   6.116   4.392  10.892 -0.4030  0.2082  0.1010
   21SAPC  H13A 2694   6.183   4.454  10.949  2.8289 -4.1844  1.6240
   21SAPC  H13B 2695   6.181   4.329  10.833 -2.7439 -1.6764 -0.6525
   21SAPC  H13C 2696   6.044   4.436  10.825 -0.3929  2.2786  1.3558
   21SAPC   C14 2697   5.945   4.399  11.064 -0.1237 -0.2375  0.3769
   21SAPC  H14A 2698   5.893   4.339  11.138 -0.0036  1.3266  1.8048
   21SAPC  H14B 2699   6.004   4.478  11.108  1.2862 -0.6532 -0.6899
   21SAPC  H14C 2700   5.870   4.447  11.002  0.0003 -0.0864  0.3427
   21SAPC   C15 2701   6.131   4.250  11.089  0.3334  0.0781 -0.6528
   21SAPC  H15A 2702   6.176   4.157  11.058 -1.1580 -0.6930 -0.5938
   21SAPC  H15B 2703   6.203   4.320  11.129 -0.6392  1.6348 -1.5372
   21SAPC  H15C 2704   6.078   4.214  11.176 -1.4658  0.5670 -1.4974
   21SAPC   C11 2705   6.041   4.111  10.817 -0.2181  0.5864 -1.4716
   21SAPC  H11A 2706   6.085   4.178  10.740  2.6347 -1.1953 -1.5483
   21SAPC  H11B 2707   5.966   4.046  10.768 -0.0640 -0.5969 -0.2047
   21SAPC     P 2708   6.247   3.955  10.800  0.4825  0.0157  0.2675
   21SAPC   O13 2709   6.374   4.001  10.840 -0.6907 -0.2703  0.1585
   21SAPC   O14 2710   6.225   3.810  10.812  0.3629  0.1447  0.2584
   21SAPC   O12 2711   6.145   4.039  10.891  0.2067  0.1571 -0.5716
   21SAPC   O11 2712   6.223   3.990  10.648  0.2214 -0.1776 -0.3562
   21SAPC    C1 2713   6.330   3.945  10.566 -0.5821 -0.1147 -0.0003
   21SAPC    HA 2714   6.425   3.994  10.595 -1.2264 -0.0689  2.2145
   21SAPC    HB 2715   6.353   3.836  10.568 -0.3080 -0.0804 -0.7661
   21SAPC    C2 2716   6.315   3.985  10.417  0.1720  0.0192 -0.1313
   21SAPC    HS 2717   6.332   4.094  10.411 -2.8840  0.6916  1.5137
   21SAPC   O21 2718   6.186   3.937  10.364  0.3953 -0.1113 -0.6162
   21SAPC   C21 2719   6.092   4.022  10.403 -0.0520  0.5279 -0.1738
   21SAPC   O22 2720   6.101   4.140  10.439  0.0758  0.1822  0.7909
   21SAPC   C22 2721   5.960   3.945  10.400 -0.4354 -0.2044 -0.3327
   21SAPC   H2R 2722   5.951   3.850  10.342 -2.5865 -0.5616  0.4809
   21SAPC   H2S 2723   5.932   3.918  10.504 -0.1625  0.4885 -0.0799
   21SAPC    C3 2724   6.422   3.908  10.339 -0.2165  0.2700  0.2673
   21SAPC    HX 2725   6.393   3.802  10.350  1.0625 -0.0800  0.4740
   21SAPC    HY 2726   6.512   3.922  10.403  1.2068  0.5522 -1.6966
   21SAPC   O31 2727   6.433   3.954  10.199 -0.3102 -0.1906 -0.1183
   21SAPC   C31 2728   6.527   3.898  10.121 -0.2693  0.0397  0.5225
   21SAPC   O32 2729   6.608   3.807  10.147  0.5100 -0.7287 -0.2347
   21SAPC   C32 2730   6.527   3.971   9.982  0.7874  0.1026 -0.9474
   21SAPC   H2X 2731   6.591   4.060   9.998  0.3376  0.1635  0.7331
   21SAPC   H2Y 2732   6.418   3.985   9.965  0.2643 -1.2644  0.9192
   21SAPC   C23 2733   5.855   4.046  10.333  0.0326  0.2163 -0.3965
   21SAPC   H3R 2734   5.844   4.137  10.395  0.5867 -1.8991  3.0224
   21SAPC   H3S 2735   5.760   3.990  10.347  0.4836 -0.2013  1.1733
   21SAPC   C24 2736   5.884   4.078  10.183  0.2382  0.4237 -0.2061
   21SAPC   H4R 2737   5.905   3.981  10.132 -1.7195 -1.1129  1.6940
   21SAPC   H4S 2738   5.982   4.126  10.167  0.8169 -0.3088  0.9779
   21SAPC   C25 2739   5.774   4.168  10.126  0.4619 -0.3376 -1.0247
   21SAPC   H5R 2740   5.754   4.254  10.191 -2.2482 -1.5989 -0.0421
   21SAPC   C26 2741   5.699   4.169  10.016 -0.8938  0.3986 -0.4656
   21SAPC   H6R 2742   5.623   4.243   9.988 -0.6814  0.1847 -1.6623
   21SAPC   C27 2743   5.715   4.077   9.898 -0.1315  0.0833  0.2987
   21SAPC   H7R 2744   5.615   4.036   9.871 -1.4527 -0.8372  5.4994
   21SAPC   H7S 2745   5.782   3.992   9.921  1.7495  1.6497  0.8876
   21SAPC   C28 2746   5.777   4.161   9.786 -0.0010 -0.1473  0.0132
   21SAPC   H8R 2747   5.873   4.208   9.810  0.7675 -0.4725 -2.2055
   21SAPC   C29 2748   5.720   4.176   9.663 -0.3227 -0.0241  0.1769
   21SAPC   H9R 2749   5.782   4.222   9.585  0.2592  0.7600  1.0837
   21SAPC  C210 2750   5.600   4.118   9.602  0.6749 -0.2039  0.0819
   21SAPC  H10R 2751   5.542   4.062   9.678 -0.6088 -1.7897 -1.9498
   21SAPC  H10S 2752   5.645   4.045   9.531  1.6475 -1.2399  1.6894
   21SAPC  C211 2753   5.514   4.223   9.538  0.6727  0.6105 -0.2137
   21SAPC  H11R 2754   5.474   4.289   9.616 -0.2604 -2.6563  2.2969
   21SAPC  C212 2755   5.486   4.226   9.405  1.2354 -0.2051 -0.9024
   21SAPC  H12R 2756   5.437   4.321   9.379  0.4225 -0.4539 -0.3162
   21SAPC  C213 2757   5.537   4.134   9.294  0.2318  0.0023  0.2294
   21SAPC  H13R 2758   5.538   4.029   9.331  2.6473  0.4761  1.6983
   21SAPC  H13S 2759   5.645   4.155   9.278  0.7122 -1.1921  1.6789
   21SAPC  C214 2760   5.456   4.148   9.169  0.4533  0.1998  0.7364
   21SAPC  H14R 2761   5.359   4.105   9.197 -0.8611  2.9857  0.7860
   21SAPC  C215 2762   5.477   4.203   9.045  0.1211  0.3100 -0.8631
   21SAPC  H15R 2763   5.392   4.208   8.975  0.6440  0.2720 -1.5075
   21SAPC  C216 2764   5.599   4.262   8.995 -0.7492 -0.7174 -0.0395
   21SAPC  H16R 2765   5.671   4.292   9.074  0.7662 -1.7945 -0.9651
   21SAPC  H16S 2766   5.575   4.353   8.935 -2.7365 -2.3223 -1.8540
   21SAPC  C217 2767   5.687   4.187   8.896 -0.4892  0.3939  0.3945
   21SAPC  H17R 2768   5.740   4.110   8.955 -0.0265 -0.7594 -1.4312
   21SAPC  H17S 2769   5.761   4.263   8.862 -1.1047  0.4134 -1.0065
   21SAPC  C218 2770   5.619   4.122   8.773  0.1628 -0.1841  0.4982
   21SAPC  H18R 2771   5.674   4.179   8.694 -1.2405 -1.0443 -1.1745
   21SAPC  H18S 2772   5.520   4.165   8.746 -0.4622 -2.0711 -0.3968
   21SAPC  C219 2773   5.643   3.970   8.760  0.5683  0.1283  0.0863
   21SAPC  H19R 2774   5.604   3.906   8.841  0.4587  0.6419  0.4404
   21SAPC  H19S 2775   5.754   3.970   8.753  0.6278  0.6812  0.9939
   21SAPC  C220 2776   5.605   3.906   8.624 -0.6994  0.0325 -0.0033
   21SAPC  H20R 2777   5.646   3.803   8.616  0.4758  0.5061 -0.3178
   21SAPC  H20S 2778   5.642   3.970   8.541 -0.3019 -0.9221 -0.5882
   21SAPC  H20T 2779   5.494   3.897   8.622 -0.6559 -0.5192 -0.4518
   21SAPC   C33 2780   6.583   3.872   9.876 -0.2710 -0.4015 -0.5426
   21SAPC   H3X 2781   6.532   3.774   9.883  0.4545 -0.7370  0.4355
   21SAPC   H3Y 2782   6.692   3.855   9.893 -0.5192 -1.2019  0.3804
   21SAPC   C34 2783   6.552   3.925   9.733  0.6570  0.0980  0.3538
   21SAPC   H4X 2784   6.589   4.027   9.709 -0.8477  0.2645 -1.4015
   21SAPC   H4Y 2785   6.443   3.914   9.720  1.0081 -0.9469 -2.4008
   21SAPC   C35 2786   6.607   3.841   9.622 -0.4949  0.3055  0.2483
   21SAPC   H5X 2787   6.561   3.739   9.616 -2.7532  1.2275  0.8128
   21SAPC   H5Y 2788   6.714   3.822   9.645 -0.7020 -0.4535  0.6194
   21SAPC   C36 2789   6.591   3.923   9.492 -0.1842  1.3189  0.2794
   21SAPC   H6X 2790   6.641   3.847   9.428  0.6639 -0.0139  2.3868
   21SAPC   H6Y 2791   6.639   4.022   9.502  0.0352  1.2553 -0.1428
   21SAPC   C37 2792   6.447   3.950   9.442  0.0559 -0.0833 -0.1374
   21SAPC   H7X 2793   6.383   4.022   9.498 -3.1995 -0.5580 -2.9546
   21SAPC   H7Y 2794   6.390   3.855   9.447  1.2618 -0.8840 -0.8888
   21SAPC   C38 2795   6.442   3.994   9.301  0.2663 -0.9574  0.3214
   21SAPC   H8X 2796   6.502   4.086   9.287  1.1028 -1.5844 -0.2846
   21SAPC   H8Y 2797   6.337   4.025   9.281  0.2070 -0.9114  0.7013
   21SAPC   C39 2798   6.478   3.891   9.189  0.0336  0.0694 -0.1681
   21SAPC   H9X 2799   6.454   3.783   9.198  1.3739 -0.2538 -0.2751
   21SAPC   H9Y 2800   6.588   3.881   9.188 -0.0550 -1.0713  0.2435
   21SAPC  C310 2801   6.430   3.932   9.051  0.3681 -1.0294  0.0930
   21SAPC  H10X 2802   6.323   3.954   9.070  1.1034  2.1409  1.2664
   21SAPC  H10Y 2803   6.421   3.849   8.977 -0.3647 -1.6548  0.8599
   21SAPC  C311 2804   6.492   4.059   8.990 -0.0858 -0.4254  0.4319
   21SAPC  H11X 2805   6.597   4.045   8.957 -0.1146 -1.1336  0.6093
   21SAPC  H11Y 2806   6.502   4.134   9.070  2.6464 -2.5040  2.2245
   21SAPC  C312 2807   6.410   4.097   8.865 -0.9115  0.1876 -0.0529
   21SAPC  H12X 2808   6.305   4.072   8.889 -0.4615 -3.3725 -1.1627
   21SAPC  H12Y 2809   6.440   4.025   8.785 -1.2659  0.1216 -0.1287
   21SAPC  C313 2810   6.433   4.241   8.818  0.1884  0.1993 -1.0222
   21SAPC  H13X 2811   6.540   4.270   8.818 -0.1248  1.7959 -4.1979
   21SAPC  H13Y 2812   6.370   4.300   8.889 -0.9568 -1.2526 -0.7804
   21SAPC  C314 2813   6.366   4.250   8.681  0.2470 -0.1880 -0.0689
   21SAPC  H14X 2814   6.264   4.206   8.694  0.4430 -0.6313 -0.0342
   21SAPC  H14Y 2815   6.419   4.192   8.604 -0.3040 -1.9470  0.8195
   21SAPC  C315 2816   6.360   4.394   8.646  0.2387 -0.5846 -0.2057
   21SAPC  H15X 2817   6.456   4.440   8.679 -0.2673  0.9211 -0.7764
   21SAPC  H15Y 2818   6.286   4.441   8.715  1.7543 -2.1348  2.6906
   21SAPC  C316 2819   6.334   4.432   8.497  0.0941  0.9166 -0.3840
   21SAPC  H16X 2820   6.431   4.413   8.447  0.7594  0.9992  0.8300
   21SAPC  H16Y 2821   6.313   4.540   8.483  0.8867  1.2516  0.8394
   21SAPC  C317 2822   6.216   4.345   8.436 -0.0743  0.0934  1.3266
   21SAPC  H17X 2823   6.246   4.239   8.427 -0.3984  0.1873 -3.6956
   21SAPC  H17Y 2824   6.202   4.372   8.329 -2.5961 -1.3797  1.1916
   21SAPC  C318 2825   6.084   4.366   8.510  0.9179  0.0699  0.3082
   21SAPC  H18X 2826   6.037   4.467   8.505  0.9250  0.1596  1.6695
   21SAPC  H18Y 2827   6.100   4.344   8.617  2.6157  0.1034  0.0947
   21SAPC  H18Z 2828   6.021   4.286   8.465  2.3858 -1.8048  1.4658
   22SAPC     N 2829   3.645   2.445  11.174  0.0751 -0.1231 -0.4722
   22SAPC   C12 2830   3.546   2.478  11.059  0.9018 -0.0248 -0.5983
   22SAPC  H12A 2831   3.597   2.490  10.965 -0.5790 -0.3879 -1.4842
   22SAPC  H12B 2832   3.504   2.576  11.077 -0.0406 -0.5521  0.1825
   22SAPC   C13 2833   3.562   2.417  11.298 -0.3605 -0.7994 -0.4322
   22SAPC  H13A 2834   3.473   2.472  11.273 -0.7177 -1.4533 -0.6176
   22SAPC  H13B 2835   3.529   2.315  11.302  1.2556 -1.3127  0.6135
   22SAPC  H13C 2836   3.599   2.462  11.389 -3.0058  2.8625 -0.9292
   22SAPC   C14 2837   3.720   2.322  11.131  0.3059 -0.4141 -0.9744
   22SAPC  H14A 2838   3.766   2.290  11.224  0.8106  0.5505 -0.8753
   22SAPC  H14B 2839   3.655   2.244  11.096 -0.6316 -0.0251 -0.1395
   22SAPC  H14C 2840   3.797   2.351  11.061  1.0336  0.3488  0.1038
   22SAPC   C15 2841   3.735   2.566  11.199 -0.1981 -0.0760 -0.0838
   22SAPC  H15A 2842   3.796   2.586  11.112 -0.7936 -0.7759 -0.6719
   22SAPC  H15B 2843   3.686   2.660  11.216 -2.0452 -1.2343  1.3315
   22SAPC  H15C 2844   3.804   2.544  11.279  0.6012 -2.5281 -1.3289
   22SAPC   C11 2845   3.436   2.373  11.023 -0.1531 -0.4064  0.0495
   22SAPC  H11A 2846   3.372   2.421  10.946  0.7797  0.0896 -0.4386
   22SAPC  H11B 2847   3.374   2.358  11.114 -1.9317  0.3547 -0.9806
   22SAPC     P 2848   3.516   2.220  10.833 -0.1120 -0.0466  0.4206
   22SAPC   O13 2849   3.614   2.116  10.815 -0.1890  0.1430  0.0700
   22SAPC   O14 2850   3.382   2.196  10.778 -0.0715  0.4938  0.0218
   22SAPC   O12 2851   3.491   2.250  10.976  0.4710  0.3574  0.7679
   22SAPC   O11 2852   3.564   2.367  10.792 -0.1030  0.3300 -0.1639
   22SAPC    C1 2853   3.697   2.386  10.732 -0.2490  0.2933 -0.1294
   22SAPC    HA 2854   3.726   2.487  10.767 -0.0573 -0.4209  1.9430
   22SAPC    HB 2855   3.774   2.324  10.783 -0.7721 -0.0627  0.2401
   22SAPC    C2 2856   3.711   2.363  10.581  0.2975 -0.6713  0.3570
   22SAPC    HS 2857   3.820   2.368  10.565  0.1290 -0.7603 -0.9401
   22SAPC   O21 2858   3.643   2.465  10.510  0.7730 -0.6632 -0.0662
   22SAPC   C21 2859   3.715   2.585  10.504 -0.5758 -0.8746  0.2004
   22SAPC   O22 2860   3.825   2.601  10.554 -0.2250 -0.1292 -0.2632
   22SAPC   C22 2861   3.647   2.689  10.422  0.8194  0.1519 -0.8627
   22SAPC   H2R 2862   3.558   2.640  10.378  1.0571 -0.6155 -0.4996
   22SAPC   H2S 2863   3.621   2.775  10.487  2.3964 -0.3090  0.4416
   22SAPC    C3 2864   3.670   2.226  10.523 -0.4954  0.0222  0.1729
   22SAPC    HX 2865   3.560   2.215  10.534 -0.5681  1.5167  1.2381
   22SAPC    HY 2866   3.720   2.144  10.578 -0.7506  0.5922  1.2694
   22SAPC   O31 2867   3.714   2.236  10.383 -0.7765  0.7381  0.1966
   22SAPC   C31 2868   3.622   2.241  10.289 -0.3358  0.5033  0.0991
   22SAPC   O32 2869   3.502   2.239  10.307  0.0345  0.4781 -0.4948
   22SAPC   C32 2870   3.694   2.269  10.160 -0.4657 -0.0036 -0.4147
   22SAPC   H2X 2871   3.761   2.182  10.140  0.1139  0.3762 -0.1766
   22SAPC   H2Y 2872   3.768   2.352  10.171  0.2423 -0.7557  0.6708
   22SAPC   C23 2873   3.739   2.739  10.313  0.1288 -0.5138 -0.0749
   22SAPC   H3R 2874   3.820   2.800  10.359 -4.0768  4.4575  1.7107
   22SAPC   H3S 2875   3.687   2.810  10.245  1.0691 -0.2927 -0.5831
   22SAPC   C24 2876   3.786   2.622  10.224  0.1351 -0.1273  0.3062
   22SAPC   H4R 2877   3.693   2.582  10.178 -0.0368 -1.9814  2.1088
   22SAPC   H4S 2878   3.847   2.549  10.281  0.1008  1.9891  3.2650
   22SAPC   C25 2879   3.877   2.688  10.122  0.2478 -0.6667  0.0482
   22SAPC   H5R 2880   3.956   2.759  10.152 -0.3944  0.8832 -1.6780
   22SAPC   C26 2881   3.867   2.689   9.985  0.6407 -0.0317  0.3727
   22SAPC   H6R 2882   3.940   2.750   9.931  0.6474  0.8546  1.3525
   22SAPC   C27 2883   3.764   2.621   9.900 -0.0962  0.4377  0.2775
   22SAPC   H7R 2884   3.670   2.598   9.953  0.6097 -0.7912  1.0395
   22SAPC   H7S 2885   3.812   2.525   9.872  0.2029  0.6668 -0.0066
   22SAPC   C28 2886   3.716   2.703   9.778 -0.4049  0.2457 -0.3641
   22SAPC   H8R 2887   3.626   2.763   9.793 -1.1451 -1.0965  0.8329
   22SAPC   C29 2888   3.772   2.677   9.655  0.7144  0.4352 -0.4526
   22SAPC   H9R 2889   3.720   2.731   9.574 -1.6464  2.2669  2.0685
   22SAPC  C210 2890   3.893   2.586   9.617  1.0670 -0.3521 -0.0875
   22SAPC  H10R 2891   3.854   2.502   9.556  0.6706  1.0298 -1.8376
   22SAPC  H10S 2892   3.955   2.550   9.702  0.4095 -2.2050 -0.3445
   22SAPC  C211 2893   3.977   2.673   9.525 -0.0872  0.2175 -0.5136
   22SAPC  H11R 2894   4.069   2.709   9.574  1.4045 -0.2582 -2.8033
   22SAPC  C212 2895   3.958   2.694   9.393  0.9953 -0.5815  0.1457
   22SAPC  H12R 2896   4.033   2.750   9.335 -0.2762  0.0827 -0.9294
   22SAPC  C213 2897   3.859   2.626   9.308 -0.4384 -0.3155 -0.0204
   22SAPC  H13R 2898   3.871   2.671   9.208  1.4526  0.5470  0.5571
   22SAPC  H13S 2899   3.755   2.654   9.337 -0.6695 -0.2875 -0.8653
   22SAPC  C214 2900   3.874   2.480   9.294 -0.6659  0.6377 -0.0019
   22SAPC  H14R 2901   3.802   2.432   9.363  1.1382 -0.9766  0.8456
   22SAPC  C215 2902   3.953   2.402   9.216  0.1855  0.3750 -0.3589
   22SAPC  H15R 2903   3.977   2.296   9.232  0.0325  0.4435  0.3670
   22SAPC  C216 2904   4.065   2.464   9.128 -0.0310 -0.1287  0.4126
   22SAPC  H16R 2905   4.142   2.384   9.137  2.1279  1.8519  0.5986
   22SAPC  H16S 2906   4.116   2.556   9.162  1.3430 -0.2747 -1.1023
   22SAPC  C217 2907   4.046   2.490   8.977 -0.6085 -0.4287  0.0896
   22SAPC  H17R 2908   4.141   2.523   8.930 -0.8936  2.7846  1.5104
   22SAPC  H17S 2909   3.985   2.583   8.978  0.9432  0.6692 -1.5727
   22SAPC  C218 2910   3.989   2.382   8.889 -0.1581  0.0933  0.1132
   22SAPC  H18R 2911   3.905   2.335   8.945 -0.0704 -1.1286 -0.7263
   22SAPC  H18S 2912   4.068   2.304   8.877 -1.3036 -0.8200 -2.1510
   22SAPC  C219 2913   3.944   2.428   8.752  0.3074  0.1276  0.1518
   22SAPC  H19R 2914   4.038   2.445   8.696 -0.8596  1.2302 -1.5713
   22SAPC  H19S 2915   3.874   2.514   8.744 -0.6195 -0.5860  0.3232
   22SAPC  C220 2916   3.867   2.311   8.690  0.6033 -0.1618 -0.0989
   22SAPC  H20R 2917   3.825   2.346   8.594 -0.2843  1.0004  0.6887
   22SAPC  H20S 2918   3.776   2.280   8.747  0.2112 -0.2402 -0.7574
   22SAPC  H20T 2919   3.937   2.230   8.661  1.3171 -0.2930  1.8037
   22SAPC   C33 2920   3.607   2.297  10.039  0.7873  0.1809 -0.6244
   22SAPC   H3X 2921   3.576   2.404  10.035 -1.0974 -0.3500 -1.2871
   22SAPC   H3Y 2922   3.516   2.234  10.045  1.5417 -0.7964  2.8356
   22SAPC   C34 2923   3.677   2.264   9.912  0.3912  0.0759  0.0177
   22SAPC   H4X 2924   3.746   2.180   9.933  0.4578  0.1065 -0.0778
   22SAPC   H4Y 2925   3.741   2.348   9.878 -1.3758  2.1739  1.5706
   22SAPC   C35 2926   3.570   2.250   9.794  0.5395  0.7431  0.0961
   22SAPC   H5X 2927   3.518   2.348   9.786  0.6706  0.6430 -2.7786
   22SAPC   H5Y 2928   3.495   2.174   9.826 -0.7817  1.1157 -1.9066
   22SAPC   C36 2929   3.629   2.212   9.659 -0.0458 -0.1380 -0.2610
   22SAPC   H6X 2930   3.702   2.130   9.674 -1.3611 -1.4549 -0.7766
   22SAPC   H6Y 2931   3.674   2.301   9.612 -0.9173 -1.0528 -3.0189
   22SAPC   C37 2932   3.522   2.161   9.560 -0.2766 -0.0698  0.2859
   22SAPC   H7X 2933   3.425   2.201   9.596 -0.6826 -0.6920 -0.1012
   22SAPC   H7Y 2934   3.498   2.053   9.565 -0.7215 -0.1940 -2.6583
   22SAPC   C38 2935   3.559   2.204   9.418  0.3219 -0.0493 -0.0640
   22SAPC   H8X 2936   3.664   2.173   9.399  0.1040  0.6547 -2.7141
   22SAPC   H8Y 2937   3.565   2.315   9.418  1.3977 -0.0722 -1.5680
   22SAPC   C39 2938   3.467   2.145   9.310  0.3211  0.5476 -0.4649
   22SAPC   H9X 2939   3.371   2.200   9.321 -0.8281 -1.0672 -1.8635
   22SAPC   H9Y 2940   3.448   2.041   9.343  0.1287 -0.2860 -2.9840
   22SAPC  C310 2941   3.524   2.157   9.169 -0.2366 -0.3665 -0.5168
   22SAPC  H10X 2942   3.452   2.103   9.105  2.7540 -3.0989 -1.8769
   22SAPC  H10Y 2943   3.623   2.111   9.149  0.0306 -0.8066  1.5673
   22SAPC  C311 2944   3.532   2.307   9.132  0.0956  0.0056  0.4369
   22SAPC  H11X 2945   3.622   2.359   9.172  0.4159 -1.4313  1.6553
   22SAPC  H11Y 2946   3.444   2.366   9.163 -0.0371  0.3204 -0.4943
   22SAPC  C312 2947   3.539   2.322   8.974  0.4947  0.4395  0.1239
   22SAPC  H12X 2948   3.477   2.244   8.924  1.7574  0.7811 -2.0875
   22SAPC  H12Y 2949   3.642   2.292   8.944  0.2818 -1.1209  0.8517
   22SAPC  C313 2950   3.504   2.465   8.922  0.3711  0.3520 -0.1437
   22SAPC  H13X 2951   3.588   2.523   8.964  1.4971 -1.5591  0.3723
   22SAPC  H13Y 2952   3.403   2.481   8.965 -0.7821  2.3655 -3.2288
   22SAPC  C314 2953   3.485   2.479   8.769  0.2598  0.6555 -0.3804
   22SAPC  H14X 2954   3.575   2.439   8.718  1.0775 -1.4778  2.4551
   22SAPC  H14Y 2955   3.454   2.582   8.741 -2.9182 -0.5430 -1.7664
   22SAPC  C315 2956   3.367   2.396   8.717  0.0923  0.7957 -0.0774
   22SAPC  H15X 2957   3.268   2.427   8.757 -1.2341 -1.3585 -1.5031
   22SAPC  H15Y 2958   3.363   2.290   8.750 -0.1661  0.6453 -0.5727
   22SAPC  C316 2959   3.360   2.381   8.562  0.0510 -0.1834  0.0771
   22SAPC  H16X 2960   3.350   2.487   8.531  1.9418  0.5166  1.6662
   22SAPC  H16Y 2961   3.264   2.336   8.527  0.5322  1.2869 -3.5190
   22SAPC  C317 2962   3.478   2.307   8.494 -0.3154 -0.5067  0.4399
   22SAPC  H17X 2963   3.499   2.205   8.533  2.1493 -0.5671 -0.8525
   22SAPC  H17Y 2964   3.571   2.367   8.488 -0.5529 -0.1193  0.6159
   22SAPC  C318 2965   3.436   2.289   8.346  0.7907  0.4922 -0.7182
   22SAPC  H18X 2966   3.356   2.212   8.340  0.5331  0.5622  1.2012
   22SAPC  H18Y 2967   3.511   2.249   8.274 -0.4537 -0.5814 -1.4656
   22SAPC  H18Z 2968   3.374   2.371   8.304 -0.8133 -0.4393 -0.2815
   23SAPC     N 2969   6.504   2.537  10.665  0.0854  0.0745 -0.1526
   23SAPC   C12 2970   6.354   2.538  10.618 -0.8161 -0.0306 -0.0298
   23SAPC  H12A 2971   6.338   2.451  10.556  0.2524  0.5219 -1.1177
   23SAPC  H12B 2972   6.355   2.626  10.555 -0.9974 -0.3330 -0.4637
   23SAPC   C13 2973   6.519   2.636  10.773  0.0567  0.1558  0.0377
   23SAPC  H13A 2974   6.443   2.601  10.841  1.6277  2.5892  3.2962
   23SAPC  H13B 2975   6.611   2.637  10.829  1.1331 -1.1301 -1.6121
   23SAPC  H13C 2976   6.502   2.735  10.734  2.2893  0.2911 -0.7262
   23SAPC   C14 2977   6.543   2.407  10.726  0.2265  0.0699  0.0060
   23SAPC  H14A 2978   6.635   2.419  10.783  0.5359  0.3540 -0.5496
   23SAPC  H14B 2979   6.465   2.375  10.794  0.8220 -0.3796  0.4878
   23SAPC  H14C 2980   6.564   2.330  10.654  0.5806 -0.3454  0.5406
   23SAPC   C15 2981   6.600   2.594  10.561  0.0170  0.2276  0.0173
   23SAPC  H15A 2982   6.574   2.690  10.518  0.3777  1.5687  2.6413
   23SAPC  H15B 2983   6.699   2.606  10.601 -0.3653  0.5613  0.8948
   23SAPC  H15C 2984   6.604   2.533  10.471  2.2790 -1.6967  1.3089
   23SAPC   C11 2985   6.245   2.532  10.722  0.2916 -0.4339  0.5332
   23SAPC  H11A 2986   6.153   2.537  10.660  0.8237  1.2922 -0.1768
   23SAPC  H11B 2987   6.239   2.627  10.780 -1.1906 -0.2552  0.1218
   23SAPC     P 2988   6.206   2.280  10.763 -0.4063 -0.1545 -0.1366
   23SAPC   O13 2989   6.303   2.182  10.811 -1.0443 -0.1495 -0.2117
   23SAPC   O14 2990   6.068   2.257  10.808  0.4069 -0.4211  0.1587
   23SAPC   O12 2991   6.251   2.423  10.806  0.0854 -0.0460 -0.1892
   23SAPC   O11 2992   6.205   2.276  10.607  0.3497 -0.3374 -0.2692
   23SAPC    C1 2993   6.143   2.160  10.554 -0.4275  0.5925  0.1066
   23SAPC    HA 2994   6.210   2.074  10.535 -0.1626  0.8247 -0.0049
   23SAPC    HB 2995   6.056   2.132  10.618  0.6889  0.4983  1.6338
   23SAPC    C2 2996   6.071   2.177  10.410  0.4096  0.1189 -0.6673
   23SAPC    HS 2997   6.013   2.082  10.404  1.1210 -0.2163 -3.5066
   23SAPC   O21 2998   6.165   2.195  10.304  0.0270  0.1208 -0.1395
   23SAPC   C21 2999   6.118   2.141  10.188  0.3065 -0.0592  0.8687
   23SAPC   O22 3000   6.021   2.069  10.169 -0.2560  0.2152 -0.5308
   23SAPC   C22 3001   6.215   2.188  10.078  0.2577  0.2247  0.5725
   23SAPC   H2R 3002   6.232   2.298  10.083  1.6541  0.0411  0.3252
   23SAPC   H2S 3003   6.310   2.134  10.099  0.4427  1.3841  3.1155
   23SAPC    C3 3004   5.968   2.287  10.415 -0.2744  0.0140  0.2425
   23SAPC    HX 3005   6.012   2.374  10.469 -1.0613  0.1270  0.7120
   23SAPC    HY 3006   5.888   2.245  10.479  0.2438  0.3344  1.1170
   23SAPC   O31 3007   5.923   2.324  10.284  0.5976  0.6378  0.0963
   23SAPC   C31 3008   5.815   2.407  10.287 -1.0712 -0.5154  0.1959
   23SAPC   O32 3009   5.757   2.443  10.386  0.2580  0.4391 -1.0443
   23SAPC   C32 3010   5.783   2.451  10.146  0.4775 -0.0095 -0.3878
   23SAPC   H2X 3011   5.739   2.372  10.080 -1.5647  1.5902 -1.0421
   23SAPC   H2Y 3012   5.879   2.486  10.102  1.8326 -3.1622 -0.1854
   23SAPC   C23 3013   6.160   2.141   9.939  0.4119 -0.0543  0.1865
   23SAPC   H3R 3014   6.140   2.032   9.945  0.6699 -0.0773  0.7228
   23SAPC   H3S 3015   6.253   2.147   9.879  0.8489  1.8081  0.9821
   23SAPC   C24 3016   6.044   2.228   9.883 -0.5378 -0.1324  0.4207
   23SAPC   H4R 3017   5.975   2.267   9.962 -0.7473  2.3285 -0.8909
   23SAPC   H4S 3018   5.981   2.158   9.824 -0.5661 -2.0302  2.5302
   23SAPC   C25 3019   6.100   2.342   9.803  0.0474  0.6748  0.0707
   23SAPC   H5R 3020   6.130   2.427   9.866 -1.2987  1.6020 -0.4950
   23SAPC   C26 3021   6.100   2.356   9.670  0.6980  0.1374 -0.3133
   23SAPC   H6R 3022   6.158   2.432   9.617 -0.4452  0.3502 -1.3140
   23SAPC   C27 3023   6.047   2.260   9.567  0.2563 -1.1131  0.0661
   23SAPC   H7R 3024   6.056   2.158   9.611 -3.0143 -2.2824 -1.6419
   23SAPC   H7S 3025   6.101   2.260   9.469 -0.8170 -0.7460 -0.5385
   23SAPC   C28 3026   5.898   2.285   9.531 -0.8534 -0.3903 -0.0438
   23SAPC   H8R 3027   5.830   2.273   9.616 -0.6088  0.3484  0.2677
   23SAPC   C29 3028   5.849   2.302   9.407 -0.8803  0.0742  0.4830
   23SAPC   H9R 3029   5.740   2.310   9.396 -1.1355 -2.5071  0.4314
   23SAPC  C210 3030   5.920   2.331   9.276 -0.4822  0.4728 -0.1254
   23SAPC  H10R 3031   5.846   2.347   9.194 -1.2559 -2.7033 -0.1547
   23SAPC  H10S 3032   5.989   2.251   9.241 -0.0940  1.6511 -2.2019
   23SAPC  C211 3033   6.016   2.452   9.279  0.0298 -0.1704  0.5239
   23SAPC  H11R 3034   6.007   2.525   9.360  1.0096  0.2572  0.2711
   23SAPC  C212 3035   6.110   2.485   9.183  0.7849  0.0073 -0.9638
   23SAPC  H12R 3036   6.178   2.570   9.198 -0.6816  1.0552  0.0594
   23SAPC  C213 3037   6.131   2.405   9.062 -0.1700  0.6816 -0.2136
   23SAPC  H13R 3038   6.070   2.313   9.063 -3.6033  2.7921  0.6453
   23SAPC  H13S 3039   6.239   2.378   9.059  0.4451  2.6533  1.4695
   23SAPC  C214 3040   6.104   2.482   8.938  0.2403 -0.3469  0.7145
   23SAPC  H14R 3041   6.020   2.553   8.946  2.7728  2.6535  4.0974
   23SAPC  C215 3042   6.166   2.482   8.820  0.3556 -0.2232  0.2147
   23SAPC  H15R 3043   6.124   2.538   8.735  0.7788 -3.3471 -2.1853
   23SAPC  C216 3044   6.290   2.406   8.774  0.4449 -0.0449 -0.0368
   23SAPC  H16R 3045   6.321   2.321   8.838  2.0068 -1.0859 -2.0340
   23SAPC  H16S 3046   6.378   2.474   8.771  3.0555 -2.9405  3.1323
   23SAPC  C217 3047   6.275   2.349   8.633 -0.2737  0.0278 -0.2867
   23SAPC  H17R 3048   6.375   2.326   8.588 -0.0185 -0.3543  0.4598
   23SAPC  H17S 3049   6.223   2.416   8.561 -2.0534  0.8403  1.6540
   23SAPC  C218 3050   6.216   2.204   8.657  0.5352 -0.4796 -0.1283
   23SAPC  H18R 3051   6.120   2.209   8.712  1.2143  3.0070  0.9964
   23SAPC  H18S 3052   6.280   2.155   8.733 -0.6968 -1.0610  0.5521
   23SAPC  C219 3053   6.191   2.120   8.539 -0.8680 -0.2822  0.5030
   23SAPC  H19R 3054   6.124   2.163   8.461  0.5902 -0.9023 -1.1687
   23SAPC  H19S 3055   6.136   2.026   8.560 -0.8247 -0.6214 -0.8235
   23SAPC  C220 3056   6.317   2.081   8.463  0.1008 -0.1390 -0.0637
   23SAPC  H20R 3057   6.355   1.998   8.527 -3.6734 -1.1476  1.1136
   23SAPC  H20S 3058   6.392   2.162   8.451  0.8695 -0.6212  1.2599
   23SAPC  H20T 3059   6.291   2.038   8.364  1.9612 -2.1586  0.2599
   23SAPC   C33 3060   5.672   2.561  10.145  0.0987  0.0464 -0.5655
   23SAPC   H3X 3061   5.704   2.664  10.172 -0.3215  0.4593 -1.6067
   23SAPC   H3Y 3062   5.591   2.531  10.215  0.2671  0.9971  0.0531
   23SAPC   C34 3063   5.590   2.584  10.016 -0.2943  0.1174 -0.0211
   23SAPC   H4X 3064   5.510   2.656  10.045 -0.3141  0.2305 -0.3449
   23SAPC   H4Y 3065   5.543   2.485   9.996  0.7821 -0.5827  0.7999
   23SAPC   C35 3066   5.673   2.623   9.893 -0.1003  0.1361 -0.2977
   23SAPC   H5X 3067   5.752   2.547   9.874 -0.4534 -0.2508 -0.2434
   23SAPC   H5Y 3068   5.725   2.718   9.914  1.3600 -0.7481  0.2894
   23SAPC   C36 3069   5.581   2.641   9.770  0.0653  0.0107 -0.3454
   23SAPC   H6X 3070   5.503   2.713   9.803 -1.3932 -1.3147 -0.8042
   23SAPC   H6Y 3071   5.529   2.546   9.746 -2.7254  1.7210 -1.5386
   23SAPC   C37 3072   5.657   2.680   9.647 -0.5678 -0.9334  1.0417
   23SAPC   H7X 3073   5.707   2.585   9.618 -1.0586 -0.5530 -1.3035
   23SAPC   H7Y 3074   5.734   2.757   9.672 -0.4492 -0.2367 -1.2017
   23SAPC   C38 3075   5.577   2.739   9.532 -0.0328 -0.2292 -0.1760
   23SAPC   H8X 3076   5.538   2.841   9.552  1.5860  0.3768  0.1148
   23SAPC   H8Y 3077   5.501   2.667   9.495 -0.1532 -0.6908  0.9203
   23SAPC   C39 3078   5.674   2.774   9.414  0.4417  0.3044  0.5238
   23SAPC   H9X 3079   5.730   2.678   9.401 -0.5258 -0.1311 -0.6447
   23SAPC   H9Y 3080   5.740   2.854   9.452  1.9921 -1.0398  0.8025
   23SAPC  C310 3081   5.604   2.817   9.291 -0.5360 -0.0743  0.3605
   23SAPC  H10X 3082   5.526   2.892   9.316 -2.4317 -1.7964 -0.1227
   23SAPC  H10Y 3083   5.546   2.729   9.257 -0.3582 -1.0621  2.4792
   23SAPC  C311 3084   5.694   2.860   9.169  0.4878 -0.3350 -0.0537
   23SAPC  H11X 3085   5.737   2.955   9.204  2.2376  0.1883 -3.2387
   23SAPC  H11Y 3086   5.628   2.892   9.085 -1.1926 -0.1325  1.2805
   23SAPC  C312 3087   5.793   2.755   9.128  0.3978 -0.4698  0.2018
   23SAPC  H12X 3088   5.742   2.661   9.100 -1.2947  0.7456 -0.9399
   23SAPC  H12Y 3089   5.865   2.735   9.211  2.0685  0.0723 -1.0637
   23SAPC  C313 3090   5.882   2.797   9.004  0.1745 -0.3171  0.0965
   23SAPC  H13X 3091   5.969   2.728   9.002  3.8960  3.8350  1.5981
   23SAPC  H13Y 3092   5.927   2.895   9.030 -1.9250  0.5638  0.6753
   23SAPC  C314 3093   5.802   2.807   8.879 -0.1770  0.9497  0.4567
   23SAPC  H14X 3094   5.702   2.854   8.883 -0.1956  1.3174 -2.2126
   23SAPC  H14Y 3095   5.779   2.701   8.851  1.2520  0.6749  0.2443
   23SAPC  C315 3096   5.894   2.878   8.773  0.5721 -0.4828  0.7392
   23SAPC  H15X 3097   5.991   2.828   8.755  0.7484  0.0153  0.2821
   23SAPC  H15Y 3098   5.922   2.980   8.806 -2.6027  1.2353 -1.3684
   23SAPC  C316 3099   5.809   2.886   8.645 -0.6580 -0.1503  0.3264
   23SAPC  H16X 3100   5.719   2.945   8.674 -0.5285  0.0522  0.3214
   23SAPC  H16Y 3101   5.778   2.782   8.624  2.4003 -1.4421  1.6611
   23SAPC  C317 3102   5.870   2.935   8.508 -0.4559 -0.7139 -0.4784
   23SAPC  H17X 3103   5.935   2.851   8.476 -2.7226 -2.7392  0.0032
   23SAPC  H17Y 3104   5.936   3.023   8.526 -0.3042 -1.4495  3.1750
   23SAPC  C318 3105   5.757   2.965   8.406  0.0789  0.2385  0.3085
   23SAPC  H18X 3106   5.681   2.883   8.405 -1.4813  1.6365  0.4551
   23SAPC  H18Y 3107   5.791   2.993   8.304 -2.2563 -0.8118 -0.8436
   23SAPC  H18Z 3108   5.694   3.053   8.432  0.0159  0.8686 -1.7758
   24SAPC     N 3109   3.386   5.964  10.491  0.1038  0.0423  0.2185
   24SAPC   C12 3110   3.410   5.955  10.342  0.3956  0.3713 -0.5164
   24SAPC  H12A 3111   3.509   5.996  10.323  1.5851 -0.7248  2.6737
   24SAPC  H12B 3112   3.343   6.020  10.289 -0.8070 -0.1021  0.3857
   24SAPC   C13 3113   3.251   5.907  10.506  0.2194  0.0781 -0.1073
   24SAPC  H13A 3114   3.241   5.800  10.498  0.0755 -0.0240  1.2531
   24SAPC  H13B 3115   3.217   5.922  10.608 -0.9836 -0.9873 -0.3283
   24SAPC  H13C 3116   3.178   5.964  10.451  0.0144  1.0341  1.1074
   24SAPC   C14 3117   3.485   5.880  10.564  0.5176  0.0595  0.1622
   24SAPC  H14A 3118   3.587   5.916  10.567  1.7014 -2.8276 -1.3379
   24SAPC  H14B 3119   3.463   5.863  10.668 -1.2223 -0.8714 -0.3209
   24SAPC  H14C 3120   3.505   5.791  10.505  0.1137  0.8764 -1.2684
   24SAPC   C15 3121   3.381   6.106  10.543 -0.2337 -0.0791 -0.2649
   24SAPC  H15A 3122   3.362   6.101  10.649  0.3544 -0.6232 -0.1782
   24SAPC  H15B 3123   3.473   6.160  10.525 -0.6874  1.3605  1.4942
   24SAPC  H15C 3124   3.294   6.155  10.502  1.8273  3.7367 -0.5082
   24SAPC   C11 3125   3.408   5.821  10.269 -0.9310 -0.4042 -0.4722
   24SAPC  H11A 3126   3.405   5.841  10.160 -0.6839 -2.4677 -0.9026
   24SAPC  H11B 3127   3.319   5.756  10.278 -0.3494 -1.3376 -1.2409
   24SAPC     P 3128   3.668   5.797  10.246  0.2237 -0.3160  0.5288
   24SAPC   O13 3129   3.678   5.942  10.225  0.1006  0.2883 -0.4240
   24SAPC   O14 3130   3.769   5.731  10.324 -0.7405 -0.2067 -0.6271
   24SAPC   O12 3131   3.521   5.746  10.303 -0.9591 -0.4309 -0.0286
   24SAPC   O11 3132   3.668   5.727  10.100 -0.0025 -0.5773 -0.8051
   24SAPC    C1 3133   3.663   5.587  10.093 -0.0720  0.3982  0.4827
   24SAPC    HA 3134   3.769   5.555  10.089  0.1373  1.2137 -1.7442
   24SAPC    HB 3135   3.622   5.534  10.181 -0.5243 -0.2179 -0.0921
   24SAPC    C2 3136   3.575   5.537   9.973 -0.0307  0.3347  0.1881
   24SAPC    HS 3137   3.546   5.431   9.987 -0.0608  0.3332  0.1097
   24SAPC   O21 3138   3.645   5.554   9.850  0.4377  0.7276 -0.6105
   24SAPC   C21 3139   3.760   5.483   9.829  0.7506  0.2712  0.5275
   24SAPC   O22 3140   3.795   5.392   9.903  0.1900  0.3137 -0.9730
   24SAPC   C22 3141   3.822   5.524   9.693  0.2259  0.2299 -0.4478
   24SAPC   H2R 3142   3.926   5.558   9.711  0.1701 -0.6923  2.0889
   24SAPC   H2S 3143   3.846   5.429   9.641  3.5381  0.8726 -0.3035
   24SAPC    C3 3144   3.445   5.615   9.965 -0.8505 -0.5925  0.6266
   24SAPC    HX 3145   3.473   5.722   9.973  0.0568 -0.9098  2.0206
   24SAPC    HY 3146   3.377   5.599  10.052  0.3483 -0.0805  1.6898
   24SAPC   O31 3147   3.381   5.580   9.839 -0.6449 -0.7043 -0.1127
   24SAPC   C31 3148   3.380   5.668   9.738 -0.0249  0.7071 -0.0054
   24SAPC   O32 3149   3.401   5.789   9.745 -0.0975 -0.0004 -0.6199
   24SAPC   C32 3150   3.360   5.588   9.605  0.6396 -0.5619 -0.1364
   24SAPC   H2X 3151   3.257   5.546   9.611  0.7101 -0.9563 -1.4388
   24SAPC   H2Y 3152   3.439   5.510   9.605 -1.6927 -3.0931  1.2962
   24SAPC   C23 3153   3.747   5.626   9.598  0.1948 -0.9429  0.0173
   24SAPC   H3R 3154   3.679   5.696   9.650 -1.4041 -2.4786  0.0672
   24SAPC   H3S 3155   3.680   5.568   9.531  0.9979 -2.0370  0.1299
   24SAPC   C24 3156   3.839   5.711   9.502  1.0493  0.0854 -0.1005
   24SAPC   H4R 3157   3.918   5.655   9.448 -0.2511 -0.7776 -1.1916
   24SAPC   H4S 3158   3.892   5.783   9.568 -0.4037  2.9122 -1.7926
   24SAPC   C25 3159   3.763   5.797   9.405  0.0529 -0.1936  0.3072
   24SAPC   H5R 3160   3.730   5.894   9.445 -1.1709  0.2896 -1.7307
   24SAPC   C26 3161   3.720   5.767   9.281  0.1582 -0.1206  0.5602
   24SAPC   H6R 3162   3.679   5.849   9.220  1.8054  2.3729  2.5758
   24SAPC   C27 3163   3.731   5.635   9.209  0.5079  0.6389  0.4910
   24SAPC   H7R 3164   3.645   5.631   9.138  1.2890 -2.0892 -0.4548
   24SAPC   H7S 3165   3.712   5.557   9.286 -1.4344  0.0775 -0.4814
   24SAPC   C28 3166   3.859   5.615   9.144 -0.4153  0.3733  0.3951
   24SAPC   H8R 3167   3.946   5.658   9.197  0.3150 -0.8222  0.2179
   24SAPC   C29 3168   3.890   5.545   9.028 -0.3512 -0.6101 -0.2924
   24SAPC   H9R 3169   3.995   5.527   9.002  0.0329  1.6355 -0.5252
   24SAPC  C210 3170   3.793   5.468   8.946 -1.1572 -0.5888  0.1953
   24SAPC  H10R 3171   3.693   5.477   8.993 -1.6566 -0.8066 -0.8097
   24SAPC  H10S 3172   3.816   5.361   8.968 -1.2538 -0.4013  1.2814
   24SAPC  C211 3173   3.785   5.489   8.793  0.4229 -0.6356 -0.7524
   24SAPC  H11R 3174   3.872   5.541   8.750 -0.1883  0.0096 -1.2356
   24SAPC  C212 3175   3.694   5.431   8.710  0.3785  0.0989  0.1673
   24SAPC  H12R 3176   3.696   5.461   8.604  2.7666  2.8392  0.8576
   24SAPC  C213 3177   3.567   5.352   8.751  0.3196 -0.4241  0.6612
   24SAPC  H13R 3178   3.475   5.401   8.712  1.2376  1.0578  0.2817
   24SAPC  H13S 3179   3.550   5.356   8.861  1.0708 -1.9311  0.8703
   24SAPC  C214 3180   3.570   5.200   8.712 -0.3768 -0.5162  0.3979
   24SAPC  H14R 3181   3.643   5.151   8.777 -1.1095 -2.3358 -0.0880
   24SAPC  C215 3182   3.505   5.143   8.607 -0.9145 -1.3216 -0.2671
   24SAPC  H15R 3183   3.515   5.035   8.593 -2.0928 -1.5237  0.3093
   24SAPC  C216 3184   3.415   5.215   8.503 -0.5695 -0.2012 -1.0414
   24SAPC  H16R 3185   3.370   5.310   8.538 -0.7873 -0.3078 -1.0283
   24SAPC  H16S 3186   3.322   5.157   8.483  0.3270 -1.0872 -2.9095
   24SAPC  C217 3187   3.479   5.239   8.363  0.3804  0.4973  1.0116
   24SAPC  H17R 3188   3.515   5.138   8.333 -1.6580  0.6660 -2.5669
   24SAPC  H17S 3189   3.569   5.303   8.372  1.5728 -1.0245  0.3147
   24SAPC  C218 3190   3.379   5.286   8.261  0.1390 -0.1338  0.1616
   24SAPC  H18R 3191   3.322   5.370   8.305 -0.3140 -0.3871  0.0729
   24SAPC  H18S 3192   3.297   5.211   8.253  0.7523 -0.9656  1.3778
   24SAPC  C219 3193   3.438   5.317   8.121  0.3920 -0.1811 -0.5370
   24SAPC  H19R 3194   3.482   5.232   8.065  2.0019 -0.1308  0.6084
   24SAPC  H19S 3195   3.523   5.386   8.141 -1.3611  2.2757 -1.0221
   24SAPC  C220 3196   3.329   5.385   8.036  0.0138  0.2841 -0.0742
   24SAPC  H20R 3197   3.337   5.359   7.928 -0.5078  0.8222 -0.2462
   24SAPC  H20S 3198   3.346   5.495   8.034 -2.6103  0.7379 -0.9698
   24SAPC  H20T 3199   3.223   5.364   8.060 -0.1762  2.3709  1.1286
   24SAPC   C33 3200   3.360   5.692   9.484 -0.0570 -0.7124 -1.3563
   24SAPC   H3X 3201   3.456   5.748   9.489  0.2088 -1.0953 -1.9930
   24SAPC   H3Y 3202   3.280   5.768   9.486  1.3785  0.8531 -0.7433
   24SAPC   C34 3203   3.353   5.627   9.350 -0.2124  0.1240  0.3386
   24SAPC   H4X 3204   3.265   5.561   9.336 -1.1367  1.2364  0.7241
   24SAPC   H4Y 3205   3.439   5.558   9.338 -0.9473 -0.7037 -0.2796
   24SAPC   C35 3206   3.336   5.726   9.239  0.0426 -0.1382  0.2917
   24SAPC   H5X 3207   3.431   5.784   9.241  0.3235 -0.5329 -0.8241
   24SAPC   H5Y 3208   3.258   5.799   9.270  0.5219 -0.2018  1.7269
   24SAPC   C36 3209   3.298   5.681   9.097  0.2141 -0.1853  0.0942
   24SAPC   H6X 3210   3.206   5.618   9.104  0.2941 -0.1457  2.6282
   24SAPC   H6Y 3211   3.381   5.612   9.070  0.0743 -1.3999  2.4529
   24SAPC   C37 3212   3.292   5.794   8.993  0.0944 -0.1576 -0.4871
   24SAPC   H7X 3213   3.378   5.863   9.004 -1.1376  1.2473  0.6816
   24SAPC   H7Y 3214   3.197   5.849   9.003 -0.9981 -2.1467  0.5913
   24SAPC   C38 3215   3.305   5.747   8.848  0.5143  0.3172  0.1010
   24SAPC   H8X 3216   3.378   5.664   8.843  0.6042  0.3341  0.9919
   24SAPC   H8Y 3217   3.335   5.830   8.782  3.1472 -0.8114 -0.2363
   24SAPC   C39 3218   3.173   5.682   8.796  0.5496 -0.9730 -0.8826
   24SAPC   H9X 3219   3.078   5.737   8.810  0.4229 -1.4353  0.1132
   24SAPC   H9Y 3220   3.151   5.591   8.856 -1.6512  0.9840  1.5249
   24SAPC  C310 3221   3.173   5.651   8.646 -0.2023 -0.0935 -0.1957
   24SAPC  H10X 3222   3.263   5.591   8.622 -0.8335 -2.2914  2.4278
   24SAPC  H10Y 3223   3.184   5.740   8.580 -1.2744 -1.7207 -2.7035
   24SAPC  C311 3224   3.037   5.578   8.610 -0.2542 -0.5292  0.1588
   24SAPC  H11X 3225   2.946   5.633   8.641 -0.8082 -0.8604 -0.8186
   24SAPC  H11Y 3226   3.047   5.487   8.673  0.1786 -0.0393  0.8033
   24SAPC  C312 3227   3.017   5.531   8.463 -0.0898  0.0116  0.2832
   24SAPC  H12X 3228   2.943   5.451   8.446 -0.3289  0.0446  1.1371
   24SAPC  H12Y 3229   3.110   5.480   8.429  0.1423  0.2877  0.4885
   24SAPC  C313 3230   2.991   5.645   8.363  0.5331  0.0664  0.0622
   24SAPC  H13X 3231   3.073   5.720   8.372  0.1912  0.4356  0.1329
   24SAPC  H13Y 3232   2.901   5.697   8.403 -0.1024 -1.5786  0.8776
   24SAPC  C314 3233   2.985   5.591   8.216 -0.2777 -0.0900 -0.4081
   24SAPC  H14X 3234   2.910   5.511   8.202 -1.3956  0.8442  0.0903
   24SAPC  H14Y 3235   3.076   5.535   8.185 -1.0442 -1.7486  0.2171
   24SAPC  C315 3236   2.929   5.702   8.119  0.1392  0.3564  0.5479
   24SAPC  H15X 3237   2.933   5.653   8.019  1.5294  2.7696 -0.6778
   24SAPC  H15Y 3238   2.990   5.794   8.110 -1.7032  1.4963 -0.7227
   24SAPC  C316 3239   2.773   5.730   8.135  0.2431  0.2072 -0.2994
   24SAPC  H16X 3240   2.762   5.819   8.200 -1.4194 -1.0338  1.2202
   24SAPC  H16Y 3241   2.725   5.640   8.178  0.8962  0.5101  1.1114
   24SAPC  C317 3242   2.694   5.770   8.010  0.4747 -0.0252  0.2463
   24SAPC  H17X 3243   2.699   5.690   7.933  0.5432 -0.5831  0.8174
   24SAPC  H17Y 3244   2.725   5.862   7.955 -1.5392  2.0868  2.4272
   24SAPC  C318 3245   2.547   5.796   8.039 -0.4402 -0.1633  0.3868
   24SAPC  H18X 3246   2.493   5.706   8.076  0.8192 -1.4778 -0.8719
   24SAPC  H18Y 3247   2.496   5.835   7.948 -1.3329 -1.3440  0.3518
   24SAPC  H18Z 3248   2.535   5.873   8.118  1.2049  1.2576 -0.6806
   25SAPC     N 3249   1.400   2.051   5.798 -0.5494 -0.3764 -0.2922
   25SAPC   C12 3250   1.549   2.074   5.808 -0.0871  0.3413  0.1889
   25SAPC  H12A 3251   1.600   2.066   5.713  1.4935  2.1290  0.8269
   25SAPC  H12B 3252   1.589   1.998   5.875  0.7427 -0.6348 -1.3536
   25SAPC   C13 3253   1.335   2.111   5.674  0.9612 -0.1190 -0.4109
   25SAPC  H13A 3254   1.383   2.074   5.585 -2.7352  0.4157 -2.8435
   25SAPC  H13B 3255   1.232   2.083   5.665  1.3034 -0.9757 -2.1157
   25SAPC  H13C 3256   1.340   2.219   5.681  2.4837 -0.2471  4.1809
   25SAPC   C14 3257   1.392   1.900   5.799 -0.7156 -0.0805 -0.6269
   25SAPC  H14A 3258   1.460   1.846   5.734  0.6832 -0.5565  1.1788
   25SAPC  H14B 3259   1.404   1.853   5.895 -0.8122 -0.7553 -0.9362
   25SAPC  H14C 3260   1.292   1.872   5.767 -0.7767 -0.5489 -0.0431
   25SAPC   C15 3261   1.327   2.112   5.915 -0.0367  0.2862  0.4223
   25SAPC  H15A 3262   1.222   2.086   5.905  0.2997 -0.5251 -1.2822
   25SAPC  H15B 3263   1.357   2.064   6.007  1.0498  0.0179 -0.0581
   25SAPC  H15C 3264   1.327   2.220   5.920  0.1854  0.2647  0.8815
   25SAPC   C11 3265   1.585   2.219   5.868 -0.0547  0.1605  0.5414
   25SAPC  H11A 3266   1.696   2.212   5.865  0.0812  2.1339 -0.0812
   25SAPC  H11B 3267   1.553   2.233   5.973  2.2477 -0.2273  1.3624
   25SAPC     P 3268   1.461   2.439   5.813  0.2621  0.0758  0.0343
   25SAPC   O13 3269   1.536   2.568   5.808  0.6458  0.0240  0.1685
   25SAPC   O14 3270   1.338   2.430   5.732 -0.0126  0.6622 -0.4211
   25SAPC   O12 3271   1.559   2.327   5.776 -0.2371 -0.5541  0.4187
   25SAPC   O11 3272   1.426   2.420   5.965 -0.8166  0.0496  0.8053
   25SAPC    C1 3273   1.343   2.527   6.027  0.1316  0.1648 -1.2882
   25SAPC    HA 3274   1.367   2.633   6.003 -0.8345  0.6611 -0.1880
   25SAPC    HB 3275   1.234   2.512   6.011 -0.2419 -0.3476  1.3606
   25SAPC    C2 3276   1.353   2.528   6.186 -0.4295  0.2757  0.2312
   25SAPC    HS 3277   1.291   2.610   6.226  0.8633 -0.1128  3.3224
   25SAPC   O21 3278   1.488   2.552   6.236 -1.0833  0.4228 -0.2178
   25SAPC   C21 3279   1.531   2.669   6.222  0.2621  0.2537  0.7449
   25SAPC   O22 3280   1.475   2.759   6.162  0.3686  0.1753 -0.0853
   25SAPC   C22 3281   1.670   2.674   6.298 -0.3825  0.2491  0.1255
   25SAPC   H2R 3282   1.657   2.641   6.403  0.7203 -0.9308 -0.0913
   25SAPC   H2S 3283   1.734   2.595   6.253  0.7525  1.0271  0.3262
   25SAPC    C3 3284   1.298   2.402   6.249 -0.3048 -0.5377  0.2103
   25SAPC    HX 3285   1.386   2.334   6.240  1.6163  1.6341  1.4136
   25SAPC    HY 3286   1.218   2.369   6.179  1.3567 -2.4557 -0.9067
   25SAPC   O31 3287   1.248   2.430   6.382  0.0460 -0.6245  0.6888
   25SAPC   C31 3288   1.222   2.316   6.445  0.4096  0.3405 -0.3842
   25SAPC   O32 3289   1.255   2.206   6.412 -0.3617  0.3300  0.1080
   25SAPC   C32 3290   1.157   2.353   6.584 -0.0976 -0.4894  0.0486
   25SAPC   H2X 3291   1.069   2.418   6.567  1.2623  1.7465  1.1420
   25SAPC   H2Y 3292   1.233   2.401   6.649  2.0068 -2.5751 -0.7122
   25SAPC   C23 3293   1.735   2.818   6.291  0.2743  0.2039  0.0849
   25SAPC   H3R 3294   1.678   2.884   6.361 -0.7794 -1.5074  0.8916
   25SAPC   H3S 3295   1.716   2.864   6.191 -0.4309 -0.0175  0.1149
   25SAPC   C24 3296   1.880   2.818   6.331  0.2506 -0.5878  0.0635
   25SAPC   H4R 3297   1.893   2.780   6.435  3.4845 -1.6517 -0.6290
   25SAPC   H4S 3298   1.908   2.925   6.336 -0.3160 -0.4016 -0.5640
   25SAPC   C25 3299   1.975   2.751   6.232 -0.1985  0.1775 -0.0126
   25SAPC   H5R 3300   1.996   2.803   6.137  1.3864 -0.2939  0.0456
   25SAPC   C26 3301   2.053   2.650   6.262 -0.5091  0.1892 -0.6305
   25SAPC   H6R 3302   2.103   2.609   6.173 -1.7603  2.9360 -2.7438
   25SAPC   C27 3303   2.063   2.565   6.390  0.3064 -0.1772 -0.1558
   25SAPC   H7R 3304   2.119   2.473   6.363 -0.6889 -1.2969  1.4114
   25SAPC   H7S 3305   1.961   2.531   6.418 -0.0209  0.5898 -0.4094
   25SAPC   C28 3306   2.114   2.639   6.514 -0.1326 -0.1892 -0.9242
   25SAPC   H8R 3307   2.150   2.741   6.492  2.2829 -0.8493 -0.3207
   25SAPC   C29 3308   2.092   2.596   6.640  0.6657  0.2950  0.0807
   25SAPC   H9R 3309   2.134   2.655   6.723  1.3230 -1.6204  1.1541
   25SAPC  C210 3310   2.041   2.462   6.681  0.2215  1.1344 -0.5452
   25SAPC  H10R 3311   2.122   2.388   6.664  0.1609  0.2166  2.6405
   25SAPC  H10S 3312   1.960   2.434   6.611  0.8533 -0.1297 -0.7914
   25SAPC  C211 3313   2.005   2.453   6.829  0.4082 -0.8708  0.3219
   25SAPC  H11R 3314   1.907   2.406   6.843 -0.4818  0.3129 -1.5578
   25SAPC  C212 3315   2.092   2.457   6.932  0.0939 -0.1388  0.3906
   25SAPC  H12R 3316   2.052   2.433   7.032 -0.9174  0.5780  0.1699
   25SAPC  C213 3317   2.236   2.492   6.914  0.2927  0.4051 -0.3050
   25SAPC  H13R 3318   2.267   2.482   6.808 -0.3916 -0.0595 -0.4710
   25SAPC  H13S 3319   2.282   2.407   6.969 -0.6063  1.6664  2.6351
   25SAPC  C214 3320   2.272   2.627   6.969 -0.1223  0.5448  0.4082
   25SAPC  H14R 3321   2.282   2.710   6.897  0.1328  0.0731 -0.1097
   25SAPC  C215 3322   2.324   2.661   7.087 -0.7969 -0.3044  0.0781
   25SAPC  H15R 3323   2.314   2.769   7.108 -0.2044  0.4132 -2.8671
   25SAPC  C216 3324   2.356   2.575   7.205 -0.2337 -0.3621 -0.2186
   25SAPC  H16R 3325   2.426   2.623   7.277 -3.0467  2.3079  0.9835
   25SAPC  H16S 3326   2.404   2.481   7.170 -0.5741 -0.6555  0.1090
   25SAPC  C217 3327   2.237   2.527   7.286  0.1208  0.0539  0.0815
   25SAPC  H17R 3328   2.278   2.469   7.371  1.1760 -1.2175 -1.2337
   25SAPC  H17S 3329   2.173   2.460   7.224 -1.9709  1.5711  0.4893
   25SAPC  C218 3330   2.160   2.636   7.367 -0.0566 -0.1350  0.0932
   25SAPC  H18R 3331   2.130   2.725   7.309  1.0164 -0.7241 -1.4432
   25SAPC  H18S 3332   2.225   2.665   7.452 -1.3251 -0.6047  1.2679
   25SAPC  C219 3333   2.028   2.582   7.434 -0.1550 -1.2316  0.8523
   25SAPC  H19R 3334   2.043   2.478   7.471 -2.6253 -1.7010  0.6787
   25SAPC  H19S 3335   1.946   2.568   7.360 -0.2335 -0.7099  0.8435
   25SAPC  C220 3336   1.994   2.687   7.546 -0.6245 -0.2155 -0.1513
   25SAPC  H20R 3337   1.955   2.782   7.504 -0.8995 -0.2550  0.0128
   25SAPC  H20S 3338   2.082   2.693   7.614 -2.1151 -0.0384  1.8731
   25SAPC  H20T 3339   1.905   2.639   7.592 -2.1740  2.3141 -0.3502
   25SAPC   C33 3340   1.104   2.227   6.664  0.1563  0.0891  0.0239
   25SAPC   H3X 3341   1.189   2.158   6.682 -1.5186 -1.5093  2.3433
   25SAPC   H3Y 3342   1.022   2.176   6.609 -1.5416 -0.1457  2.5937
   25SAPC   C34 3343   1.056   2.263   6.808  0.6555 -0.1540 -0.2930
   25SAPC   H4X 3344   0.994   2.181   6.849 -2.9558  1.3794 -2.2224
   25SAPC   H4Y 3345   0.991   2.353   6.802 -2.0647 -2.1114 -2.1756
   25SAPC   C35 3346   1.168   2.292   6.905 -0.6114 -0.3931  0.1525
   25SAPC   H5X 3347   1.237   2.369   6.863 -1.7682  0.6714  0.1637
   25SAPC   H5Y 3348   1.232   2.202   6.922 -1.1478 -0.2413  3.9186
   25SAPC   C36 3349   1.098   2.315   7.041 -0.2682  0.4377  0.3777
   25SAPC   H6X 3350   1.021   2.236   7.055  0.8032 -0.4214  1.6936
   25SAPC   H6Y 3351   1.050   2.414   7.025  1.4690  1.0681 -1.4758
   25SAPC   C37 3352   1.195   2.308   7.163  0.3179  0.1720 -0.7598
   25SAPC   H7X 3353   1.263   2.395   7.149  0.1153  0.3970 -0.3548
   25SAPC   H7Y 3354   1.252   2.215   7.145 -0.2913 -0.2587 -0.5039
   25SAPC   C38 3355   1.131   2.322   7.300 -0.3267  0.6372 -0.0497
   25SAPC   H8X 3356   1.053   2.246   7.323  0.5831 -0.8564 -1.6528
   25SAPC   H8Y 3357   1.071   2.415   7.294 -1.7683 -0.3031 -0.8077
   25SAPC   C39 3358   1.238   2.327   7.411  0.7098  0.1862  0.6951
   25SAPC   H9X 3359   1.305   2.411   7.382  0.9374 -0.5137 -0.8923
   25SAPC   H9Y 3360   1.299   2.234   7.420 -1.6872 -1.9921 -3.0424
   25SAPC  C310 3361   1.167   2.351   7.544  0.2165 -0.5255 -0.2667
   25SAPC  H10X 3362   1.096   2.276   7.583 -0.2619 -0.4012 -0.8844
   25SAPC  H10Y 3363   1.107   2.445   7.541  1.5626  0.3496 -0.7210
   25SAPC  C311 3364   1.273   2.374   7.657  0.2462 -0.5990  0.2586
   25SAPC  H11X 3365   1.227   2.436   7.737  0.0178 -1.0504  0.4818
   25SAPC  H11Y 3366   1.366   2.420   7.619  0.0923  0.5552  1.2180
   25SAPC  C312 3367   1.309   2.244   7.731 -0.4577  0.1505 -0.0371
   25SAPC  H12X 3368   1.419   2.249   7.741 -0.5793  2.7543  0.7665
   25SAPC  H12Y 3369   1.277   2.160   7.666 -0.5010 -0.6790  1.0183
   25SAPC  C313 3370   1.222   2.220   7.862  0.1425 -0.1031 -0.3111
   25SAPC  H13X 3371   1.117   2.245   7.838 -0.5333  0.2014  2.6838
   25SAPC  H13Y 3372   1.254   2.289   7.942 -0.8368 -0.7783  0.6789
   25SAPC  C314 3373   1.236   2.070   7.918  0.4408  0.5316  0.1007
   25SAPC  H14X 3374   1.339   2.049   7.953  0.3666 -1.3036 -0.6934
   25SAPC  H14Y 3375   1.212   2.001   7.834  0.1098 -0.9148  1.3414
   25SAPC  C315 3376   1.135   2.046   8.026 -0.6821  0.3072 -0.3497
   25SAPC  H15X 3377   1.035   2.084   7.997 -0.0477  2.4810  0.1366
   25SAPC  H15Y 3378   1.172   2.109   8.109 -1.3192  0.5151 -0.2195
   25SAPC  C316 3379   1.111   1.897   8.066 -0.0405 -0.8376  0.1893
   25SAPC  H16X 3380   1.211   1.848   8.072  1.3659  1.8641  0.6148
   25SAPC  H16Y 3381   1.064   1.839   7.984  1.3343 -0.3806 -0.9767
   25SAPC  C317 3382   1.064   1.884   8.213 -0.1145 -0.0150  0.4832
   25SAPC  H17X 3383   0.959   1.921   8.212  0.3375  1.4357 -2.4741
   25SAPC  H17Y 3384   1.125   1.957   8.272 -0.4562 -0.7700  1.8233
   25SAPC  C318 3385   1.075   1.745   8.272 -0.1428 -0.2619 -0.2725
   25SAPC  H18X 3386   1.015   1.666   8.223 -1.6967 -0.0275  1.1106
   25SAPC  H18Y 3387   1.019   1.750   8.368 -0.1695  1.0765 -0.3378
   25SAPC  H18Z 3388   1.181   1.720   8.289 -0.1380 -0.1112 -0.0716
   26SAPC     N 3389   1.499   4.411   5.970 -0.5776  0.7149 -0.7097
   26SAPC   C12 3390   1.546   4.302   6.069  0.1931  0.0032 -0.2522
   26SAPC  H12A 3391   1.509   4.208   6.031 -1.1928  0.2441  0.4508
   26SAPC  H12B 3392   1.500   4.321   6.165  0.1749  1.7974 -0.5938
   26SAPC   C13 3393   1.545   4.552   6.008  1.0089  0.2225  0.3802
   26SAPC  H13A 3394   1.475   4.582   6.085  0.5088 -2.0324  0.8770
   26SAPC  H13B 3395   1.648   4.538   6.038  0.7849  1.0577  1.6312
   26SAPC  H13C 3396   1.532   4.620   5.924  0.7022 -1.9626 -1.4399
   26SAPC   C14 3397   1.547   4.375   5.831 -0.6204 -0.0886  0.1665
   26SAPC  H14A 3398   1.488   4.288   5.807 -1.5577  0.5495  0.1029
   26SAPC  H14B 3399   1.523   4.451   5.757  2.0281  0.3049 -0.3937
   26SAPC  H14C 3400   1.652   4.351   5.830 -0.4058  0.5250  2.2762
   26SAPC   C15 3401   1.344   4.412   5.965 -0.6122  0.7815  0.8269
   26SAPC  H15A 3402   1.308   4.317   5.928  4.8311 -0.5400 -2.3537
   26SAPC  H15B 3403   1.294   4.447   6.054 -0.5447 -0.0463  1.1999
   26SAPC  H15C 3404   1.316   4.487   5.892  1.4548  1.1454  0.3154
   26SAPC   C11 3405   1.699   4.279   6.085 -0.5091 -0.0393 -0.2240
   26SAPC  H11A 3406   1.758   4.266   5.992  3.3048  1.6272  1.7439
   26SAPC  H11B 3407   1.719   4.192   6.152 -1.3309 -1.1885 -1.4248
   26SAPC     P 3408   1.762   4.421   6.292 -0.0927 -0.3638  0.0215
   26SAPC   O13 3409   1.882   4.361   6.347 -0.2725 -0.1540 -0.2404
   26SAPC   O14 3410   1.749   4.567   6.321 -0.3396 -0.0923  0.4849
   26SAPC   O12 3411   1.759   4.391   6.140  0.2224 -0.3499 -0.1528
   26SAPC   O11 3412   1.640   4.350   6.343 -0.1202  0.0422 -0.0591
   26SAPC    C1 3413   1.508   4.396   6.374 -0.2571  0.4159  0.9034
   26SAPC    HA 3414   1.485   4.480   6.305  1.6208 -0.1597 -0.5195
   26SAPC    HB 3415   1.429   4.321   6.354 -0.0097  0.2046  0.7035
   26SAPC    C2 3416   1.496   4.443   6.523  0.2770 -0.3814  0.1600
   26SAPC    HS 3417   1.559   4.533   6.541  0.7412 -0.8471  0.9416
   26SAPC   O21 3418   1.528   4.333   6.618  0.0064  0.1064 -0.4286
   26SAPC   C21 3419   1.573   4.371   6.732  0.2521 -0.0358 -0.1757
   26SAPC   O22 3420   1.612   4.485   6.762  0.7105  0.3496  0.0455
   26SAPC   C22 3421   1.599   4.234   6.804  0.5447 -0.0923 -0.1308
   26SAPC   H2R 3422   1.501   4.183   6.813 -0.1896  0.6453 -2.9948
   26SAPC   H2S 3423   1.665   4.169   6.742 -0.1952  0.8457 -1.9569
   26SAPC    C3 3424   1.349   4.502   6.562  0.0543 -0.4486  0.3085
   26SAPC    HX 3425   1.277   4.431   6.517 -1.3121  0.0037  1.6976
   26SAPC    HY 3426   1.346   4.604   6.518  0.9106 -1.2680 -1.7691
   26SAPC   O31 3427   1.326   4.504   6.705 -0.1774  0.4955  0.2760
   26SAPC   C31 3428   1.202   4.518   6.739  0.0349 -0.0452  0.0455
   26SAPC   O32 3429   1.110   4.537   6.666 -0.2592  0.1065 -0.3198
   26SAPC   C32 3430   1.184   4.517   6.889  0.0749  0.5231 -0.3811
   26SAPC   H2X 3431   1.234   4.422   6.918  1.4095  1.6805  1.3328
   26SAPC   H2Y 3432   1.079   4.507   6.924  0.6343  3.4246  2.5744
   26SAPC   C23 3433   1.662   4.262   6.939  0.2146  0.4543 -0.0883
   26SAPC   H3R 3434   1.754   4.323   6.930  1.1510 -0.7042  1.1445
   26SAPC   H3S 3435   1.708   4.168   6.978  1.8405  0.5988 -1.5351
   26SAPC   C24 3436   1.569   4.304   7.054 -0.2187  0.0732  0.0885
   26SAPC   H4R 3437   1.487   4.229   7.058  0.2590 -0.5282 -0.9977
   26SAPC   H4S 3438   1.521   4.402   7.032 -0.2315 -0.4740 -2.6894
   26SAPC   C25 3439   1.641   4.324   7.187  0.0647 -0.7769 -0.5730
   26SAPC   H5R 3440   1.749   4.343   7.190 -0.2950  1.4704  0.0044
   26SAPC   C26 3441   1.588   4.300   7.312 -1.1081 -0.0101  0.4555
   26SAPC   H6R 3442   1.649   4.313   7.403 -0.6541 -1.9384  0.4683
   26SAPC   C27 3443   1.449   4.279   7.356  0.0792 -0.0860  0.8896
   26SAPC   H7R 3444   1.390   4.239   7.271 -1.9271 -1.0568  2.6422
   26SAPC   H7S 3445   1.398   4.369   7.396  0.2036  0.1828  0.4513
   26SAPC   C28 3446   1.451   4.178   7.467 -0.3029  0.1693  0.2111
   26SAPC   H8R 3447   1.489   4.080   7.437 -3.0943 -1.0530  0.3731
   26SAPC   C29 3448   1.427   4.205   7.595  0.4274  0.4746 -0.7155
   26SAPC   H9R 3449   1.429   4.121   7.665  0.1036  0.2971 -0.9160
   26SAPC  C210 3450   1.374   4.337   7.647 -0.1242  0.0946 -0.3787
   26SAPC  H10R 3451   1.272   4.312   7.683  0.1352  0.6685  0.7895
   26SAPC  H10S 3452   1.371   4.425   7.579 -0.5641 -0.8880 -1.6861
   26SAPC  C211 3453   1.451   4.400   7.762  0.4197  0.0882 -0.0548
   26SAPC  H11R 3454   1.510   4.490   7.737 -0.1919  0.3877 -0.4518
   26SAPC  C212 3455   1.464   4.348   7.883  0.0310 -0.4680 -0.4132
   26SAPC  H12R 3456   1.532   4.400   7.952 -2.0102 -0.8953  2.1000
   26SAPC  C213 3457   1.393   4.223   7.937 -0.7937 -0.4316  0.2178
   26SAPC  H13R 3458   1.477   4.156   7.966  1.3504  0.9962 -2.2451
   26SAPC  H13S 3459   1.325   4.180   7.860  0.1541  0.1408 -0.9831
   26SAPC  C214 3460   1.310   4.257   8.059  0.0936 -0.3389  1.0048
   26SAPC  H14R 3461   1.328   4.352   8.110  0.8662  0.2650 -0.3481
   26SAPC  C215 3462   1.212   4.180   8.117 -0.4047  0.2191  0.3953
   26SAPC  H15R 3463   1.170   4.211   8.213 -1.7579 -0.1742 -0.0545
   26SAPC  C216 3464   1.153   4.043   8.069 -0.4206  0.2809  0.1172
   26SAPC  H16R 3465   1.220   3.956   8.087 -1.0505 -0.0060  1.1844
   26SAPC  H16S 3466   1.127   4.056   7.962 -2.1602 -0.2483  0.4436
   26SAPC  C217 3467   1.023   4.009   8.143 -0.3176 -0.7974 -0.6386
   26SAPC  H17R 3468   1.043   3.992   8.251 -1.5308  0.9964 -0.0809
   26SAPC  H17S 3469   0.985   3.913   8.102 -0.3264 -0.5665 -1.1706
   26SAPC  C218 3470   0.913   4.119   8.145 -0.4279  0.9690 -0.3665
   26SAPC  H18R 3471   0.950   4.211   8.195  2.6887 -0.2596 -0.1584
   26SAPC  H18S 3472   0.841   4.072   8.215 -0.4839  0.3072 -0.8606
   26SAPC  C219 3473   0.847   4.147   8.010  0.3298 -0.6167 -0.0800
   26SAPC  H19R 3474   0.842   4.054   7.950 -1.5032 -0.6289  0.0352
   26SAPC  H19S 3475   0.896   4.226   7.948 -0.2950  0.4250  0.7080
   26SAPC  C220 3476   0.707   4.208   8.032 -0.3943 -0.3221 -0.3342
   26SAPC  H20R 3477   0.637   4.137   8.083 -1.7282  0.5502 -0.8853
   26SAPC  H20S 3478   0.661   4.230   7.933 -1.9836 -0.7204  0.2733
   26SAPC  H20T 3479   0.707   4.293   8.104 -2.4236 -0.9397  0.4819
   26SAPC   C33 3480   1.244   4.639   6.956  0.0526  0.2871 -0.1076
   26SAPC   H3X 3481   1.181   4.723   6.920  1.2869 -0.0806 -3.5147
   26SAPC   H3Y 3482   1.344   4.665   6.916  0.5531  0.2209  1.0704
   26SAPC   C34 3483   1.257   4.643   7.104  0.9432 -0.1304 -0.8074
   26SAPC   H4X 3484   1.286   4.746   7.136 -2.6311  1.0066 -0.7869
   26SAPC   H4Y 3485   1.335   4.575   7.145  0.2436 -0.1352  0.5885
   26SAPC   C35 3486   1.127   4.609   7.177 -0.2685  0.3016 -0.4544
   26SAPC   H5X 3487   1.104   4.503   7.154  1.0089 -0.6246  2.2154
   26SAPC   H5Y 3488   1.037   4.670   7.152 -1.4750 -1.3171 -0.2229
   26SAPC   C36 3489   1.148   4.612   7.333  0.5411 -0.6024  0.2643
   26SAPC   H6X 3490   1.171   4.719   7.352 -2.5410 -0.0896  1.5877
   26SAPC   H6Y 3491   1.242   4.557   7.354 -0.4592 -2.5635 -0.1103
   26SAPC   C37 3492   1.032   4.556   7.411 -0.3562  0.0956  0.6322
   26SAPC   H7X 3493   1.032   4.448   7.384  1.2891 -0.5377  2.7679
   26SAPC   H7Y 3494   0.938   4.610   7.389 -0.3995  0.3163  1.3197
   26SAPC   C38 3495   1.062   4.572   7.559  0.1118  0.1599  0.2457
   26SAPC   H8X 3496   1.081   4.681   7.567  0.1778  0.2701 -1.1777
   26SAPC   H8Y 3497   1.161   4.531   7.587 -0.7200 -2.3113 -0.1744
   26SAPC   C39 3498   0.958   4.520   7.655 -0.3182 -0.5180 -0.0699
   26SAPC   H9X 3499   0.920   4.421   7.622 -1.6061 -0.4318  1.0739
   26SAPC   H9Y 3500   0.867   4.584   7.661  0.3122  0.7337 -2.5300
   26SAPC  C310 3501   1.009   4.507   7.795 -0.3171  0.8880 -0.1545
   26SAPC  H10X 3502   1.074   4.595   7.818 -1.1190  1.8125 -1.3162
   26SAPC  H10Y 3503   1.075   4.418   7.804 -0.8058  0.4159 -1.0986
   26SAPC  C311 3504   0.901   4.506   7.900  0.2028  0.1521 -0.5247
   26SAPC  H11X 3505   0.833   4.420   7.881  0.9523 -0.2114 -1.7263
   26SAPC  H11Y 3506   0.851   4.604   7.884 -0.9010 -0.7727 -3.5746
   26SAPC  C312 3507   0.960   4.490   8.035 -0.1216 -0.3797 -0.0656
   26SAPC  H12X 3508   0.998   4.386   8.045 -2.7076 -1.7175 -2.5653
   26SAPC  H12Y 3509   0.876   4.510   8.105 -0.2701  1.0065 -0.6101
   26SAPC  C313 3510   1.071   4.589   8.078  0.6020  0.0848 -0.9239
   26SAPC  H13X 3511   1.021   4.687   8.089 -0.8356 -0.6818 -0.3383
   26SAPC  H13Y 3512   1.156   4.588   8.006  1.4115 -0.6144  0.0149
   26SAPC  C314 3513   1.108   4.555   8.222  0.8154  0.4597  0.8062
   26SAPC  H14X 3514   1.141   4.450   8.217  0.8385  0.5345 -1.6290
   26SAPC  H14Y 3515   1.020   4.558   8.289 -2.8591 -4.4881 -3.0709
   26SAPC  C315 3516   1.232   4.622   8.278 -0.1094 -0.1279 -0.2066
   26SAPC  H15X 3517   1.196   4.719   8.320  1.0633 -0.8156  2.5780
   26SAPC  H15Y 3518   1.304   4.627   8.193  0.0715 -1.2131 -0.1255
   26SAPC  C316 3519   1.296   4.540   8.394  0.3838 -0.4185 -0.2987
   26SAPC  H16X 3520   1.337   4.440   8.368 -1.4310 -1.7644  1.6738
   26SAPC  H16Y 3521   1.224   4.511   8.474  1.3350 -3.0774 -0.2988
   26SAPC  C317 3522   1.409   4.623   8.462  0.2060  0.0642  0.6097
   26SAPC  H17X 3523   1.366   4.710   8.516  2.2029  1.6343 -0.1928
   26SAPC  H17Y 3524   1.473   4.652   8.376 -1.3551 -2.8017 -1.7261
   26SAPC  C318 3525   1.489   4.536   8.567 -0.0891 -0.4088 -0.2938
   26SAPC  H18X 3526   1.516   4.435   8.529  0.1469 -1.3140  2.0833
   26SAPC  H18Y 3527   1.424   4.516   8.655 -0.1652  1.5667  0.1491
   26SAPC  H18Z 3528   1.578   4.590   8.606 -0.2298 -0.0130 -0.5171
   27SAPC     N 3529   4.046   5.054   6.025 -0.8351  0.5518 -0.1544
   27SAPC   C12 3530   4.016   4.916   6.078 -0.0671 -0.1190  1.0215
   27SAPC  H12A 3531   3.928   4.892   6.020 -0.5010  2.2698  0.5998
   27SAPC  H12B 3532   3.989   4.912   6.182  0.9762 -3.9638  1.3059
   27SAPC   C13 3533   4.192   5.083   6.041 -0.5565  0.6165 -0.3737
   27SAPC  H13A 3534   4.233   5.058   6.138  0.9920 -0.7883 -1.3291
   27SAPC  H13B 3535   4.247   5.024   5.968  2.8842  2.9744  0.0981
   27SAPC  H13C 3536   4.214   5.185   6.013  1.0234  1.3286  2.9699
   27SAPC   C14 3537   4.027   5.052   5.878  0.3211  0.3582 -0.2912
   27SAPC  H14A 3538   3.920   5.055   5.858  0.1921 -0.0440  0.3214
   27SAPC  H14B 3539   4.069   5.138   5.828 -0.5494 -0.8697 -3.3584
   27SAPC  H14C 3540   4.068   4.967   5.826 -0.9706 -0.7300  0.3907
   27SAPC   C15 3541   3.960   5.156   6.089 -0.7325 -0.0841 -0.4061
   27SAPC  H15A 3542   3.943   5.124   6.191 -4.2306 -2.5236 -1.5479
   27SAPC  H15B 3543   4.010   5.251   6.085  1.2646 -1.0945 -0.8929
   27SAPC  H15C 3544   3.860   5.163   6.048 -1.1827 -0.6288  0.5583
   27SAPC   C11 3545   4.108   4.789   6.055 -0.7511 -0.3357 -0.0368
   27SAPC  H11A 3546   4.066   4.704   6.113 -0.5804  0.3423  1.1036
   27SAPC  H11B 3547   4.203   4.814   6.107 -0.6484 -0.2720 -0.2538
   27SAPC     P 3548   4.259   4.757   5.851  0.2084  0.3683 -0.5285
   27SAPC   O13 3549   4.240   4.683   5.726 -0.2003  0.3356 -0.1247
   27SAPC   O14 3550   4.314   4.894   5.851  0.2311 -0.5613 -0.5922
   27SAPC   O12 3551   4.114   4.762   5.914 -0.3711 -0.2503 -0.4101
   27SAPC   O11 3552   4.339   4.668   5.956 -0.6835  0.2634  0.0932
   27SAPC    C1 3553   4.326   4.522   5.970 -0.1149  0.0946  0.6208
   27SAPC    HA 3554   4.248   4.482   5.901 -1.0993  1.6133  0.8165
   27SAPC    HB 3555   4.427   4.480   5.952 -0.5519 -1.2226  1.1378
   27SAPC    C2 3556   4.293   4.481   6.118 -0.1874  0.1537  0.2106
   27SAPC    HS 3557   4.194   4.528   6.138  1.0529  3.1712 -0.1631
   27SAPC   O21 3558   4.393   4.538   6.199 -0.1483 -0.2213  0.1712
   27SAPC   C21 3559   4.345   4.611   6.301  0.7257  0.0791 -0.8173
   27SAPC   O22 3560   4.229   4.631   6.330 -0.0498  0.8121  0.6239
   27SAPC   C22 3561   4.464   4.663   6.384  0.1882 -0.2331  0.3898
   27SAPC   H2R 3562   4.560   4.631   6.339  0.3890  0.0007  0.6494
   27SAPC   H2S 3563   4.464   4.773   6.373 -2.3672 -0.3081 -1.2465
   27SAPC    C3 3564   4.284   4.329   6.141 -0.3283 -1.1585  0.9086
   27SAPC    HX 3565   4.380   4.281   6.115  0.5149  0.2889  1.1996
   27SAPC    HY 3566   4.213   4.287   6.067  3.3935 -0.0764 -3.7528
   27SAPC   O31 3567   4.272   4.289   6.278  0.0847 -0.4273  0.2251
   27SAPC   C31 3568   4.153   4.267   6.318  0.1742  0.7487 -0.2628
   27SAPC   O32 3569   4.052   4.274   6.249 -0.0489 -0.2356 -0.5223
   27SAPC   C32 3570   4.163   4.210   6.461  0.0389 -0.4070  0.3406
   27SAPC   H2X 3571   4.269   4.199   6.493  0.3254 -2.9232 -1.2004
   27SAPC   H2Y 3572   4.115   4.110   6.458 -0.0260 -0.3583 -2.3453
   27SAPC   C23 3573   4.462   4.621   6.533 -0.2910  0.6218  0.3347
   27SAPC   H3R 3574   4.368   4.658   6.580 -0.6593 -1.8399  1.7250
   27SAPC   H3S 3575   4.548   4.660   6.591 -1.1924  3.3046 -0.0139
   27SAPC   C24 3576   4.471   4.467   6.564  0.7301 -0.2083  0.2746
   27SAPC   H4R 3577   4.374   4.420   6.541  0.8196 -0.2522 -0.0152
   27SAPC   H4S 3578   4.479   4.479   6.674 -1.3875 -0.9364  0.5465
   27SAPC   C25 3579   4.577   4.374   6.513 -0.6682  0.1212  0.3779
   27SAPC   H5R 3580   4.554   4.295   6.440  1.1972  2.4043 -2.9511
   27SAPC   C26 3581   4.705   4.368   6.547 -0.3375 -0.0881  0.1936
   27SAPC   H6R 3582   4.779   4.299   6.505 -0.9144 -1.2865  1.1003
   27SAPC   C27 3583   4.775   4.468   6.632 -0.6008  0.0681  0.1917
   27SAPC   H7R 3584   4.707   4.549   6.667 -1.6155 -0.0070 -1.4542
   27SAPC   H7S 3585   4.841   4.535   6.573  1.4590  0.3699  2.6769
   27SAPC   C28 3586   4.852   4.401   6.744 -0.0372 -0.1273 -0.9079
   27SAPC   H8R 3587   4.940   4.344   6.711 -0.5575 -0.8189 -1.1211
   27SAPC   C29 3588   4.817   4.388   6.872  0.3115 -0.5476 -0.1422
   27SAPC   H9R 3589   4.881   4.332   6.942  1.9408  0.4383 -0.7897
   27SAPC  C210 3590   4.700   4.460   6.933 -0.1293  0.5863 -0.1323
   27SAPC  H10R 3591   4.614   4.390   6.938  0.8898 -0.6171  1.4826
   27SAPC  H10S 3592   4.679   4.546   6.866 -0.8551 -0.1851 -0.9383
   27SAPC  C211 3593   4.715   4.520   7.068  1.0845 -0.2381  0.0864
   27SAPC  H11R 3594   4.651   4.480   7.148 -1.7577  0.8181 -1.5014
   27SAPC  C212 3595   4.802   4.617   7.105 -0.1634  0.2384 -0.3269
   27SAPC  H12R 3596   4.807   4.643   7.212  0.3311 -0.5959 -0.1327
   27SAPC  C213 3597   4.899   4.699   7.019 -0.2430 -0.1194  0.2548
   27SAPC  H13R 3598   4.904   4.651   6.919 -3.6246 -1.6873  0.6775
   27SAPC  H13S 3599   4.998   4.684   7.065 -0.4480  0.8679  1.0632
   27SAPC  C214 3600   4.847   4.840   6.997  1.0655  0.4536 -0.1531
   27SAPC  H14R 3601   4.745   4.845   6.955  0.2842 -1.3859  1.3909
   27SAPC  C215 3602   4.919   4.956   7.006 -0.0108 -0.7921  0.2423
   27SAPC  H15R 3603   4.874   5.053   6.984  1.9091 -0.1385 -1.0265
   27SAPC  C216 3604   5.061   4.985   7.051 -0.7330 -0.1012  0.0945
   27SAPC  H16R 3605   5.122   5.019   6.964 -1.2282 -0.8243 -0.5462
   27SAPC  H16S 3606   5.098   4.885   7.081  1.5171  0.1406 -1.6064
   27SAPC  C217 3607   5.068   5.084   7.166 -0.7463  0.3054  0.1308
   27SAPC  H17R 3608   5.012   5.178   7.146  0.0387  0.5130 -1.2193
   27SAPC  H17S 3609   5.172   5.116   7.190 -0.2912 -0.0398 -1.2850
   27SAPC  C218 3610   5.028   5.015   7.296  0.1448  0.7074  0.1413
   27SAPC  H18R 3611   5.084   4.919   7.300 -0.3751  0.3559 -0.7656
   27SAPC  H18S 3612   4.920   4.989   7.298  0.4888 -0.7790  0.9593
   27SAPC  C219 3613   5.059   5.102   7.421 -0.5729 -0.1802  0.4575
   27SAPC  H19R 3614   4.985   5.184   7.429 -2.7169 -1.3790 -3.9125
   27SAPC  H19S 3615   5.160   5.149   7.417 -0.5265  0.1053  3.2362
   27SAPC  C220 3616   5.055   5.024   7.550 -0.2104  0.3926 -0.5675
   27SAPC  H20R 3617   5.034   5.083   7.641  1.3108 -0.7421  0.5743
   27SAPC  H20S 3618   5.150   4.971   7.574 -1.0407 -1.8115 -1.8203
   27SAPC  H20T 3619   4.976   4.946   7.541 -0.8007  0.6405  1.8215
   27SAPC   C33 3620   4.084   4.287   6.570 -0.3497 -0.0174 -0.5307
   27SAPC   H3X 3621   3.978   4.298   6.537  0.2040 -1.0837 -2.8216
   27SAPC   H3Y 3622   4.121   4.392   6.571 -1.4629  0.3940  0.3765
   27SAPC   C34 3623   4.085   4.225   6.710 -0.1670 -0.9335  0.9913
   27SAPC   H4X 3624   4.068   4.116   6.698 -1.4439 -0.4778 -2.3269
   27SAPC   H4Y 3625   4.000   4.277   6.758 -0.6564  1.5884 -2.2881
   27SAPC   C35 3626   4.223   4.255   6.779  0.3242 -0.2195 -0.2035
   27SAPC   H5X 3627   4.244   4.364   6.776 -0.2873 -0.0121  1.8818
   27SAPC   H5Y 3628   4.309   4.203   6.732  1.4526  0.8829  0.5857
   27SAPC   C36 3629   4.224   4.207   6.921 -0.0473 -0.0895  0.2346
   27SAPC   H6X 3630   4.250   4.099   6.926 -1.7821 -0.6202 -1.3621
   27SAPC   H6Y 3631   4.120   4.218   6.958  0.0960  0.0109  0.6219
   27SAPC   C37 3632   4.321   4.298   7.002  0.1912  0.1364  0.3015
   27SAPC   H7X 3633   4.279   4.401   7.003  2.1704  1.0378 -1.2645
   27SAPC   H7Y 3634   4.420   4.296   6.952 -0.3510  0.6407 -0.8449
   27SAPC   C38 3635   4.342   4.259   7.146 -0.3494  0.4624 -0.2325
   27SAPC   H8X 3636   4.421   4.314   7.202 -0.0394 -0.4479  0.2446
   27SAPC   H8Y 3637   4.354   4.149   7.147 -1.5050  0.3002 -1.5883
   27SAPC   C39 3638   4.218   4.287   7.218 -0.8661  0.4719  0.5014
   27SAPC   H9X 3639   4.120   4.245   7.185 -1.5317  0.2257  2.6524
   27SAPC   H9Y 3640   4.197   4.395   7.226 -2.5222  0.2676 -0.5264
   27SAPC  C310 3641   4.221   4.236   7.365  0.2747  0.1535  0.4677
   27SAPC  H10X 3642   4.231   4.125   7.368  0.8573  0.2135  3.3222
   27SAPC  H10Y 3643   4.121   4.257   7.407 -1.1714 -1.1390 -2.1071
   27SAPC  C311 3644   4.334   4.301   7.442 -0.0019 -0.7266 -0.1056
   27SAPC  H11X 3645   4.321   4.411   7.448  0.5578 -0.6785  0.3770
   27SAPC  H11Y 3646   4.431   4.280   7.392  0.8216 -0.2234  1.2238
   27SAPC  C312 3647   4.341   4.243   7.582  0.7158 -0.1281 -0.2475
   27SAPC  H12X 3648   4.360   4.134   7.570 -2.2308 -0.7114 -0.5815
   27SAPC  H12Y 3649   4.240   4.259   7.627  0.7473  1.0173 -0.5682
   27SAPC  C313 3650   4.434   4.307   7.674  0.0541 -0.2762 -0.8218
   27SAPC  H13X 3651   4.407   4.414   7.682  1.1623  0.0040 -0.6773
   27SAPC  H13Y 3652   4.538   4.311   7.634  1.1925  3.5461  1.9491
   27SAPC  C314 3653   4.426   4.258   7.813  0.4369 -0.3838 -0.2455
   27SAPC  H14X 3654   4.474   4.158   7.822  3.5011  0.9727 -0.0584
   27SAPC  H14Y 3655   4.319   4.245   7.838  0.2063  1.0881 -0.3525
   27SAPC  C315 3656   4.512   4.348   7.915  0.3869 -1.1207  0.2124
   27SAPC  H15X 3657   4.605   4.366   7.857 -1.1927  1.8248 -1.6652
   27SAPC  H15Y 3658   4.535   4.293   8.008 -0.7098 -0.0823  1.1280
   27SAPC  C316 3659   4.448   4.484   7.949  0.6052  0.4209  0.5910
   27SAPC  H16X 3660   4.359   4.464   8.012  1.1547 -3.9870  0.2584
   27SAPC  H16Y 3661   4.422   4.548   7.862 -0.2990  1.3474  1.5098
   27SAPC  C317 3662   4.555   4.575   8.021 -0.5058 -0.4969 -0.0200
   27SAPC  H17X 3663   4.503   4.669   8.049 -0.4657 -1.1593  2.5072
   27SAPC  H17Y 3664   4.646   4.595   7.962 -1.6263  0.2469 -1.5710
   27SAPC  C318 3665   4.604   4.521   8.153  0.5581  0.5975 -0.5055
   27SAPC  H18X 3666   4.519   4.509   8.224  1.1259 -0.2097  0.0527
   27SAPC  H18Y 3667   4.679   4.595   8.187  1.9767 -0.8916 -0.2815
   27SAPC  H18Z 3668   4.649   4.420   8.157 -1.3894 -0.2842  1.7230
   28SAPC     N 3669   4.924   1.970   6.216  0.7013 -0.3981  0.0359
   28SAPC   C12 3670   4.868   1.883   6.328  0.0556  1.0145 -0.4943
   28SAPC  H12A 3671   4.766   1.853   6.311  0.1300  1.7230 -2.3691
   28SAPC  H12B 3672   4.854   1.949   6.412 -3.6834 -0.1611 -0.0083
   28SAPC   C13 3673   4.898   1.915   6.084  0.8077  0.0202  0.9233
   28SAPC  H13A 3674   4.796   1.887   6.067  1.0025  0.0275 -0.3597
   28SAPC  H13B 3675   4.927   1.992   6.013  2.1513 -0.8436  0.4927
   28SAPC  H13C 3676   4.972   1.840   6.060  0.5971  0.6797 -2.1890
   28SAPC   C14 3677   4.858   2.106   6.226 -0.0082  0.9098  0.5492
   28SAPC  H14A 3678   4.873   2.155   6.321  0.4619  0.4438  0.7215
   28SAPC  H14B 3679   4.897   2.173   6.151  0.8446  0.7471  0.8358
   28SAPC  H14C 3680   4.752   2.098   6.209  0.5356 -1.4853 -2.5066
   28SAPC   C15 3681   5.073   1.982   6.221 -0.8998 -0.5671  0.1471
   28SAPC  H15A 3682   5.115   2.035   6.137  0.2536 -1.1586  0.3213
   28SAPC  H15B 3683   5.104   2.031   6.312 -1.7546  0.5048 -0.1279
   28SAPC  H15C 3684   5.117   1.884   6.211  1.0431  0.3172 -0.4823
   28SAPC   C11 3685   4.953   1.752   6.368 -0.1299 -1.3264 -0.0621
   28SAPC  H11A 3686   4.904   1.695   6.451 -1.8466  0.3890  0.1737
   28SAPC  H11B 3687   5.045   1.794   6.415 -1.4284  2.2291 -0.3994
   28SAPC     P 3688   4.880   1.549   6.224 -0.1224 -0.4639 -0.1405
   28SAPC   O13 3689   4.750   1.615   6.215  0.2141  0.6155  0.2510
   28SAPC   O14 3690   4.936   1.483   6.102 -0.5535  0.0045 -0.5194
   28SAPC   O12 3691   4.987   1.664   6.265  0.4906  0.0307  0.3917
   28SAPC   O11 3692   4.880   1.455   6.351  0.3729  0.6013  0.2352
   28SAPC    C1 3693   5.012   1.391   6.370  0.7576 -0.2735  0.5576
   28SAPC    HA 3694   5.009   1.291   6.323 -0.4450  0.4949 -1.1008
   28SAPC    HB 3695   5.095   1.448   6.322 -0.6916  2.0561  0.6500
   28SAPC    C2 3696   5.037   1.367   6.520  0.5011  0.2176  0.6962
   28SAPC    HS 3697   5.124   1.299   6.507  0.6401  0.7396 -1.4005
   28SAPC   O21 3698   4.919   1.311   6.587 -0.3855  0.1502  0.3105
   28SAPC   C21 3699   4.938   1.193   6.634 -0.2970  0.2798  0.3487
   28SAPC   O22 3700   5.037   1.122   6.625 -0.1897 -0.2553  0.7608
   28SAPC   C22 3701   4.814   1.153   6.711  0.5120  0.0255 -0.3170
   28SAPC   H2R 3702   4.738   1.233   6.716 -1.7706 -1.8043 -2.7329
   28SAPC   H2S 3703   4.761   1.063   6.673  0.8651 -0.3167 -0.0168
   28SAPC    C3 3704   5.087   1.490   6.600  0.2308  1.0598  0.0025
   28SAPC    HX 3705   5.004   1.563   6.608 -1.2477  0.0513 -3.7931
   28SAPC    HY 3706   5.166   1.549   6.550 -0.9689  1.4349 -1.5330
   28SAPC   O31 3707   5.133   1.452   6.729 -0.7899  0.7262 -0.3105
   28SAPC   C31 3708   5.246   1.386   6.735 -0.4533 -1.1287  0.1853
   28SAPC   O32 3709   5.329   1.382   6.648 -0.4341  0.0641 -0.1607
   28SAPC   C32 3710   5.273   1.326   6.873  0.4596  0.3931 -0.8320
   28SAPC   H2X 3711   5.279   1.216   6.863  1.7232  0.3463  0.2258
   28SAPC   H2Y 3712   5.184   1.356   6.933  1.1505  4.3065 -1.4810
   28SAPC   C23 3713   4.865   1.113   6.856  0.3212 -0.7460  0.3345
   28SAPC   H3R 3714   4.938   1.030   6.856 -0.6330 -1.7122 -2.8128
   28SAPC   H3S 3715   4.783   1.072   6.918 -0.2487  0.6220  0.5200
   28SAPC   C24 3716   4.937   1.226   6.932 -0.0449  0.1707 -0.3032
   28SAPC   H4R 3717   4.965   1.186   7.032  0.3122  0.2279 -0.3814
   28SAPC   H4S 3718   5.032   1.228   6.876 -0.5233  1.2734 -1.1062
   28SAPC   C25 3719   4.875   1.364   6.936 -0.2843  0.2340  0.6827
   28SAPC   H5R 3720   4.869   1.420   6.842  1.1094 -1.9297 -0.7985
   28SAPC   C26 3721   4.827   1.420   7.047  0.5139  0.3967  0.1346
   28SAPC   H6R 3722   4.786   1.522   7.042  0.7273  0.5097  0.6153
   28SAPC   C27 3723   4.815   1.344   7.176  0.2216  0.1985 -0.4282
   28SAPC   H7R 3724   4.767   1.244   7.161 -2.5095  1.6715 -2.3613
   28SAPC   H7S 3725   4.738   1.394   7.239  2.0599  0.0735  2.0678
   28SAPC   C28 3726   4.941   1.341   7.262  0.3685 -0.3782 -0.7793
   28SAPC   H8R 3727   5.039   1.330   7.213  1.4905 -2.1892  1.6505
   28SAPC   C29 3728   4.943   1.327   7.395 -0.3933  0.3174  0.2626
   28SAPC   H9R 3729   5.044   1.314   7.436  0.0155 -0.8199 -1.0060
   28SAPC  C210 3730   4.824   1.307   7.492 -0.1402 -0.2433 -0.7644
   28SAPC  H10R 3731   4.737   1.262   7.440 -1.7450 -0.4493  1.8812
   28SAPC  H10S 3732   4.796   1.404   7.537  2.8020  0.5887 -0.4876
   28SAPC  C211 3733   4.877   1.224   7.603 -0.3824 -0.0012 -0.2245
   28SAPC  H11R 3734   4.910   1.121   7.582  1.9982  0.0574  2.5993
   28SAPC  C212 3735   4.908   1.266   7.729 -0.1299 -0.3460 -0.0128
   28SAPC  H12R 3736   4.961   1.189   7.787  1.1643  0.5625  0.0764
   28SAPC  C213 3737   4.886   1.399   7.801  0.8185  0.3688 -0.4944
   28SAPC  H13R 3738   4.798   1.378   7.866  1.2141  2.7287  0.9576
   28SAPC  H13S 3739   4.855   1.494   7.752  0.8623  0.8991  0.4760
   28SAPC  C214 3740   5.014   1.436   7.875 -0.1406 -0.1315  0.5057
   28SAPC  H14R 3741   5.078   1.505   7.817  0.0136  0.5965  1.5269
   28SAPC  C215 3742   5.058   1.393   7.997 -0.3759  0.2063 -0.2586
   28SAPC  H15R 3743   5.156   1.425   8.036 -1.1812  1.2494  0.9815
   28SAPC  C216 3744   4.982   1.308   8.089  0.4149  0.0627  0.5513
   28SAPC  H16R 3745   4.904   1.253   8.031  1.9225 -0.4093 -1.1103
   28SAPC  H16S 3746   4.930   1.366   8.168 -0.0807  0.3663  0.0114
   28SAPC  C217 3747   5.068   1.198   8.153 -0.1577 -0.2993 -0.0678
   28SAPC  H17R 3748   5.000   1.133   8.212  0.3272 -1.6753 -0.9786
   28SAPC  H17S 3749   5.143   1.230   8.229 -0.0854 -3.8431  1.5412
   28SAPC  C218 3750   5.134   1.108   8.043  0.0620  0.1240  0.0326
   28SAPC  H18R 3751   5.224   1.151   7.994 -0.7392  0.2314 -1.3863
   28SAPC  H18S 3752   5.068   1.092   7.955  0.6339  2.5002 -0.9190
   28SAPC  C219 3753   5.172   0.971   8.100 -0.2358  0.4421 -0.2854
   28SAPC  H19R 3754   5.192   0.901   8.016 -1.2082  0.2815 -0.3932
   28SAPC  H19S 3755   5.077   0.936   8.145 -1.3343 -3.3709 -4.7601
   28SAPC  C220 3756   5.284   0.980   8.195  0.1783  0.6720 -0.2877
   28SAPC  H20R 3757   5.265   1.043   8.284 -1.1463 -0.4256  0.2512
   28SAPC  H20S 3758   5.370   1.022   8.138 -1.8427  3.0913 -1.7232
   28SAPC  H20T 3759   5.321   0.881   8.230 -1.8059 -0.9904 -2.5761
   28SAPC   C33 3760   5.405   1.375   6.933  0.8610  0.2729 -0.5901
   28SAPC   H3X 3761   5.419   1.482   6.906  2.6777 -0.0101 -0.9123
   28SAPC   H3Y 3762   5.499   1.322   6.905 -0.4026 -0.7743 -3.1600
   28SAPC   C34 3763   5.417   1.364   7.087  0.3884  0.6005  0.1516
   28SAPC   H4X 3764   5.320   1.400   7.126 -0.5556 -2.7300  1.2217
   28SAPC   H4Y 3765   5.499   1.430   7.121  0.5012  0.0709  0.9479
   28SAPC   C35 3766   5.423   1.212   7.141  0.1842 -0.6678  0.5526
   28SAPC   H5X 3767   5.530   1.188   7.127  0.8917  0.2180  3.5826
   28SAPC   H5Y 3768   5.347   1.157   7.081 -0.6933 -0.7035  1.6513
   28SAPC   C36 3769   5.382   1.207   7.290 -0.1451 -0.2962  0.1539
   28SAPC   H6X 3770   5.378   1.102   7.326  2.4464 -0.2936  0.6262
   28SAPC   H6Y 3771   5.278   1.243   7.303  0.1187  0.3033  0.6586
   28SAPC   C37 3772   5.484   1.283   7.377  0.1731 -1.0470 -0.5830
   28SAPC   H7X 3773   5.474   1.393   7.372 -1.6280 -1.1309  0.2075
   28SAPC   H7Y 3774   5.587   1.254   7.347 -0.2189 -2.1907 -0.8748
   28SAPC   C38 3775   5.465   1.263   7.533  0.3164 -0.5275  0.2486
   28SAPC   H8X 3776   5.486   1.156   7.556 -1.0193 -0.5141  1.6649
   28SAPC   H8Y 3777   5.357   1.288   7.543  0.5931  1.8953 -1.8215
   28SAPC   C39 3778   5.537   1.354   7.631 -0.7065  0.1463 -0.0594
   28SAPC   H9X 3779   5.487   1.453   7.631  1.3894  1.2688  1.7168
   28SAPC   H9Y 3780   5.639   1.373   7.594 -0.9319 -2.6743 -2.5471
   28SAPC  C310 3781   5.541   1.299   7.779 -0.4401 -0.8143  0.2206
   28SAPC  H10X 3782   5.600   1.205   7.779 -0.7530 -1.0096 -0.0060
   28SAPC  H10Y 3783   5.439   1.277   7.817 -0.6181 -2.6749 -1.2055
   28SAPC  C311 3784   5.600   1.412   7.867  0.4706 -0.7115 -0.1906
   28SAPC  H11X 3785   5.533   1.501   7.868  0.1329 -0.9353 -1.6068
   28SAPC  H11Y 3786   5.702   1.448   7.841 -0.0018  1.1050  0.3411
   28SAPC  C312 3787   5.613   1.365   8.007 -0.6150 -0.0028  0.0798
   28SAPC  H12X 3788   5.688   1.285   8.022  0.1512  0.3879 -1.4480
   28SAPC  H12Y 3789   5.519   1.326   8.052 -1.8248  1.3915 -1.1096
   28SAPC  C313 3790   5.668   1.479   8.094  0.2818 -0.4790 -0.2104
   28SAPC  H13X 3791   5.621   1.577   8.068  1.2844 -0.0903 -0.6296
   28SAPC  H13Y 3792   5.772   1.494   8.059  0.5784  1.7660  1.3889
   28SAPC  C314 3793   5.676   1.453   8.250 -0.2406 -0.1365  0.0392
   28SAPC  H14X 3794   5.737   1.361   8.261  0.2388  0.1534 -0.1550
   28SAPC  H14Y 3795   5.572   1.437   8.285 -1.0884  0.2556 -2.1418
   28SAPC  C315 3796   5.731   1.579   8.320 -0.2756  0.5584  0.4971
   28SAPC  H15X 3797   5.770   1.651   8.245 -1.9499  1.1463  0.1559
   28SAPC  H15Y 3798   5.813   1.557   8.393 -0.1823  0.5069  0.3770
   28SAPC  C316 3799   5.640   1.653   8.408 -0.5183  0.3699  0.5460
   28SAPC  H16X 3800   5.550   1.688   8.354 -0.1921 -0.7385 -0.7726
   28SAPC  H16Y 3801   5.689   1.745   8.447 -2.6072  1.2850  1.1509
   28SAPC  C317 3802   5.591   1.578   8.531 -0.9376  0.3569  0.0026
   28SAPC  H17X 3803   5.668   1.516   8.582 -2.2960 -0.6225  0.9366
   28SAPC  H17Y 3804   5.512   1.505   8.502  0.5165 -1.2651 -0.0118
   28SAPC  C318 3805   5.523   1.664   8.637 -0.3422  0.1406  0.3259
   28SAPC  H18X 3806   5.447   1.600   8.688 -0.8838  1.2868  0.9765
   28SAPC  H18Y 3807   5.475   1.749   8.584 -2.8761 -1.3623  0.0089
   28SAPC  H18Z 3808   5.590   1.699   8.718  0.3860  1.2896 -0.7463
   29SAPC     N 3809   1.856   5.782   6.242  0.1462 -0.5129 -0.0990
   29SAPC   C12 3810   1.756   5.756   6.357  0.2848 -0.5371  0.1857
   29SAPC  H12A 3811   1.656   5.743   6.317 -0.1958 -0.0786  1.1927
   29SAPC  H12B 3812   1.763   5.842   6.422 -0.5803  0.0832 -0.5191
   29SAPC   C13 3813   1.862   5.668   6.148 -0.3078  0.0211 -0.5812
   29SAPC  H13A 3814   1.946   5.665   6.081  0.0007 -0.0656 -0.1930
   29SAPC  H13B 3815   1.866   5.576   6.204 -2.3259 -0.2548 -0.7882
   29SAPC  H13C 3816   1.773   5.652   6.089  0.2676  1.3185 -1.8759
   29SAPC   C14 3817   1.816   5.912   6.174 -0.5596  0.7237 -0.3522
   29SAPC  H14A 3818   1.835   5.998   6.237  1.3120  0.1152  0.0046
   29SAPC  H14B 3819   1.870   5.933   6.083 -1.4770  0.4251 -0.9714
   29SAPC  H14C 3820   1.712   5.904   6.147 -0.1311 -2.3576 -1.4587
   29SAPC   C15 3821   1.994   5.807   6.301  0.2761 -0.8608  0.2337
   29SAPC  H15A 3822   2.002   5.754   6.395  0.8670  1.7492  1.7617
   29SAPC  H15B 3823   2.073   5.780   6.232 -1.4918 -0.1547 -2.1891
   29SAPC  H15C 3824   2.016   5.910   6.323  1.5851 -1.8269  4.5198
   29SAPC   C11 3825   1.773   5.628   6.444  0.2329 -0.0170  0.3341
   29SAPC  H11A 3826   1.705   5.634   6.532  0.1359 -1.4161  0.3747
   29SAPC  H11B 3827   1.876   5.633   6.484 -0.0564 -0.2454  1.1239
   29SAPC     P 3828   1.599   5.467   6.335  0.1095 -0.0587 -0.3135
   29SAPC   O13 3829   1.528   5.578   6.269  0.5102  0.3590  0.7091
   29SAPC   O14 3830   1.607   5.339   6.266 -0.2395  0.5629  0.0384
   29SAPC   O12 3831   1.748   5.514   6.359 -0.1908  0.4214  0.2583
   29SAPC   O11 3832   1.543   5.445   6.478  0.3813  0.6235  0.3230
   29SAPC    C1 3833   1.613   5.361   6.574 -0.1146  0.5806 -0.0786
   29SAPC    HA 3834   1.721   5.387   6.584  0.0963  0.1089 -0.9993
   29SAPC    HB 3835   1.560   5.364   6.671  1.8312 -2.0769  1.1901
   29SAPC    C2 3836   1.609   5.212   6.535 -0.1300 -0.6763  0.2287
   29SAPC    HS 3837   1.670   5.205   6.442  0.7291  0.6603  0.6587
   29SAPC   O21 3838   1.475   5.183   6.499  0.0123  0.2816  0.6982
   29SAPC   C21 3839   1.458   5.070   6.430  0.2654 -0.7552 -0.7523
   29SAPC   O22 3840   1.540   4.986   6.397 -0.7705 -0.4858 -0.7324
   29SAPC   C22 3841   1.310   5.049   6.422 -0.2849 -0.0739 -0.0533
   29SAPC   H2R 3842   1.250   5.126   6.475 -0.7022 -1.2398  1.1931
   29SAPC   H2S 3843   1.272   5.056   6.318 -2.7016 -1.4971  0.6747
   29SAPC    C3 3844   1.660   5.116   6.645  0.2378 -0.5933 -0.0989
   29SAPC    HX 3845   1.768   5.136   6.659 -0.1283  0.2113  1.9392
   29SAPC    HY 3846   1.666   5.009   6.614  0.7672 -0.5033 -0.3168
   29SAPC   O31 3847   1.596   5.133   6.775  0.5838  0.1179 -0.5029
   29SAPC   C31 3848   1.490   5.059   6.796 -0.4416 -0.4956 -0.0354
   29SAPC   O32 3849   1.465   4.956   6.743  0.1054  0.3990 -0.0172
   29SAPC   C32 3850   1.402   5.128   6.905 -0.2205 -0.2333  0.3021
   29SAPC   H2X 3851   1.334   5.192   6.845 -1.1002 -1.3573  0.0809
   29SAPC   H2Y 3852   1.459   5.181   6.985 -1.6269  0.3718  0.9388
   29SAPC   C23 3853   1.266   4.913   6.489  0.1880 -0.6148  1.0639
   29SAPC   H3R 3854   1.277   4.919   6.599  0.7162  1.9041  0.9529
   29SAPC   H3S 3855   1.321   4.829   6.443  0.3777 -0.2741  0.6555
   29SAPC   C24 3856   1.127   4.865   6.441 -0.3067  0.3604 -0.3324
   29SAPC   H4R 3857   1.124   4.764   6.486 -0.5360  0.1878 -0.7320
   29SAPC   H4S 3858   1.116   4.855   6.331  0.3637  2.8445 -0.6869
   29SAPC   C25 3859   1.020   4.958   6.484  0.6328 -0.4439 -0.2484
   29SAPC   H5R 3860   1.000   5.044   6.418  0.9675  0.8773  1.2819
   29SAPC   C26 3861   0.950   4.949   6.597 -0.8915 -0.3288 -0.2389
   29SAPC   H6R 3862   0.888   5.036   6.621  0.0925 -0.0510  1.4649
   29SAPC   C27 3863   0.970   4.849   6.706 -0.0187  0.3177  0.1874
   29SAPC   H7R 3864   1.079   4.836   6.723  0.1328  1.7525  0.4239
   29SAPC   H7S 3865   0.940   4.751   6.664  0.7231 -0.1193  0.6656
   29SAPC   C28 3866   0.905   4.876   6.839  0.3958  0.4629  0.5509
   29SAPC   H8R 3867   0.903   4.982   6.869  0.0646  0.4121  0.7155
   29SAPC   C29 3868   0.822   4.792   6.906 -0.7661  0.8515  0.1159
   29SAPC   H9R 3869   0.777   4.819   7.003 -1.0190 -0.5569  0.4137
   29SAPC  C210 3870   0.792   4.642   6.860  0.2415 -0.3668 -0.4896
   29SAPC  H10R 3871   0.880   4.589   6.818  1.4062 -0.2543  1.7136
   29SAPC  H10S 3872   0.720   4.640   6.775 -1.9665  1.6077  1.2001
   29SAPC  C211 3873   0.735   4.569   6.984  0.4372  0.5134  0.9957
   29SAPC  H11R 3874   0.813   4.555   7.060  1.5563 -0.3281 -0.2523
   29SAPC  C212 3875   0.610   4.524   6.999  0.1500  0.4687  0.9904
   29SAPC  H12R 3876   0.572   4.485   7.094 -1.4715  0.6666  0.4521
   29SAPC  C213 3877   0.498   4.548   6.900 -0.0670  0.5566  0.1889
   29SAPC  H13R 3878   0.521   4.633   6.831  0.4779 -0.7130 -1.2495
   29SAPC  H13S 3879   0.414   4.587   6.962 -0.2275 -1.5561  1.3510
   29SAPC  C214 3880   0.459   4.430   6.811  0.5265  0.4592 -0.8073
   29SAPC  H14R 3881   0.513   4.426   6.715 -0.3654 -0.7172 -1.2899
   29SAPC  C215 3882   0.383   4.327   6.855 -0.3523  0.3334 -0.0287
   29SAPC  H15R 3883   0.358   4.248   6.782 -0.1544 -0.5570  0.8447
   29SAPC  C216 3884   0.310   4.310   6.986  0.8061 -0.5985 -0.3107
   29SAPC  H16R 3885   0.212   4.262   6.966  1.0633 -1.0120 -0.5752
   29SAPC  H16S 3886   0.289   4.406   7.038 -1.5361 -0.2220 -1.8387
   29SAPC  C217 3887   0.374   4.211   7.077 -0.0374  0.1642 -0.7341
   29SAPC  H17R 3888   0.310   4.193   7.166  0.1400 -0.0080 -0.6414
   29SAPC  H17S 3889   0.471   4.240   7.123  0.3009  0.0957 -1.3842
   29SAPC  C218 3890   0.404   4.070   7.018 -0.3947  0.0582 -0.5796
   29SAPC  H18R 3891   0.490   4.080   6.949  0.0593  1.3981  0.1321
   29SAPC  H18S 3892   0.326   4.038   6.946  2.2759 -0.7380 -3.3590
   29SAPC  C219 3893   0.428   3.965   7.128  0.8292  0.3499 -0.4708
   29SAPC  H19R 3894   0.486   4.011   7.211 -1.4339  2.5721  0.0002
   29SAPC  H19S 3895   0.485   3.882   7.081 -0.3549  0.2688 -1.8318
   29SAPC  C220 3896   0.299   3.889   7.176  0.4799  0.8368  0.4402
   29SAPC  H20R 3897   0.221   3.962   7.207  0.8967  0.8329  1.5683
   29SAPC  H20S 3898   0.335   3.813   7.249 -0.0144 -1.9711 -2.0753
   29SAPC  H20T 3899   0.251   3.831   7.095  1.5302  2.6963 -1.6263
   29SAPC   C33 3900   1.307   5.030   6.984  0.5866  0.5891  0.1110
   29SAPC   H3X 3901   1.378   4.960   7.034  1.0543  2.3638  2.0458
   29SAPC   H3Y 3902   1.243   4.974   6.912  0.6128 -1.7264  1.7687
   29SAPC   C34 3903   1.220   5.103   7.090 -0.4416  0.1715 -0.5296
   29SAPC   H4X 3904   1.155   5.175   7.035 -1.4889 -0.2328  0.1298
   29SAPC   H4Y 3905   1.287   5.159   7.158 -2.9270  3.6228 -0.6274
   29SAPC   C35 3906   1.126   5.003   7.170  0.0132 -0.5517  0.3046
   29SAPC   H5X 3907   1.182   4.912   7.202 -0.3317 -1.7074 -2.1673
   29SAPC   H5Y 3908   1.056   4.964   7.093  0.8549 -2.2618  0.3549
   29SAPC   C36 3909   1.058   5.073   7.287 -0.7486 -0.3268 -0.2120
   29SAPC   H6X 3910   0.994   5.159   7.257 -0.3382 -0.2029 -0.7496
   29SAPC   H6Y 3911   1.142   5.121   7.342 -1.0275  1.1040 -0.9807
   29SAPC   C37 3912   0.987   4.968   7.379 -0.1918 -0.0691 -0.6182
   29SAPC   H7X 3913   1.060   4.887   7.395  0.5751  0.8412  0.6314
   29SAPC   H7Y 3914   0.904   4.916   7.325 -0.3358 -1.1025  0.5516
   29SAPC   C38 3915   0.941   5.026   7.512  0.1034 -0.3207 -0.1767
   29SAPC   H8X 3916   0.865   5.105   7.494 -0.9293 -1.4542 -0.9177
   29SAPC   H8Y 3917   1.020   5.082   7.566  0.4152 -0.9692  0.0511
   29SAPC   C39 3918   0.882   4.921   7.608  0.1853  0.2068  0.6753
   29SAPC   H9X 3919   0.961   4.851   7.642 -1.0436 -2.1688 -1.0345
   29SAPC   H9Y 3920   0.798   4.876   7.550 -0.3648  0.8743  0.9470
   29SAPC  C310 3921   0.820   4.983   7.733  0.5298  0.3413  0.3173
   29SAPC  H10X 3922   0.771   5.076   7.696  0.6217  0.8106  1.3358
   29SAPC  H10Y 3923   0.903   5.010   7.801 -0.0257 -1.3109  1.7083
   29SAPC  C311 3924   0.717   4.901   7.797  0.1780 -0.0954 -0.0232
   29SAPC  H11X 3925   0.762   4.811   7.843  1.6627  1.1911  1.1834
   29SAPC  H11Y 3926   0.638   4.865   7.728 -0.0123  0.0338  0.1234
   29SAPC  C312 3927   0.632   4.975   7.910  0.0375 -0.1353  0.1948
   29SAPC  H12X 3928   0.598   5.074   7.870 -0.6561 -0.0765  0.9092
   29SAPC  H12Y 3929   0.701   5.002   7.992  0.2668 -1.6840  0.5348
   29SAPC  C313 3930   0.505   4.901   7.962 -0.0345  0.4097  0.9734
   29SAPC  H13X 3931   0.538   4.813   8.022  1.0478  1.8929  2.6533
   29SAPC  H13Y 3932   0.447   4.866   7.874  1.0940  1.5548 -0.2828
   29SAPC  C314 3933   0.421   4.989   8.056  0.3736 -0.3279 -0.0189
   29SAPC  H14X 3934   0.389   5.073   7.991 -0.8440 -2.4828 -2.3754
   29SAPC  H14Y 3935   0.482   5.020   8.143 -0.4036 -1.1121  0.8297
   29SAPC  C315 3936   0.288   4.938   8.112  0.5249  0.2528  0.2458
   29SAPC  H15X 3937   0.313   4.848   8.172  0.0907  0.1784  0.3180
   29SAPC  H15Y 3938   0.232   4.905   8.023  1.5878 -0.5075 -0.1653
   29SAPC  C316 3939   0.213   5.044   8.200 -0.7769  0.2554 -0.1822
   29SAPC  H16X 3940   0.288   5.067   8.278 -0.8108  1.4343 -0.4861
   29SAPC  H16Y 3941   0.141   4.974   8.248 -0.2085 -0.6466 -0.6160
   29SAPC  C317 3942   0.149   5.151   8.122  0.1300 -1.2525 -0.3524
   29SAPC  H17X 3943   0.081   5.121   8.039 -0.1387  2.1418 -1.5338
   29SAPC  H17Y 3944   0.227   5.209   8.069  0.8158  0.0607  1.9523
   29SAPC  C318 3945   0.093   5.259   8.219 -0.8710  0.5338 -0.2952
   29SAPC  H18X 3946   0.177   5.301   8.278 -0.1076 -2.4807  0.9519
   29SAPC  H18Y 3947   0.028   5.218   8.300  0.5191 -0.0897  0.5343
   29SAPC  H18Z 3948   0.036   5.339   8.166 -4.0483  0.0447  2.0440
   30SAPC     N 3949   2.786   4.130   6.109 -0.5239  0.3061  0.0401
   30SAPC   C12 3950   2.723   4.015   6.182  0.1175  0.3108 -0.5494
   30SAPC  H12A 3951   2.742   3.918   6.138  2.8722 -0.0939  1.2632
   30SAPC  H12B 3952   2.618   4.039   6.179  0.2035  0.5898 -3.1768
   30SAPC   C13 3953   2.934   4.104   6.111  0.7469 -0.3247 -0.3228
   30SAPC  H13A 3954   2.956   4.017   6.051  1.2181 -1.8001  1.8733
   30SAPC  H13B 3955   2.988   4.191   6.076 -1.9297  2.2916  1.5479
   30SAPC  H13C 3956   2.961   4.089   6.215 -0.1050 -0.4217 -0.1100
   30SAPC   C14 3957   2.732   4.138   5.971 -0.0130  0.3479  0.4159
   30SAPC  H14A 3958   2.797   4.210   5.924  1.6511  0.0608  2.1360
   30SAPC  H14B 3959   2.747   4.044   5.920 -0.8888 -1.1811  2.7896
   30SAPC  H14C 3960   2.626   4.157   5.960  0.2890  2.8025  1.1702
   30SAPC   C15 3961   2.758   4.260   6.186  0.2682  1.0894  1.4265
   30SAPC  H15A 3962   2.654   4.286   6.172  0.1021  0.6450  1.7911
   30SAPC  H15B 3963   2.756   4.253   6.293 -2.9757 -2.2106  1.3580
   30SAPC  H15C 3964   2.812   4.345   6.148  0.5133  0.8456  1.2172
   30SAPC   C11 3965   2.761   3.993   6.332 -0.1333  0.2847  0.5289
   30SAPC  H11A 3966   2.872   3.986   6.341 -0.0401 -0.9161 -1.0910
   30SAPC  H11B 3967   2.720   3.893   6.357 -0.4015  0.5230  1.0455
   30SAPC     P 3968   2.755   4.122   6.564 -0.1930  0.0682  0.1322
   30SAPC   O13 3969   2.885   4.067   6.591 -0.1626  0.3177 -0.2900
   30SAPC   O14 3970   2.747   4.269   6.586  0.4211  0.1295 -0.1814
   30SAPC   O12 3971   2.707   4.091   6.415 -0.4051  0.3331 -0.0208
   30SAPC   O11 3972   2.648   4.047   6.660  0.1106  0.0370  0.1384
   30SAPC    C1 3973   2.506   4.067   6.632 -0.5819 -0.1623  0.2960
   30SAPC    HA 3974   2.482   4.163   6.581 -2.3620 -0.2881  0.8327
   30SAPC    HB 3975   2.483   3.992   6.552  0.9906 -0.1342 -0.2262
   30SAPC    C2 3976   2.430   4.059   6.768  0.1732  0.1651  0.4140
   30SAPC    HS 3977   2.353   3.980   6.757  3.5469 -3.3140 -0.5084
   30SAPC   O21 3978   2.398   4.191   6.816 -0.6240  0.0692 -0.2179
   30SAPC   C21 3979   2.284   4.214   6.858  1.0644 -0.3677 -0.2420
   30SAPC   O22 3980   2.181   4.155   6.828  0.4055  0.1554 -0.0145
   30SAPC   C22 3981   2.292   4.340   6.957  0.2641  0.2368 -0.4240
   30SAPC   H2R 3982   2.395   4.336   6.999 -0.1968 -0.2888  0.6745
   30SAPC   H2S 3983   2.274   4.422   6.883 -0.5476  0.6174  0.1900
   30SAPC    C3 3984   2.511   4.003   6.885 -0.3290  0.2347  0.0637
   30SAPC    HX 3985   2.582   4.086   6.904  0.7915  0.0424 -2.8340
   30SAPC    HY 3986   2.571   3.911   6.867  2.1332  1.4964  1.4149
   30SAPC   O31 3987   2.437   3.985   7.006 -0.3384 -0.2525  0.0220
   30SAPC   C31 3988   2.350   3.883   7.010 -0.1496 -0.1146 -0.1457
   30SAPC   O32 3989   2.321   3.814   6.915 -0.2804  0.3670 -0.5785
   30SAPC   C32 3990   2.295   3.859   7.146 -0.1579  0.2196  0.2339
   30SAPC   H2X 3991   2.373   3.820   7.215 -1.3789 -0.5943  1.2145
   30SAPC   H2Y 3992   2.220   3.777   7.141  0.2117 -0.1249  0.3084
   30SAPC   C23 3993   2.184   4.338   7.067 -0.0188  0.3158  0.4281
   30SAPC   H3R 3994   2.206   4.267   7.150 -1.6762  0.6894  1.2131
   30SAPC   H3S 3995   2.086   4.303   7.030  0.5012 -2.2252  1.2485
   30SAPC   C24 3996   2.156   4.472   7.139 -0.3621 -0.4317  0.4156
   30SAPC   H4R 3997   2.092   4.463   7.229 -0.3267  1.0135  0.5987
   30SAPC   H4S 3998   2.106   4.532   7.059 -1.3350 -1.1694  0.4481
   30SAPC   C25 3999   2.280   4.540   7.197  0.5410  0.5324 -0.4330
   30SAPC   H5R 4000   2.366   4.542   7.128  0.1900  1.7689 -0.8493
   30SAPC   C26 4001   2.295   4.595   7.323  0.5812  0.4429 -0.3282
   30SAPC   H6R 4002   2.392   4.640   7.347 -0.2890  2.0788  0.2884
   30SAPC   C27 4003   2.178   4.605   7.426 -0.2696 -0.6733 -0.3144
   30SAPC   H7R 4004   2.206   4.646   7.525  1.5063  1.8740 -1.7585
   30SAPC   H7S 4005   2.137   4.503   7.444 -1.7401 -0.1717 -0.6752
   30SAPC   C28 4006   2.061   4.692   7.390 -0.0002 -0.1413  0.2028
   30SAPC   H8R 4007   2.070   4.747   7.295 -0.0233 -0.4987 -0.0106
   30SAPC   C29 4008   1.941   4.690   7.443  0.3061  0.1060  0.1099
   30SAPC   H9R 4009   1.875   4.773   7.412 -0.1040  0.1816  1.1596
   30SAPC  C210 4010   1.895   4.610   7.564  0.2250  0.3564  0.3355
   30SAPC  H10R 4011   1.925   4.504   7.547  0.2245  0.4223 -0.0988
   30SAPC  H10S 4012   1.784   4.607   7.568  0.1246 -0.3082 -1.7386
   30SAPC  C211 4013   1.952   4.668   7.685  0.8031 -0.1465 -0.2271
   30SAPC  H11R 4014   2.053   4.627   7.696 -0.0341 -2.2266  0.1684
   30SAPC  C212 4015   1.910   4.760   7.780 -0.3017  0.4337  0.2187
   30SAPC  H12R 4016   1.987   4.791   7.851 -0.4512 -0.4899  0.7941
   30SAPC  C213 4017   1.779   4.827   7.780  0.1603  0.7201  0.6941
   30SAPC  H13R 4018   1.703   4.758   7.737  3.2388 -1.5636 -1.6127
   30SAPC  H13S 4019   1.778   4.914   7.711  1.6848 -0.7150 -1.2562
   30SAPC  C214 4020   1.738   4.865   7.916 -0.3879 -0.0573  0.3723
   30SAPC  H14R 4021   1.662   4.802   7.963  1.1369 -2.6880 -0.4686
   30SAPC  C215 4022   1.786   4.962   7.990  0.3292 -0.6634 -0.3648
   30SAPC  H15R 4023   1.737   4.987   8.085 -0.8928 -1.2181 -0.8220
   30SAPC  C216 4024   1.889   5.065   7.955  0.0990  0.4620 -0.2716
   30SAPC  H16R 4025   1.850   5.168   7.943  0.5237  0.4005 -2.4127
   30SAPC  H16S 4026   1.936   5.034   7.860 -1.0416  0.7032 -0.9294
   30SAPC  C217 4027   1.997   5.092   8.061  0.1749 -0.0240 -0.3159
   30SAPC  H17R 4028   2.052   4.996   8.068  0.2810 -0.6127 -5.3106
   30SAPC  H17S 4029   1.946   5.128   8.153  1.9729 -0.0397  0.7409
   30SAPC  C218 4030   2.104   5.200   8.032  0.6283 -0.1600  0.3937
   30SAPC  H18R 4031   2.062   5.294   7.988  0.0243 -0.2190  0.8256
   30SAPC  H18S 4032   2.184   5.161   7.967 -1.1233 -1.2550 -1.2000
   30SAPC  C219 4033   2.174   5.241   8.158  0.0197 -0.2883  0.2199
   30SAPC  H19R 4034   2.100   5.278   8.232  1.2009 -0.1529  1.3810
   30SAPC  H19S 4035   2.246   5.322   8.133 -0.8763  1.0147  1.6519
   30SAPC  C220 4036   2.253   5.129   8.225  0.1442  0.6421  1.0634
   30SAPC  H20R 4037   2.327   5.180   8.290  2.9380  1.6940 -2.5401
   30SAPC  H20S 4038   2.313   5.064   8.158 -1.1451  1.3554 -0.8802
   30SAPC  H20T 4039   2.187   5.061   8.283  0.7634 -0.8686  0.0757
   30SAPC   C33 4040   2.238   3.996   7.200 -0.7236 -0.5159 -0.0117
   30SAPC   H3X 4041   2.157   4.030   7.132 -1.3617 -1.5003  0.2379
   30SAPC   H3Y 4042   2.313   4.079   7.199 -1.8291  0.5200  0.0533
   30SAPC   C34 4043   2.184   3.986   7.340 -0.7465 -0.1599  0.6596
   30SAPC   H4X 4044   2.267   3.956   7.408 -0.1834 -0.4450 -0.1503
   30SAPC   H4Y 4045   2.110   3.904   7.353  0.0454 -1.0353 -0.2982
   30SAPC   C35 4046   2.112   4.115   7.384 -0.2146  0.4155 -0.8762
   30SAPC   H5X 4047   2.015   4.119   7.331  0.0856 -0.5713 -1.5234
   30SAPC   H5Y 4048   2.184   4.198   7.368  1.0688 -0.1789  1.4020
   30SAPC   C36 4049   2.087   4.104   7.533  0.1880 -0.4483 -0.8676
   30SAPC   H6X 4050   2.179   4.107   7.595 -0.1306 -0.1778 -0.4091
   30SAPC   H6Y 4051   2.034   4.009   7.557  0.6847 -0.4532  0.2420
   30SAPC   C37 4052   1.991   4.219   7.582 -0.3464 -0.2213  1.2608
   30SAPC   H7X 4053   1.906   4.205   7.512  1.0654  1.9268 -1.0609
   30SAPC   H7Y 4054   2.042   4.314   7.556 -0.6045 -0.2363  0.7011
   30SAPC   C38 4055   1.963   4.199   7.726  0.2485  0.9460 -0.1127
   30SAPC   H8X 4056   2.053   4.198   7.791  0.9647  1.5679 -1.0799
   30SAPC   H8Y 4057   1.905   4.105   7.729  3.4869 -1.4391 -3.7285
   30SAPC   C39 4058   1.884   4.323   7.770 -0.6366  0.0711  0.0594
   30SAPC   H9X 4059   1.798   4.339   7.701 -0.7466  0.8027  0.3625
   30SAPC   H9Y 4060   1.957   4.406   7.762  0.6343 -1.0378 -0.3754
   30SAPC  C310 4061   1.855   4.307   7.923  0.0673  0.4682 -0.2679
   30SAPC  H10X 4062   1.948   4.273   7.973  0.4314 -0.7508 -1.6882
   30SAPC  H10Y 4063   1.778   4.231   7.946  1.9968 -1.7172 -0.6070
   30SAPC  C311 4064   1.819   4.443   7.990 -0.5206  1.0706  0.1414
   30SAPC  H11X 4065   1.760   4.502   7.916  0.1959  0.0426 -1.3068
   30SAPC  H11Y 4066   1.916   4.493   8.011 -0.3280  1.0173 -0.5976
   30SAPC  C312 4067   1.742   4.420   8.117  0.1470 -0.0100  0.1666
   30SAPC  H12X 4068   1.817   4.369   8.182  2.6488  2.3624 -0.6414
   30SAPC  H12Y 4069   1.655   4.354   8.103  0.1743  0.1519 -0.8175
   30SAPC  C313 4070   1.697   4.549   8.185  0.1927  0.2508 -0.4108
   30SAPC  H13X 4071   1.619   4.528   8.262 -0.1164  1.1111 -0.4794
   30SAPC  H13Y 4072   1.640   4.604   8.108  0.1045 -2.4096 -2.3840
   30SAPC  C314 4073   1.812   4.641   8.222  0.3397 -0.5211 -0.5513
   30SAPC  H14X 4074   1.862   4.683   8.133 -0.6648 -0.7488 -1.2398
   30SAPC  H14Y 4075   1.889   4.581   8.277  0.7548  2.1051  1.9946
   30SAPC  C315 4076   1.785   4.749   8.337  0.0193  0.0585  0.2362
   30SAPC  H15X 4077   1.747   4.695   8.426 -2.8400  0.5261 -0.6273
   30SAPC  H15Y 4078   1.701   4.812   8.304 -1.5711 -2.2045 -0.2713
   30SAPC  C316 4079   1.911   4.831   8.358 -0.2490  0.8789  0.3286
   30SAPC  H16X 4080   1.937   4.883   8.263  0.5081 -0.4671 -0.2275
   30SAPC  H16Y 4081   1.996   4.762   8.379 -0.8482 -0.0936 -0.3401
   30SAPC  C317 4082   1.898   4.926   8.483 -0.2493 -0.0071  0.3590
   30SAPC  H17X 4083   1.882   4.863   8.572  0.5725  1.4580  1.5950
   30SAPC  H17Y 4084   1.812   4.995   8.471  1.0526  1.4042 -1.5054
   30SAPC  C318 4085   2.024   5.013   8.508 -0.4912  0.0978 -0.3164
   30SAPC  H18X 4086   2.113   4.948   8.494 -0.9567 -0.2273 -1.9731
   30SAPC  H18Y 4087   2.029   5.061   8.608  1.3596 -1.9795  0.6839
   30SAPC  H18Z 4088   2.042   5.082   8.423  3.5626  0.7796  0.8401
   31SAPC     N 4089   3.676   6.114   6.246 -0.4856  0.2614  0.5765
   31SAPC   C12 4090   3.808   6.155   6.175  0.1171  0.1839 -0.5032
   31SAPC  H12A 4091   3.828   6.075   6.105  0.4733 -0.9730  0.8730
   31SAPC  H12B 4092   3.892   6.145   6.243 -1.8819 -1.5112  1.9153
   31SAPC   C13 4093   3.649   6.202   6.363  0.7830  1.3329 -0.3459
   31SAPC  H13A 4094   3.549   6.183   6.400  0.4237 -0.0892 -1.9174
   31SAPC  H13B 4095   3.714   6.182   6.447 -1.1503 -1.3712  0.6462
   31SAPC  H13C 4096   3.661   6.307   6.340  1.2401  1.7002  1.4114
   31SAPC   C14 4097   3.561   6.120   6.155 -0.3560 -0.0956 -0.1857
   31SAPC  H14A 4098   3.469   6.080   6.193 -0.9033  1.3280  0.0591
   31SAPC  H14B 4099   3.540   6.222   6.128 -3.0509 -0.9802 -1.7099
   31SAPC  H14C 4100   3.585   6.069   6.063  1.3997 -0.3555  0.3742
   31SAPC   C15 4101   3.684   5.974   6.300 -0.5395  0.5485 -0.5456
   31SAPC  H15A 4102   3.685   5.892   6.230 -2.2384 -0.4273  0.4981
   31SAPC  H15B 4103   3.770   5.965   6.365 -0.3720 -2.2302 -1.0362
   31SAPC  H15C 4104   3.604   5.966   6.372  1.1525  2.1205  1.6776
   31SAPC   C11 4105   3.820   6.294   6.109 -0.1638  0.4857 -0.0670
   31SAPC  H11A 4106   3.745   6.307   6.028 -1.1225  1.1956  0.9054
   31SAPC  H11B 4107   3.912   6.300   6.047 -0.7074  0.4442 -0.8937
   31SAPC     P 4108   3.921   6.459   6.267 -0.1015  0.4936  0.4058
   31SAPC   O13 4109   4.040   6.369   6.238 -0.5125 -0.1117 -0.8745
   31SAPC   O14 4110   3.935   6.598   6.228 -0.0500 -0.0103 -0.3312
   31SAPC   O12 4111   3.791   6.397   6.202  0.1043  0.7707  0.3992
   31SAPC   O11 4112   3.884   6.446   6.417  0.1471  0.2029 -0.7135
   31SAPC    C1 4113   3.760   6.504   6.460 -0.5475 -0.1270 -0.2926
   31SAPC    HA 4114   3.682   6.507   6.381  0.3493  0.1389 -1.1852
   31SAPC    HB 4115   3.718   6.455   6.551 -2.3108  0.5226 -0.7133
   31SAPC    C2 4116   3.774   6.650   6.521  0.2895  0.0063 -0.1667
   31SAPC    HS 4117   3.786   6.718   6.433  0.0600  0.5347  0.2042
   31SAPC   O21 4118   3.891   6.654   6.602  0.0863  0.6982  0.0072
   31SAPC   C21 4119   3.925   6.770   6.653  0.6988  0.8105 -0.5662
   31SAPC   O22 4120   3.867   6.872   6.630  0.2922 -0.1159 -0.0389
   31SAPC   C22 4121   4.060   6.757   6.722  0.0703 -0.4729  0.4198
   31SAPC   H2R 4122   4.112   6.669   6.680  1.0042  0.6879 -0.9426
   31SAPC   H2S 4123   4.113   6.850   6.691 -1.2413  0.2613  0.3089
   31SAPC    C3 4124   3.642   6.699   6.593 -0.0949 -0.2945  0.5265
   31SAPC    HX 4125   3.558   6.646   6.543 -0.7139  0.4148  0.7875
   31SAPC    HY 4126   3.631   6.808   6.575  0.3969 -0.5476 -1.5876
   31SAPC   O31 4127   3.649   6.660   6.732  0.2147  0.0697  0.2209
   31SAPC   C31 4128   3.542   6.689   6.799 -0.6354  0.2889 -0.1360
   31SAPC   O32 4129   3.448   6.748   6.755  0.0224 -0.3322  0.0275
   31SAPC   C32 4130   3.562   6.634   6.947  0.8182 -0.2082 -0.3640
   31SAPC   H2X 4131   3.652   6.570   6.960 -0.1604 -1.5584 -0.0262
   31SAPC   H2Y 4132   3.492   6.549   6.950  0.2432  0.2726  1.2320
   31SAPC   C23 4133   4.060   6.761   6.879  0.6702  0.2275 -0.6435
   31SAPC   H3R 4134   4.016   6.861   6.900 -0.7371  0.2644 -3.3798
   31SAPC   H3S 4135   4.164   6.765   6.919  0.9962  0.2904 -1.4909
   31SAPC   C24 4136   3.985   6.638   6.952  0.3185 -1.0644  0.9047
   31SAPC   H4R 4137   3.889   6.646   6.896  0.8646 -0.4486  0.0302
   31SAPC   H4S 4138   3.972   6.674   7.057  2.5308 -1.1886  1.2614
   31SAPC   C25 4139   4.056   6.505   6.945  0.7232  0.2986  0.0583
   31SAPC   H5R 4140   4.106   6.483   6.850  0.0640 -0.6668 -0.0709
   31SAPC   C26 4141   4.052   6.420   7.044 -0.5463  0.5695 -0.7697
   31SAPC   H6R 4142   4.093   6.318   7.039 -2.1341 -0.1337 -0.2685
   31SAPC   C27 4143   3.993   6.432   7.182  0.0337  0.1694 -0.0842
   31SAPC   H7R 4144   4.027   6.533   7.216  0.1486  0.5416 -1.2716
   31SAPC   H7S 4145   4.043   6.361   7.251 -1.9019 -1.8811 -0.6934
   31SAPC   C28 4146   3.847   6.406   7.200 -0.7134 -0.4201  0.2085
   31SAPC   H8R 4147   3.798   6.326   7.143 -0.5271 -0.8835  0.6850
   31SAPC   C29 4148   3.783   6.454   7.301  1.2629 -0.3018 -0.7835
   31SAPC   H9R 4149   3.678   6.421   7.307  1.3164 -0.2582  0.8060
   31SAPC  C210 4150   3.826   6.548   7.407 -0.6058 -0.0128 -0.7891
   31SAPC  H10R 4151   3.748   6.626   7.418 -0.7482 -0.3148  0.6181
   31SAPC  H10S 4152   3.917   6.599   7.371  0.3108 -1.7042 -0.9586
   31SAPC  C211 4153   3.846   6.468   7.531 -0.0665 -0.8667 -0.8901
   31SAPC  H11R 4154   3.926   6.393   7.528  0.3350 -0.4653 -0.3091
   31SAPC  C212 4155   3.782   6.483   7.649 -0.0777 -0.2090 -0.3430
   31SAPC  H12R 4156   3.810   6.417   7.733  2.3545  0.7714 -0.3072
   31SAPC  C213 4157   3.663   6.571   7.679  0.2341  0.3395 -0.3185
   31SAPC  H13R 4158   3.599   6.579   7.589 -1.2179  0.2279  0.6813
   31SAPC  H13S 4159   3.691   6.676   7.703 -0.4397  0.0830  1.8093
   31SAPC  C214 4160   3.574   6.512   7.786 -0.6145  0.4321 -0.3150
   31SAPC  H14R 4161   3.492   6.455   7.737 -2.1374  1.9005  0.4271
   31SAPC  C215 4162   3.594   6.518   7.919 -0.5043  0.0032  0.0091
   31SAPC  H15R 4163   3.518   6.463   7.978  0.5521 -0.2327  1.1955
   31SAPC  C216 4164   3.707   6.586   7.995 -0.7703 -0.2865  1.4730
   31SAPC  H16R 4165   3.679   6.680   8.047 -1.1012  0.5036 -0.0829
   31SAPC  H16S 4166   3.794   6.606   7.929 -1.7138  2.0033  0.8181
   31SAPC  C217 4167   3.767   6.486   8.096  0.2341 -0.4687  0.1515
   31SAPC  H17R 4168   3.809   6.409   8.028 -1.7284  1.2273 -3.2045
   31SAPC  H17S 4169   3.680   6.442   8.148  1.0709  0.9103  2.9692
   31SAPC  C218 4170   3.870   6.546   8.195  0.4414  0.0214 -0.4105
   31SAPC  H18R 4171   3.918   6.473   8.263  0.3531  0.3748  0.0329
   31SAPC  H18S 4172   3.805   6.593   8.271  0.7605 -0.4344  0.1483
   31SAPC  C219 4173   3.977   6.639   8.141  0.0339  0.0896 -0.3426
   31SAPC  H19R 4174   4.024   6.681   8.233 -1.6467  2.5044 -0.5203
   31SAPC  H19S 4175   3.928   6.716   8.079 -3.2741 -0.8681  0.8888
   31SAPC  C220 4176   4.093   6.567   8.069  0.6126 -0.6667 -0.0246
   31SAPC  H20R 4177   4.170   6.646   8.056 -0.2551  0.4140  1.1493
   31SAPC  H20S 4178   4.060   6.528   7.970 -0.2110 -1.7333  0.6390
   31SAPC  H20T 4179   4.129   6.478   8.126 -0.9387 -1.9107 -0.8878
   31SAPC   C33 4180   3.555   6.731   7.070  0.0050  0.3305 -0.0097
   31SAPC   H3X 4181   3.574   6.838   7.050 -0.3918  0.7469  1.6984
   31SAPC   H3Y 4182   3.635   6.709   7.144  0.5486  1.2127 -0.3165
   31SAPC   C34 4183   3.415   6.728   7.140 -0.2644 -0.2259  0.1188
   31SAPC   H4X 4184   3.383   6.624   7.161  0.4800 -0.1425  1.8443
   31SAPC   H4Y 4185   3.346   6.780   7.070 -0.9779  1.3626  1.8991
   31SAPC   C35 4186   3.423   6.804   7.268 -0.0174 -0.4106  0.4455
   31SAPC   H5X 4187   3.428   6.910   7.236  1.3182 -0.2747  1.0355
   31SAPC   H5Y 4188   3.517   6.778   7.321  1.7714 -0.5672 -2.6218
   31SAPC   C36 4189   3.301   6.786   7.361  0.4487  0.2223  0.2640
   31SAPC   H6X 4190   3.299   6.689   7.415 -1.0204 -0.3157 -0.6981
   31SAPC   H6Y 4191   3.212   6.784   7.294  2.1164  1.9666 -2.1873
   31SAPC   C37 4192   3.300   6.899   7.463  0.0585 -0.1370 -0.4673
   31SAPC   H7X 4193   3.280   6.985   7.396  2.1894 -0.6790 -1.9148
   31SAPC   H7Y 4194   3.400   6.923   7.505  0.2209 -1.1584 -0.2454
   31SAPC   C38 4195   3.216   6.877   7.589 -0.3990 -0.4091  0.1944
   31SAPC   H8X 4196   3.111   6.845   7.569  0.0637 -1.6156 -0.4301
   31SAPC   H8Y 4197   3.209   6.975   7.640 -1.0036 -0.0589 -0.5343
   31SAPC   C39 4198   3.276   6.788   7.693 -0.0886 -0.5365 -0.4384
   31SAPC   H9X 4199   3.365   6.844   7.729 -1.3535  1.5859 -0.4613
   31SAPC   H9Y 4200   3.305   6.688   7.652  0.5112 -0.0205 -1.3011
   31SAPC  C310 4201   3.173   6.781   7.810  0.0032 -0.1119  0.2490
   31SAPC  H10X 4202   3.083   6.725   7.775 -0.6574  0.4893  0.9379
   31SAPC  H10Y 4203   3.138   6.883   7.840  1.5104  1.3675 -2.6030
   31SAPC  C311 4204   3.240   6.710   7.926 -0.2555  0.2153  0.4646
   31SAPC  H11X 4205   3.336   6.760   7.950  0.2315 -0.4190 -0.1080
   31SAPC  H11Y 4206   3.253   6.604   7.894 -3.2272  0.2925 -1.3751
   31SAPC  C312 4207   3.160   6.707   8.050 -0.2009 -1.0716 -0.2138
   31SAPC  H12X 4208   3.133   6.812   8.074  0.7061 -0.1548 -2.7525
   31SAPC  H12Y 4209   3.219   6.659   8.130  1.7954 -0.4621 -1.2498
   31SAPC  C313 4210   3.030   6.628   8.042 -0.0664  0.2442  0.5031
   31SAPC  H13X 4211   3.055   6.530   7.994  1.6841  0.3166  1.1734
   31SAPC  H13Y 4212   2.956   6.678   7.977  0.4292 -1.3598 -1.4120
   31SAPC  C314 4213   2.976   6.595   8.176 -0.3637 -0.1060  0.2202
   31SAPC  H14X 4214   2.955   6.691   8.228  2.4393 -1.2319  3.8623
   31SAPC  H14Y 4215   3.047   6.549   8.248 -0.4828 -1.8012 -0.6952
   31SAPC  C315 4216   2.848   6.514   8.175  0.2988 -0.4873  0.5073
   31SAPC  H15X 4217   2.769   6.579   8.131  1.7468  1.0564  0.0559
   31SAPC  H15Y 4218   2.812   6.503   8.279  1.6836  0.8046  1.1706
   31SAPC  C316 4219   2.857   6.374   8.125  0.1064  0.4236 -0.0849
   31SAPC  H16X 4220   2.946   6.329   8.173 -0.2677 -0.1050  0.1149
   31SAPC  H16Y 4221   2.885   6.368   8.018  1.0168 -1.8846  0.2209
   31SAPC  C317 4222   2.734   6.295   8.171  0.4117 -0.5749  0.5447
   31SAPC  H17X 4223   2.634   6.337   8.151  0.1216 -0.3963  2.1856
   31SAPC  H17Y 4224   2.728   6.293   8.282  1.1358 -0.5922  0.5879
   31SAPC  C318 4225   2.735   6.151   8.116  0.2717  0.2217  0.6702
   31SAPC  H18X 4226   2.740   6.141   8.006 -0.0181 -1.5997  0.7887
   31SAPC  H18Y 4227   2.641   6.099   8.143 -0.9668  1.3130 -1.3063
   31SAPC  H18Z 4228   2.823   6.092   8.149  0.7036 -0.8275 -2.1424
   32SAPC     N 4229   4.392   1.346   6.098 -0.2539 -0.2361 -0.4781
   32SAPC   C12 4230   4.330   1.279   6.217  0.9862  0.0402  0.3815
   32SAPC  H12A 4231   4.240   1.228   6.185 -0.1332  2.0102  0.1681
   32SAPC  H12B 4232   4.293   1.347   6.292  0.6891  0.2154  0.0805
   32SAPC   C13 4233   4.518   1.407   6.147  0.6414 -0.8672  0.0782
   32SAPC  H13A 4234   4.552   1.482   6.078 -0.1657  1.4324  2.0369
   32SAPC  H13B 4235   4.520   1.450   6.246 -0.3018  1.5613 -0.8827
   32SAPC  H13C 4236   4.591   1.327   6.147 -0.3105 -1.7682 -0.2609
   32SAPC   C14 4237   4.437   1.247   5.988 -0.0717  0.4804  0.8729
   32SAPC  H14A 4238   4.508   1.296   5.924 -3.1439  4.1579 -0.0688
   32SAPC  H14B 4239   4.484   1.165   6.041 -1.5750 -1.0569 -0.0600
   32SAPC  H14C 4240   4.356   1.204   5.931  0.8545 -0.7932  0.4805
   32SAPC   C15 4241   4.303   1.455   6.040 -0.0437  0.0112 -0.2430
   32SAPC  H15A 4242   4.199   1.427   6.041 -0.5099  1.5036  2.2444
   32SAPC  H15B 4243   4.302   1.541   6.106 -0.2208  1.0426 -1.5439
   32SAPC  H15C 4244   4.337   1.469   5.939  0.1523 -1.2444 -0.3603
   32SAPC   C11 4245   4.421   1.196   6.311  0.5760 -0.3922  0.4103
   32SAPC  H11A 4246   4.492   1.141   6.246 -0.3537  1.3418 -2.2540
   32SAPC  H11B 4247   4.359   1.115   6.353 -0.0845 -1.4200 -2.3101
   32SAPC     P 4248   4.396   1.364   6.518 -0.0899 -0.0175 -0.0741
   32SAPC   O13 4249   4.478   1.377   6.638 -0.4540 -0.2890 -0.0145
   32SAPC   O14 4250   4.335   1.480   6.448  0.2448 -0.5519  0.4924
   32SAPC   O12 4251   4.482   1.275   6.414 -0.2861 -0.2499  0.2172
   32SAPC   O11 4252   4.269   1.263   6.548  0.3310  0.4271  0.6667
   32SAPC    C1 4253   4.292   1.145   6.630  0.0414 -0.7844 -0.3318
   32SAPC    HA 4254   4.341   1.058   6.580  1.3373 -0.5233  0.4347
   32SAPC    HB 4255   4.359   1.164   6.717  0.8876 -1.6836 -0.7589
   32SAPC    C2 4256   4.154   1.118   6.692  0.0442 -0.1831  0.1416
   32SAPC    HS 4257   4.164   1.025   6.752  1.3580 -1.0162 -1.2765
   32SAPC   O21 4258   4.053   1.102   6.588 -0.0635  0.1912  0.1023
   32SAPC   C21 4259   4.065   1.001   6.506  0.6242  0.2738  0.4702
   32SAPC   O22 4260   4.146   0.911   6.522 -0.3637 -0.3380  0.4152
   32SAPC   C22 4261   3.948   1.007   6.405 -0.5362  0.4528  0.0677
   32SAPC   H2R 4262   3.962   1.094   6.338  1.3742  0.6609  0.6713
   32SAPC   H2S 4263   3.953   0.914   6.344  3.4566 -1.9395  3.4162
   32SAPC    C3 4264   4.098   1.216   6.798  0.1863 -0.3290 -0.3105
   32SAPC    HX 4265   3.992   1.191   6.818  0.7662 -2.4514  0.3872
   32SAPC    HY 4266   4.097   1.317   6.751  0.7358  0.6960  1.7571
   32SAPC   O31 4267   4.177   1.207   6.922 -0.3204 -0.2852  0.0982
   32SAPC   C31 4268   4.217   1.317   6.979 -0.1593 -0.4603  0.0196
   32SAPC   O32 4269   4.209   1.427   6.933  0.0884  0.6139  0.6681
   32SAPC   C32 4270   4.292   1.288   7.116 -0.9425  0.7647  0.0222
   32SAPC   H2X 4271   4.329   1.385   7.154 -2.3074  1.4718 -0.3877
   32SAPC   H2Y 4272   4.382   1.235   7.078 -1.1891 -1.3000  2.0948
   32SAPC   C23 4273   3.806   1.024   6.469  0.5854 -0.0689  0.2893
   32SAPC   H3R 4274   3.721   1.006   6.399 -0.4873 -1.8848  1.9757
   32SAPC   H3S 4275   3.783   1.131   6.491 -1.5019 -0.2260 -0.9070
   32SAPC   C24 4276   3.780   0.933   6.585  0.1105  0.4120  0.0247
   32SAPC   H4R 4277   3.675   0.960   6.611 -0.3744 -1.8075  0.5921
   32SAPC   H4S 4278   3.841   0.961   6.673  0.2691 -0.4713  0.2080
   32SAPC   C25 4279   3.790   0.781   6.561  0.2147 -0.6807 -0.5309
   32SAPC   H5R 4280   3.758   0.755   6.460  1.9765 -3.2112 -0.5197
   32SAPC   C26 4281   3.847   0.695   6.641  0.7394 -0.4887  0.0569
   32SAPC   H6R 4282   3.850   0.589   6.613  0.1300 -1.1041  2.1448
   32SAPC   C27 4283   3.902   0.724   6.783 -0.0450 -0.5506  0.2347
   32SAPC   H7R 4284   3.820   0.765   6.846  0.7804  1.7805 -0.0976
   32SAPC   H7S 4285   3.973   0.809   6.767 -0.6763  0.2389  1.4779
   32SAPC   C28 4286   3.977   0.603   6.838  0.3026  0.4941 -0.6707
   32SAPC   H8R 4287   4.026   0.537   6.765  0.7121  1.9101 -1.7188
   32SAPC   C29 4288   3.974   0.577   6.966  0.0654  0.3945 -0.1138
   32SAPC   H9R 4289   4.027   0.485   6.994 -0.7397  0.1675  0.7033
   32SAPC  C210 4290   3.906   0.645   7.077  0.5107  0.2435 -0.9126
   32SAPC  H10R 4291   3.907   0.582   7.168  0.8554 -1.2790 -1.9378
   32SAPC  H10S 4292   3.798   0.647   7.053  0.4978 -1.0897 -1.0079
   32SAPC  C211 4293   3.962   0.782   7.105  1.5127 -0.2467 -0.1017
   32SAPC  H11R 4294   3.971   0.853   7.022 -0.1670  2.9766  2.2396
   32SAPC  C212 4295   4.005   0.836   7.221  0.1725  0.4418  0.6792
   32SAPC  H12R 4296   4.022   0.945   7.229 -1.2318  0.7526 -0.2672
   32SAPC  C213 4297   4.000   0.760   7.355 -0.4605 -0.3554  0.3604
   32SAPC  H13R 4298   4.077   0.680   7.356 -1.8477 -1.7781 -1.1497
   32SAPC  H13S 4299   3.905   0.703   7.348  0.8358 -2.8521  1.6803
   32SAPC  C214 4300   4.020   0.848   7.483  0.0655  0.2292  0.0962
   32SAPC  H14R 4301   4.107   0.915   7.478 -0.2572  0.7236  1.0901
   32SAPC  C215 4302   3.937   0.835   7.588  0.2018 -0.3150 -0.7266
   32SAPC  H15R 4303   3.945   0.912   7.666 -0.2568 -2.2344  1.3156
   32SAPC  C216 4304   3.809   0.752   7.593  0.1969  0.4740 -0.4229
   32SAPC  H16R 4305   3.767   0.738   7.695 -0.3489  0.5852 -0.6332
   32SAPC  H16S 4306   3.839   0.651   7.557 -1.7409 -0.4815  0.5047
   32SAPC  C217 4307   3.693   0.803   7.509  0.0937  0.1426  0.3398
   32SAPC  H17R 4308   3.626   0.714   7.502 -1.2186  1.1883 -1.0941
   32SAPC  H17S 4309   3.720   0.834   7.405 -1.1934 -1.1498 -0.4228
   32SAPC  C218 4310   3.600   0.908   7.580 -0.0771 -0.3223 -0.2907
   32SAPC  H18R 4311   3.528   0.947   7.505 -0.1115  0.0155 -0.0823
   32SAPC  H18S 4312   3.657   0.999   7.610 -1.9097  0.9466 -0.4881
   32SAPC  C219 4313   3.515   0.854   7.697 -0.0471  0.8097 -0.0784
   32SAPC  H19R 4314   3.570   0.797   7.775 -0.9843  1.9819  1.4746
   32SAPC  H19S 4315   3.447   0.783   7.645 -1.0135  1.8824 -0.2997
   32SAPC  C220 4316   3.443   0.951   7.785  0.5476  0.5672  0.3497
   32SAPC  H20R 4317   3.513   1.035   7.803 -0.8210  1.6370  0.9280
   32SAPC  H20S 4318   3.400   0.913   7.880 -2.2744  2.3614 -0.0847
   32SAPC  H20T 4319   3.353   0.993   7.735  0.1934  2.7538  2.6156
   32SAPC   C33 4320   4.213   1.206   7.228  0.5492  0.3558  0.5884
   32SAPC   H3X 4321   4.181   1.114   7.174  0.1521  0.6656  0.2905
   32SAPC   H3Y 4322   4.120   1.263   7.251  1.1867  2.2917 -1.2607
   32SAPC   C34 4323   4.274   1.164   7.363 -0.6313 -0.1256  0.2148
   32SAPC   H4X 4324   4.359   1.100   7.332 -0.2648 -0.8315  2.5260
   32SAPC   H4Y 4325   4.204   1.104   7.424 -0.0610 -0.2576  0.7493
   32SAPC   C35 4326   4.328   1.290   7.436  0.8535  0.4606 -0.0533
   32SAPC   H5X 4327   4.245   1.364   7.443 -0.6668 -0.9011 -2.3991
   32SAPC   H5Y 4328   4.404   1.349   7.380  0.5653  2.6116  1.6922
   32SAPC   C36 4329   4.390   1.252   7.571  0.3434  0.2336 -0.0935
   32SAPC   H6X 4330   4.493   1.214   7.557  0.7443  1.5207 -0.8114
   32SAPC   H6Y 4331   4.333   1.165   7.611 -0.2756 -0.3168 -2.0426
   32SAPC   C37 4332   4.405   1.369   7.669 -0.3968 -0.1304  0.0236
   32SAPC   H7X 4333   4.304   1.380   7.713 -0.2684 -1.6862  0.7653
   32SAPC   H7Y 4334   4.431   1.465   7.620 -0.9638 -0.9014 -1.8464
   32SAPC   C38 4335   4.497   1.318   7.789  0.6688 -0.2372 -0.3109
   32SAPC   H8X 4336   4.601   1.316   7.750 -0.1294 -2.2730 -2.6208
   32SAPC   H8Y 4337   4.475   1.211   7.806  2.1997 -0.7403 -1.2784
   32SAPC   C39 4338   4.490   1.411   7.915  0.9285  0.6018  0.0865
   32SAPC   H9X 4339   4.519   1.516   7.895  3.8984 -0.0244  0.6169
   32SAPC   H9Y 4340   4.555   1.369   7.994  1.6435  0.1534 -0.7198
   32SAPC  C310 4341   4.354   1.417   7.984  0.1669  0.6156  0.0095
   32SAPC  H10X 4342   4.300   1.320   7.997  1.9975 -0.4797 -0.1569
   32SAPC  H10Y 4343   4.289   1.487   7.929  1.1817  1.7563  0.2175
   32SAPC  C311 4344   4.362   1.479   8.126  0.2896 -0.7724  0.2692
   32SAPC  H11X 4345   4.410   1.578   8.107  0.1283 -1.0360 -1.7868
   32SAPC  H11Y 4346   4.441   1.432   8.188  1.6997  1.2856  0.1600
   32SAPC  C312 4347   4.230   1.510   8.195  1.0812  0.7251  0.8487
   32SAPC  H12X 4348   4.192   1.415   8.239  2.5121  0.1646  0.9296
   32SAPC  H12Y 4349   4.156   1.552   8.123  0.0053 -0.7751  1.0282
   32SAPC  C313 4350   4.242   1.610   8.315  0.5280 -0.1354  0.2449
   32SAPC  H13X 4351   4.309   1.694   8.290 -0.1678 -0.1396 -1.7656
   32SAPC  H13Y 4352   4.291   1.539   8.386 -0.9617 -3.2821 -1.6410
   32SAPC  C314 4353   4.110   1.657   8.381  0.6216 -0.3448 -0.8234
   32SAPC  H14X 4354   4.061   1.559   8.401 -2.0857  0.8049 -1.4333
   32SAPC  H14Y 4355   4.050   1.716   8.308 -0.0975 -0.0791 -0.0227
   32SAPC  C315 4356   4.137   1.731   8.517 -0.0792 -0.3530  0.1678
   32SAPC  H15X 4357   4.204   1.662   8.573 -0.9066 -0.2018  1.3798
   32SAPC  H15Y 4358   4.032   1.729   8.552  0.4844 -1.4457  1.9031
   32SAPC  C316 4359   4.206   1.866   8.504 -0.3139 -1.1728 -1.1126
   32SAPC  H16X 4360   4.139   1.926   8.440 -0.0530  0.3185 -0.0544
   32SAPC  H16Y 4361   4.306   1.865   8.454 -0.2742 -0.2465 -1.0692
   32SAPC  C317 4362   4.240   1.941   8.636 -0.1396  0.1022  0.4526
   32SAPC  H17X 4363   4.348   1.921   8.657 -0.2205 -4.2594 -2.0756
   32SAPC  H17Y 4364   4.174   1.894   8.711  0.0606 -4.2337 -1.7902
   32SAPC  C318 4365   4.214   2.089   8.619  0.1775 -0.0557 -0.1894
   32SAPC  H18X 4366   4.293   2.131   8.552  2.0087 -0.7471  1.4235
   32SAPC  H18Y 4367   4.215   2.146   8.714 -2.3794 -1.0442  0.4984
   32SAPC  H18Z 4368   4.114   2.090   8.570 -0.9466 -3.5401  1.7251
   33POPC     N 4369   0.852   6.734  10.515  0.4445 -0.1194  0.3738
   33POPC   C12 4370   0.932   6.613  10.461 -1.2511  0.4893 -0.8706
   33POPC  H12A 4371   0.864   6.541  10.419 -1.9589 -0.0136  1.0316
   33POPC  H12B 4372   0.989   6.570  10.542 -0.1678 -0.8740 -2.3119
   33POPC   C13 4373   0.729   6.685  10.586 -0.3344 -0.1462  0.0324
   33POPC  H13A 4374   0.669   6.621  10.522 -0.8431  0.8365 -0.5018
   33POPC  H13B 4375   0.755   6.632  10.676 -0.3319 -1.9450 -0.9743
   33POPC  H13C 4376   0.665   6.764  10.622  1.1762  2.4334 -2.5337
   33POPC   C14 4377   0.937   6.810  10.613  0.9289  0.0580 -0.4041
   33POPC  H14A 4378   0.899   6.910  10.629  0.9326 -0.1486  0.9761
   33POPC  H14B 4379   0.950   6.760  10.707  2.9259  1.0440 -0.1117
   33POPC  H14C 4380   1.032   6.837  10.569  2.1074 -0.5226  1.6997
   33POPC   C15 4381   0.799   6.820  10.409 -1.3401 -0.6450 -0.1046
   33POPC  H15A 4382   0.756   6.908  10.456  1.5449  0.1225  1.3854
   33POPC  H15B 4383   0.729   6.765  10.349 -0.6787 -1.2268 -0.3530
   33POPC  H15C 4384   0.874   6.870  10.349  0.0236  0.0621  2.0650
   33POPC   C11 4385   1.034   6.642  10.344 -0.0829 -0.1496 -0.8054
   33POPC  H11A 4386   0.980   6.693  10.261 -0.7889 -1.3269 -1.0905
   33POPC  H11B 4387   1.068   6.546  10.300  1.4165  0.0710 -0.1697
   33POPC     P 4388   1.179   6.867  10.329 -0.1360 -0.2778 -0.2373
   33POPC   O13 4389   1.328   6.889  10.334  0.2230  0.7345  0.1450
   33POPC   O14 4390   1.100   6.968  10.404  0.1920  0.7867 -0.3745
   33POPC   O12 4391   1.147   6.718  10.392 -0.0178  0.4313  0.2267
   33POPC   O11 4392   1.135   6.876  10.180 -0.7202 -0.0529 -0.3332
   33POPC    C1 4393   1.178   6.765  10.092  0.5522  0.2148  0.3361
   33POPC    HA 4394   1.289   6.756  10.089  0.5783  0.2220  1.1880
   33POPC    HB 4395   1.147   6.666  10.130 -0.9124 -0.1350 -1.6118
   33POPC    C2 4396   1.109   6.772   9.949 -0.0624 -0.5510  0.2933
   33POPC    HS 4397   1.135   6.689   9.880  2.9116 -1.2897  2.0939
   33POPC   O21 4398   1.128   6.901   9.892  0.6511 -0.8255  0.8264
   33POPC   C21 4399   1.253   6.934   9.856  0.3127  0.6030 -0.4684
   33POPC   O22 4400   1.347   6.855   9.857  0.4501 -0.6638  0.1096
   33POPC   C22 4401   1.267   7.076   9.827  0.8128 -0.5960 -0.7833
   33POPC   H2R 4402   1.335   7.071   9.739  2.2944  0.5294  0.2531
   33POPC   H2S 4403   1.311   7.135   9.910 -0.4065  1.6130 -1.6004
   33POPC    C3 4404   0.953   6.745   9.966 -0.3140 -0.4707  0.4381
   33POPC    HX 4405   0.911   6.822  10.034  0.1523  0.6162 -0.4719
   33POPC    HY 4406   0.947   6.650  10.023 -2.4753 -0.6812 -0.0323
   33POPC   O31 4407   0.891   6.732   9.836  0.1595  0.1244  0.2340
   33POPC   C31 4408   0.834   6.845   9.789 -0.2175  0.1055 -0.0666
   33POPC   O32 4409   0.817   6.954   9.850 -0.2195  0.3065 -0.2745
   33POPC   C32 4410   0.823   6.826   9.634 -0.1450 -0.7334 -0.8662
   33POPC   H2X 4411   0.796   6.922   9.586  2.7818  0.8717  0.3850
   33POPC   H2Y 4412   0.725   6.774   9.637 -1.4979  1.6799  1.1518
   33POPC   C23 4413   1.127   7.145   9.793  0.0808  0.6366  0.1734
   33POPC   H3R 4414   1.137   7.255   9.787  0.3910  0.5343 -1.7437
   33POPC   H3S 4415   1.049   7.125   9.869  0.6587 -2.0480  0.1637
   33POPC   C24 4416   1.079   7.088   9.656  0.7338 -0.0295  0.1999
   33POPC   H4R 4417   0.975   7.123   9.641  0.7190 -1.1381 -2.8969
   33POPC   H4S 4418   1.067   6.978   9.663 -4.0298  0.3471  0.8797
   33POPC   C25 4419   1.169   7.139   9.538  0.6546  0.2434 -0.4544
   33POPC   H5R 4420   1.273   7.101   9.548  0.6399  0.4186  0.4500
   33POPC   H5S 4421   1.174   7.249   9.558 -0.7399  0.7219 -2.4470
   33POPC   C26 4422   1.096   7.124   9.401  0.2172 -0.2589 -0.3268
   33POPC   H6R 4423   1.004   7.184   9.410  0.0530 -0.8478  2.7199
   33POPC   H6S 4424   1.082   7.016   9.377 -0.0372 -0.0585 -1.1075
   33POPC   C27 4425   1.175   7.198   9.286  0.4732  0.2224  0.8764
   33POPC   H7R 4426   1.274   7.151   9.271 -0.0150 -0.4125 -0.4742
   33POPC   H7S 4427   1.196   7.295   9.337  1.4143 -1.1945  3.3901
   33POPC   C28 4428   1.088   7.205   9.159 -0.5320 -0.1538  0.3186
   33POPC   H8R 4429   1.144   7.266   9.086  1.5537  0.1480  2.0531
   33POPC   H8S 4430   1.004   7.271   9.190  2.1738  3.6560  0.2736
   33POPC   C29 4431   1.056   7.058   9.112  0.5839 -0.4742  0.0833
   33POPC   H91 4432   0.990   6.999   9.177 -0.8358 -2.2699 -2.8052
   33POPC  C210 4433   1.088   7.008   8.991 -0.0234 -0.0359 -1.1080
   33POPC  H101 4434   1.061   6.903   8.974 -0.5279  0.0286 -0.7264
   33POPC  C211 4435   1.158   7.080   8.879  0.0774 -0.8958 -0.3236
   33POPC  H11R 4436   1.257   7.122   8.909 -0.6569  0.1448  0.7216
   33POPC  H11S 4437   1.096   7.167   8.847 -0.3781 -0.7404  0.9424
   33POPC  C212 4438   1.178   6.971   8.775  0.0548 -0.5673 -0.6993
   33POPC  H12R 4439   1.084   6.913   8.758 -0.1957 -0.8784  1.5080
   33POPC  H12S 4440   1.250   6.894   8.809 -2.3014 -2.6155 -0.0201
   33POPC  C213 4441   1.228   7.039   8.646 -0.5705  0.7473  0.4936
   33POPC  H13R 4442   1.334   7.072   8.656 -0.5145  0.7422 -0.0695
   33POPC  H13S 4443   1.146   7.112   8.625 -0.3503  0.5434 -1.2153
   33POPC  C214 4444   1.221   6.937   8.530  0.1232  0.0391 -0.5078
   33POPC  H14R 4445   1.203   6.987   8.432  1.1189  2.3758  0.4187
   33POPC  H14S 4446   1.144   6.862   8.559  0.5203 -0.2188 -0.1206
   33POPC  C215 4447   1.346   6.858   8.506  0.3344 -0.5406 -0.4928
   33POPC  H15R 4448   1.357   6.776   8.580  2.0938  1.1860  1.2747
   33POPC  H15S 4449   1.430   6.928   8.524  0.2858 -1.1345  2.4177
   33POPC  C216 4450   1.354   6.790   8.373 -0.4243 -0.2299  0.1601
   33POPC  H16R 4451   1.452   6.740   8.356 -0.3885 -0.6798  1.5806
   33POPC  H16S 4452   1.335   6.867   8.296 -1.7974  0.2447  0.9353
   33POPC  C217 4453   1.251   6.675   8.353 -0.0743 -0.4395 -0.5684
   33POPC  H17R 4454   1.147   6.712   8.357  0.3668  0.7472  0.6691
   33POPC  H17S 4455   1.261   6.601   8.435  1.3663  1.1067  0.7149
   33POPC  C218 4456   1.284   6.595   8.224 -0.1474 -0.5607 -1.3087
   33POPC  H18R 4457   1.303   6.670   8.145 -0.4659  1.1017  0.1474
   33POPC  H18S 4458   1.198   6.532   8.192 -0.6032  0.2533 -1.7073
   33POPC  H18T 4459   1.373   6.530   8.239  0.2162  0.1482 -0.2487
   33POPC   C33 4460   0.937   6.753   9.563  0.3900 -0.5196 -0.3189
   33POPC   H3X 4461   0.966   6.659   9.615 -2.9601 -0.9690  0.9904
   33POPC   H3Y 4462   1.031   6.812   9.557  0.4932 -0.3921  1.7040
   33POPC   C34 4463   0.892   6.699   9.426 -0.2258  0.6832 -0.1058
   33POPC   H4X 4464   0.790   6.655   9.435  0.8388 -1.6695  1.6654
   33POPC   H4Y 4465   0.955   6.614   9.392  0.9653  1.7420 -0.6290
   33POPC   C35 4466   0.900   6.808   9.324 -0.3333  0.2841 -0.4411
   33POPC   H5X 4467   1.007   6.817   9.295 -0.6150  3.8736 -0.8128
   33POPC   H5Y 4468   0.874   6.906   9.368 -0.7329 -0.3397  0.7701
   33POPC   C36 4469   0.837   6.766   9.186  0.1359  0.5918 -0.9584
   33POPC   H6X 4470   0.819   6.863   9.134  0.5195  1.4942  0.5329
   33POPC   H6Y 4471   0.744   6.713   9.216  1.1811 -0.2231  0.9878
   33POPC   C37 4472   0.918   6.661   9.116  0.1939  0.2060 -0.3369
   33POPC   H7X 4473   0.950   6.578   9.182  0.1838  1.9295  1.9517
   33POPC   H7Y 4474   1.010   6.712   9.079  1.5048 -1.1202  0.9460
   33POPC   C38 4475   0.857   6.608   8.989  0.1544 -1.0205  0.2041
   33POPC   H8X 4476   0.756   6.569   9.013  1.1774 -2.5056  2.5833
   33POPC   H8Y 4477   0.920   6.521   8.959  0.2600 -1.0912  0.6209
   33POPC   C39 4478   0.861   6.708   8.878 -0.5971 -0.1969  0.4381
   33POPC   H9X 4479   0.967   6.728   8.853 -0.5272  0.6169  1.3245
   33POPC   H9Y 4480   0.812   6.807   8.885  1.2946  0.9887 -1.7537
   33POPC  C310 4481   0.819   6.641   8.744  0.0639 -0.7183  0.0990
   33POPC  H10X 4482   0.710   6.623   8.742 -0.5227  1.9431  2.5744
   33POPC  H10Y 4483   0.874   6.544   8.738 -1.5771 -1.6436 -0.8667
   33POPC  C311 4484   0.857   6.721   8.618  0.3521  0.2981  0.2241
   33POPC  H11X 4485   0.873   6.651   8.534 -1.6355 -0.3747  0.3434
   33POPC  H11Y 4486   0.956   6.771   8.620  0.4840  0.0424  0.1817
   33POPC  C312 4487   0.752   6.812   8.578  0.1468  0.1518 -0.0092
   33POPC  H12X 4488   0.727   6.883   8.659  2.0934  0.0652  0.7215
   33POPC  H12Y 4489   0.658   6.756   8.562 -1.1438  2.6575 -1.9582
   33POPC  C313 4490   0.788   6.897   8.457  0.3952 -0.1232  0.1330
   33POPC  H13X 4491   0.804   6.829   8.370  0.2823  0.6768 -0.5290
   33POPC  H13Y 4492   0.888   6.937   8.484  0.5840 -1.1871  1.0369
   33POPC  C314 4493   0.688   7.001   8.418 -0.1986  0.7316  0.4489
   33POPC  H14X 4494   0.687   7.088   8.486 -3.2362  0.9542  0.2645
   33POPC  H14Y 4495   0.589   6.956   8.398  0.3471  0.0932 -0.9929
   33POPC  C315 4496   0.731   7.064   8.282 -0.6717  0.4002  0.2232
   33POPC  H15X 4497   0.722   6.986   8.204 -0.2562 -0.8580  1.3818
   33POPC  H15Y 4498   0.841   7.071   8.276 -0.6396 -0.6626 -5.2724
   33POPC  C316 4499   0.653   7.188   8.244  0.1612  0.2893 -0.3033
   33POPC  H16X 4500   0.705   7.237   8.159  1.2146  0.1594  0.2495
   33POPC  H16Y 4501   0.625   7.256   8.327 -1.6941  0.1488 -0.7685
   33POPC  H16Z 4502   0.556   7.150   8.207  0.9280 -0.7471 -1.3488
   34POPC     N 4503   5.987   6.848  10.890 -0.0842  0.1751  0.2816
   34POPC   C12 4504   5.848   6.854  10.825  0.5047  0.6503  0.0131
   34POPC  H12A 4505   5.767   6.884  10.890  0.3146 -1.2042  0.7075
   34POPC  H12B 4506   5.820   6.750  10.813 -1.1454  0.8646  1.5646
   34POPC   C13 4507   6.087   6.771  10.813 -0.4238 -0.0111 -0.2505
   34POPC  H13A 4508   6.192   6.780  10.835 -0.1263 -2.1640 -0.5763
   34POPC  H13B 4509   6.073   6.665  10.825 -0.6094  0.0504  0.0826
   34POPC  H13C 4510   6.074   6.798  10.709  1.2303  0.0693 -0.4661
   34POPC   C14 4511   6.035   6.992  10.900 -0.0815  0.3948  0.1085
   34POPC  H14A 4512   6.048   7.031  10.800  1.8376  2.7059  1.1585
   34POPC  H14B 4513   5.966   7.053  10.956 -2.0693 -1.0838 -0.6181
   34POPC  H14C 4514   6.136   6.998  10.937  0.3248  1.3253 -1.0832
   34POPC   C15 4515   5.973   6.778  11.025 -0.3669 -0.6029 -0.1069
   34POPC  H15A 4516   5.924   6.839  11.099  0.0998 -0.2876 -0.0615
   34POPC  H15B 4517   6.069   6.742  11.057 -1.0904 -1.5977  1.0225
   34POPC  H15C 4518   5.918   6.686  11.009 -0.2131 -1.1662  2.2477
   34POPC   C11 4519   5.840   6.932  10.692 -0.1237  0.3542 -0.0566
   34POPC  H11A 4520   5.853   7.041  10.712 -0.4550  0.2245  0.9036
   34POPC  H11B 4521   5.733   6.909  10.671  0.0360 -1.1330  0.6137
   34POPC     P 4522   5.903   6.775  10.493  0.4017 -0.3412 -0.0107
   34POPC   O13 4523   5.822   6.676  10.562  0.4086  0.3547  0.0808
   34POPC   O14 4524   6.032   6.728  10.437 -0.0053 -0.0857 -0.6193
   34POPC   O12 4525   5.934   6.896  10.594  0.2035 -0.4253  0.5811
   34POPC   O11 4526   5.823   6.835  10.374  1.2432  0.2193 -0.1892
   34POPC    C1 4527   5.678   6.841  10.366 -0.6283 -0.1335  0.5015
   34POPC    HA 4528   5.632   6.851  10.467  0.9984 -0.9858  1.3646
   34POPC    HB 4529   5.626   6.752  10.325 -2.4011  2.0595 -2.3616
   34POPC    C2 4530   5.642   6.965  10.281  0.5028  0.4188 -0.0716
   34POPC    HS 4531   5.532   6.958  10.267  0.7866  0.7859 -3.2548
   34POPC   O21 4532   5.706   6.979  10.154 -0.4537 -0.8449  0.5679
   34POPC   C21 4533   5.642   6.905  10.063 -0.2585 -0.2963 -0.8996
   34POPC   O22 4534   5.544   6.838  10.084  0.6918  0.1298 -0.1212
   34POPC   C22 4535   5.700   6.927   9.926 -0.1389 -1.1361  0.3316
   34POPC   H2R 4536   5.810   6.923   9.938 -0.0759  0.7378  0.6746
   34POPC   H2S 4537   5.669   7.028   9.891  0.8786 -0.0681  2.3155
   34POPC    C3 4538   5.676   7.095  10.362  1.0924  0.5677 -0.2892
   34POPC    HX 4539   5.785   7.103  10.348  0.9673  1.5856 -0.8000
   34POPC    HY 4540   5.647   7.083  10.469 -1.4926 -0.8470 -1.0602
   34POPC   O31 4541   5.607   7.209  10.324 -0.2751 -0.1202 -0.2628
   34POPC   C31 4542   5.477   7.209  10.342 -0.4738  0.0157  0.2601
   34POPC   O32 4543   5.404   7.123  10.395  0.0357 -0.4958 -0.3593
   34POPC   C32 4544   5.430   7.334  10.270  0.0585  0.3786 -0.1448
   34POPC   H2X 4545   5.511   7.368  10.202 -0.4663  0.3517 -0.7958
   34POPC   H2Y 4546   5.407   7.418  10.339 -0.4984 -1.8484  2.5368
   34POPC   C23 4547   5.650   6.824   9.828 -0.6919  0.2523 -0.1980
   34POPC   H3R 4548   5.542   6.804   9.845 -0.5723 -0.6623 -0.4889
   34POPC   H3S 4549   5.703   6.728   9.841  0.9698  1.3184  1.5028
   34POPC   C24 4550   5.670   6.875   9.683 -0.0753  0.0056 -0.7811
   34POPC   H4R 4551   5.770   6.841   9.649  0.3137  1.4413 -1.1341
   34POPC   H4S 4552   5.649   6.983   9.670 -1.3199  0.1739  1.8700
   34POPC   C25 4553   5.569   6.796   9.594  0.0476 -0.1858  0.2411
   34POPC   H5R 4554   5.468   6.841   9.582  0.8506  0.9132 -3.8316
   34POPC   H5S 4555   5.554   6.693   9.634  0.4466  0.1007  1.1510
   34POPC   C26 4556   5.618   6.794   9.446  0.4150  0.4795  0.2075
   34POPC   H6R 4557   5.710   6.733   9.436 -0.3363 -0.2813 -3.2317
   34POPC   H6S 4558   5.642   6.894   9.403  1.6246  0.9480  1.8745
   34POPC   C27 4559   5.511   6.721   9.362  0.2378 -0.3180 -0.0547
   34POPC   H7R 4560   5.414   6.765   9.393  0.1420 -0.3466 -0.3120
   34POPC   H7S 4561   5.503   6.620   9.406 -2.5286 -0.1749 -0.0352
   34POPC   C28 4562   5.521   6.735   9.205 -0.4682  0.9297  0.5688
   34POPC   H8R 4563   5.585   6.649   9.179  0.4964  1.6179  0.6305
   34POPC   H8S 4564   5.581   6.823   9.173 -2.5648  1.7443 -1.4000
   34POPC   C29 4565   5.386   6.738   9.133 -0.2095  0.2249  0.0414
   34POPC   H91 4566   5.314   6.807   9.181  1.2414 -0.0088  2.7940
   34POPC  C210 4567   5.351   6.659   9.027 -0.9374 -0.6607  0.3085
   34POPC  H101 4568   5.247   6.663   8.992 -0.9564 -0.6917  0.3595
   34POPC  C211 4569   5.446   6.583   8.941  0.0894 -0.3067 -0.1974
   34POPC  H11R 4570   5.443   6.476   8.973  1.9827 -0.3838 -0.1727
   34POPC  H11S 4571   5.552   6.615   8.948  0.0141  0.2278 -1.2731
   34POPC  C212 4572   5.400   6.580   8.793 -0.0071  0.3697 -0.2440
   34POPC  H12R 4573   5.371   6.684   8.769  0.3798  1.1131  2.1788
   34POPC  H12S 4574   5.307   6.522   8.771 -0.7471  0.8486  1.4141
   34POPC  C213 4575   5.509   6.532   8.702  0.6317  0.0756  0.0268
   34POPC  H13R 4576   5.537   6.432   8.740  0.7516  0.0477 -0.1364
   34POPC  H13S 4577   5.603   6.590   8.706 -0.5323  2.2703 -2.0290
   34POPC  C214 4578   5.477   6.520   8.551  0.0440 -0.4631  0.1533
   34POPC  H14R 4579   5.458   6.619   8.505  1.4229 -0.3248 -0.1612
   34POPC  H14S 4580   5.380   6.470   8.532  0.7332 -1.6078 -0.5359
   34POPC  C215 4581   5.593   6.462   8.468 -0.0077  0.1903 -0.2460
   34POPC  H15R 4582   5.554   6.402   8.383  0.7801  0.3951 -0.7565
   34POPC  H15S 4583   5.641   6.388   8.536 -1.7070 -0.2226  0.5700
   34POPC  C216 4584   5.701   6.566   8.427 -0.0493  0.2540  0.3574
   34POPC  H16R 4585   5.731   6.619   8.520  0.9658 -1.5234  1.0956
   34POPC  H16S 4586   5.655   6.634   8.352 -0.7653  1.3207  1.7179
   34POPC  C217 4587   5.828   6.495   8.371 -0.7186  0.0678  0.1113
   34POPC  H17R 4588   5.860   6.431   8.456 -0.4260 -1.0962 -0.8489
   34POPC  H17S 4589   5.904   6.575   8.360 -0.5224 -0.3951 -2.5941
   34POPC  C218 4590   5.809   6.429   8.234  0.8470  0.0251  0.2671
   34POPC  H18R 4591   5.892   6.361   8.206  0.9906  0.3107 -0.0169
   34POPC  H18S 4592   5.769   6.500   8.158 -0.3180 -1.2104 -0.3130
   34POPC  H18T 4593   5.729   6.360   8.267  0.6528  0.6261  1.0877
   34POPC   C33 4594   5.315   7.293  10.173 -0.3831 -0.2738  0.2561
   34POPC   H3X 4595   5.243   7.374  10.147 -0.5572 -1.0010 -1.7169
   34POPC   H3Y 4596   5.245   7.221  10.222 -1.0067 -0.7464 -1.2622
   34POPC   C34 4597   5.371   7.212  10.045  0.4478  0.1726  0.0637
   34POPC   H4X 4598   5.449   7.143  10.083  0.1784 -0.1137  0.0990
   34POPC   H4Y 4599   5.422   7.288   9.982 -2.8834  1.6186 -1.1136
   34POPC   C35 4600   5.268   7.144   9.954 -0.3320 -0.7372 -0.4375
   34POPC   H5X 4601   5.189   7.220   9.931 -0.0313  0.0599  1.0406
   34POPC   H5Y 4602   5.212   7.067  10.011 -2.5324  0.4746 -0.8310
   34POPC   C36 4603   5.313   7.075   9.823  0.0279  1.3761 -0.5388
   34POPC   H6X 4604   5.249   6.990   9.792 -0.5187  2.0724 -1.3665
   34POPC   H6Y 4605   5.407   7.018   9.840 -0.1352  1.3056  0.1524
   34POPC   C37 4606   5.324   7.166   9.704  0.2201  0.2425 -0.2266
   34POPC   H7X 4607   5.393   7.250   9.729  0.2053  0.1541  0.1108
   34POPC   H7Y 4608   5.229   7.221   9.685 -0.8656 -1.2657  0.6105
   34POPC   C38 4609   5.367   7.102   9.574  0.5223 -0.0556  0.2803
   34POPC   H8X 4610   5.303   7.014   9.548  0.6134  0.2882 -1.1575
   34POPC   H8Y 4611   5.475   7.078   9.578  0.6385 -0.1192 -1.9735
   34POPC   C39 4612   5.358   7.195   9.458 -0.3513 -0.5399 -0.0388
   34POPC   H9X 4613   5.432   7.273   9.485 -0.0054 -0.3537 -1.4314
   34POPC   H9Y 4614   5.257   7.243   9.454 -0.3839 -0.6591 -1.9574
   34POPC  C310 4615   5.388   7.129   9.325 -0.0860 -0.0708 -0.5103
   34POPC  H10X 4616   5.321   7.041   9.327 -0.0736 -0.0776 -0.3800
   34POPC  H10Y 4617   5.495   7.098   9.328 -0.3550 -0.9616  1.1070
   34POPC  C311 4618   5.379   7.214   9.197  0.3367  0.0815 -0.9610
   34POPC  H11X 4619   5.458   7.293   9.199  1.0467 -0.5887 -1.7250
   34POPC  H11Y 4620   5.282   7.267   9.210  0.5289  0.2850 -0.3409
   34POPC  C312 4621   5.392   7.140   9.070 -0.1919  0.5742  0.1426
   34POPC  H12X 4622   5.355   7.207   8.990  1.2657  3.6901  1.9083
   34POPC  H12Y 4623   5.338   7.043   9.069 -0.0427  0.4907  0.1033
   34POPC  C313 4624   5.535   7.099   9.028  0.1054 -0.0145  0.3066
   34POPC  H13X 4625   5.593   7.059   9.114  0.9738  2.7766  1.1371
   34POPC  H13Y 4626   5.589   7.190   8.994  0.5933 -0.0710  0.9195
   34POPC  C314 4627   5.534   7.008   8.903  0.3745  0.2909 -0.1917
   34POPC  H14X 4628   5.496   7.065   8.816  1.1341  1.3606  0.1535
   34POPC  H14Y 4629   5.478   6.919   8.937  1.0133  0.1916  0.6267
   34POPC  C315 4630   5.683   6.981   8.866  0.2300 -0.0920 -0.3361
   34POPC  H15X 4631   5.743   6.953   8.955 -0.1897  2.4645  0.8588
   34POPC  H15Y 4632   5.742   7.074   8.849  3.0029 -1.5380  0.7832
   34POPC  C316 4633   5.692   6.882   8.749 -0.0317  0.5720 -0.4149
   34POPC  H16X 4634   5.797   6.861   8.721 -0.3677  0.2292 -1.4630
   34POPC  H16Y 4635   5.634   6.919   8.661  0.9701 -1.9216 -2.2357
   34POPC  H16Z 4636   5.652   6.781   8.774  0.2329  0.1571 -1.5696
   35POPC     N 4637   6.718   6.273  10.776  0.0439  0.4747  0.5397
   35POPC   C12 4638   6.768   6.137  10.729 -0.5576 -0.4379 -1.0053
   35POPC  H12A 4639   6.727   6.056  10.787 -2.1545  1.4241  0.6087
   35POPC  H12B 4640   6.873   6.135  10.754 -1.2334 -0.5601  2.1037
   35POPC   C13 4641   6.727   6.289  10.925 -0.2088  0.1125 -0.0858
   35POPC  H13A 4642   6.681   6.202  10.971 -0.6161  0.6751  0.5964
   35POPC  H13B 4643   6.829   6.300  10.959 -0.0470 -2.4587  0.4962
   35POPC  H13C 4644   6.666   6.372  10.957 -0.5211 -0.3880  0.6574
   35POPC   C14 4645   6.796   6.376  10.702 -0.2466 -0.1086  0.2683
   35POPC  H14A 4646   6.782   6.358  10.596 -2.3351 -4.1313  1.0211
   35POPC  H14B 4647   6.752   6.473  10.720  1.8943  0.5822  2.2864
   35POPC  H14C 4648   6.900   6.379  10.732  0.7167  0.9310 -2.7933
   35POPC   C15 4649   6.576   6.301  10.724 -0.1267 -0.2350 -0.0313
   35POPC  H15A 4650   6.501   6.240  10.773  0.1785  0.1153  0.9006
   35POPC  H15B 4651   6.571   6.267  10.622  2.8683 -0.7350 -0.1094
   35POPC  H15C 4652   6.551   6.404  10.744  2.2883  0.5862 -0.8890
   35POPC   C11 4653   6.750   6.110  10.573  0.4508  0.2446  0.4364
   35POPC  H11A 4654   6.816   6.028  10.538  0.3271  0.6590 -0.8131
   35POPC  H11B 4655   6.784   6.196  10.511  0.6971 -2.0152 -2.7937
   35POPC     P 4656   6.523   5.962  10.580  0.2369 -0.0850  0.3213
   35POPC   O13 4657   6.401   6.005  10.644  0.1026 -0.4560  0.1470
   35POPC   O14 4658   6.615   5.877  10.650  0.0176  0.5460  0.2596
   35POPC   O12 4659   6.611   6.084  10.532  0.1190 -0.3337 -0.1223
   35POPC   O11 4660   6.494   5.883  10.448  0.5784  0.3132 -0.1732
   35POPC    C1 4661   6.489   5.950  10.320 -0.1708 -1.0109  0.0868
   35POPC    HA 4662   6.589   5.964  10.274 -1.1864 -0.7918 -2.2320
   35POPC    HB 4663   6.454   6.056  10.321  1.9423 -0.2841  1.0221
   35POPC    C2 4664   6.431   5.866  10.203 -0.2207  0.1851 -1.0265
   35POPC    HS 4665   6.467   5.764  10.225  1.0587  0.8106 -0.0904
   35POPC   O21 4666   6.456   5.920  10.069 -0.0577 -0.2396 -0.2791
   35POPC   C21 4667   6.501   5.828   9.988  0.0127 -0.7193 -0.6692
   35POPC   O22 4668   6.532   5.712  10.006 -0.3413 -0.4119  0.2832
   35POPC   C22 4669   6.527   5.911   9.857  0.1814  0.7949 -0.4746
   35POPC   H2R 4670   6.622   5.959   9.888  1.2036 -3.0736  3.4126
   35POPC   H2S 4671   6.448   5.987   9.841  1.6034  1.9243 -2.6665
   35POPC    C3 4672   6.272   5.864  10.220 -0.2941  0.0559 -0.3422
   35POPC    HX 4673   6.235   5.958  10.174 -2.3687 -1.3374 -1.6831
   35POPC    HY 4674   6.251   5.854  10.328  2.1234  1.6245  0.3641
   35POPC   O31 4675   6.227   5.758  10.136  0.1980  0.3754  0.1530
   35POPC   C31 4676   6.123   5.689  10.176  0.0067 -0.3778 -0.0189
   35POPC   O32 4677   6.072   5.691  10.288 -0.3851 -0.5652  0.2669
   35POPC   C32 4678   6.086   5.603  10.059 -0.7149 -0.3930  0.5078
   35POPC   H2X 4679   6.022   5.659   9.987  2.0178  2.8539  0.3159
   35POPC   H2Y 4680   6.033   5.516  10.101  1.3108 -0.8463  2.3016
   35POPC   C23 4681   6.558   5.827   9.731  0.4218  0.0889  0.3330
   35POPC   H3R 4682   6.638   5.752   9.748 -1.1709 -1.4058  1.5009
   35POPC   H3S 4683   6.591   5.895   9.649  3.1048 -0.5899  0.7616
   35POPC   C24 4684   6.433   5.753   9.674  0.0085  0.1881  0.0755
   35POPC   H4R 4685   6.357   5.830   9.649 -1.8780 -1.3015  0.9495
   35POPC   H4S 4686   6.386   5.684   9.747  0.5849 -1.5863 -1.1592
   35POPC   C25 4687   6.456   5.674   9.541  0.2026 -0.6107 -0.2278
   35POPC   H5R 4688   6.373   5.603   9.523  0.3634 -0.1627 -3.1070
   35POPC   H5S 4689   6.534   5.595   9.548  0.2854 -0.4877  0.3065
   35POPC   C26 4690   6.473   5.756   9.413  0.4413  0.5238  0.3539
   35POPC   H6R 4691   6.538   5.843   9.437  1.4298 -0.2783  0.6817
   35POPC   H6S 4692   6.382   5.807   9.377  0.5674  0.6621  0.2272
   35POPC   C27 4693   6.538   5.678   9.297 -0.1358  0.5702 -0.4925
   35POPC   H7R 4694   6.461   5.602   9.271 -1.5125  1.4353  0.9129
   35POPC   H7S 4695   6.634   5.628   9.323 -1.8886 -1.1626  3.4109
   35POPC   C28 4696   6.572   5.776   9.182 -0.2072  0.3189 -0.4972
   35POPC   H8R 4697   6.639   5.853   9.225  0.4935 -0.5922  0.0899
   35POPC   H8S 4698   6.476   5.820   9.148 -0.8225  1.5942  2.5596
   35POPC   C29 4699   6.641   5.704   9.065  0.4624  0.2786 -0.3728
   35POPC   H91 4700   6.712   5.634   9.111  0.5105 -0.2044 -1.1684
   35POPC  C210 4701   6.595   5.692   8.936 -0.1903  0.8871  0.5819
   35POPC  H101 4702   6.649   5.625   8.868 -1.3109  1.5584 -1.0136
   35POPC  C211 4703   6.484   5.767   8.871 -0.2594  0.4683  0.4319
   35POPC  H11R 4704   6.522   5.804   8.774 -0.7538  0.3792  0.1971
   35POPC  H11S 4705   6.457   5.858   8.929  0.0645  1.0556 -0.3220
   35POPC  C212 4706   6.350   5.684   8.847  0.3436 -0.0713 -0.2038
   35POPC  H12R 4707   6.290   5.680   8.941  1.1630  3.1670  0.5939
   35POPC  H12S 4708   6.374   5.593   8.789  0.5515 -0.5214  0.5712
   35POPC  C213 4709   6.242   5.762   8.748 -0.5962  0.0583  0.2755
   35POPC  H13R 4710   6.294   5.801   8.658 -0.3132 -0.8459  0.0329
   35POPC  H13S 4711   6.219   5.853   8.806 -0.8029  0.8574 -1.0316
   35POPC  C214 4712   6.118   5.682   8.713 -0.3784 -0.1480  0.3975
   35POPC  H14R 4713   6.067   5.653   8.808  1.8539 -3.0569  0.8793
   35POPC  H14S 4714   6.151   5.587   8.664  1.2559  1.1724 -1.1942
   35POPC  C215 4715   6.023   5.756   8.622  0.0424 -0.5168 -0.2487
   35POPC  H15R 4716   6.023   5.867   8.624 -1.5270 -0.3879 -2.5951
   35POPC  H15S 4717   5.921   5.727   8.656  0.4556 -1.5007  0.2106
   35POPC  C216 4718   6.026   5.710   8.480  0.2817 -0.4925  0.0802
   35POPC  H16R 4719   6.028   5.599   8.489 -0.8239 -0.3569  4.3068
   35POPC  H16S 4720   6.119   5.729   8.424 -0.1163 -0.5910 -0.6220
   35POPC  C217 4721   5.905   5.756   8.403  0.6265  0.1316 -0.1963
   35POPC  H17R 4722   5.902   5.867   8.402  1.8113  0.1739 -0.6710
   35POPC  H17S 4723   5.811   5.708   8.436 -0.1922  1.4403 -0.5537
   35POPC  C218 4724   5.922   5.713   8.261  0.0055  0.4651 -0.1825
   35POPC  H18R 4725   5.842   5.746   8.191  0.9691  2.7887 -0.2607
   35POPC  H18S 4726   5.938   5.603   8.256  2.8205  0.7946 -0.0147
   35POPC  H18T 4727   6.016   5.760   8.225 -0.5161  1.2509 -0.5682
   35POPC   C33 4728   6.212   5.557   9.976  0.1619  0.9727 -0.1001
   35POPC   H3X 4729   6.285   5.508  10.045  0.4480  3.0950  1.1949
   35POPC   H3Y 4730   6.276   5.637   9.933  1.9145 -1.1382 -1.6503
   35POPC   C34 4731   6.181   5.460   9.860  0.3610 -0.4242  0.0592
   35POPC   H4X 4732   6.131   5.524   9.785 -0.5905  1.5457  2.2486
   35POPC   H4Y 4733   6.102   5.388   9.892  1.0677 -1.1102  0.2983
   35POPC   C35 4734   6.306   5.387   9.808 -0.4281 -0.8042 -0.1098
   35POPC   H5X 4735   6.335   5.309   9.883  0.6230  1.3066  1.7987
   35POPC   H5Y 4736   6.391   5.457   9.792  1.0055 -2.5031 -0.3537
   35POPC   C36 4737   6.281   5.329   9.669  0.1321  0.7566 -0.0725
   35POPC   H6X 4738   6.251   5.412   9.602  0.9836  1.1093 -0.0294
   35POPC   H6Y 4739   6.200   5.253   9.665  0.2292  0.7015 -1.3895
   35POPC   C37 4740   6.402   5.248   9.636 -0.1825  0.1011  0.0900
   35POPC   H7X 4741   6.406   5.170   9.715  1.0126 -0.1936 -0.2459
   35POPC   H7Y 4742   6.492   5.313   9.647 -0.9862  1.4076 -0.7745
   35POPC   C38 4743   6.398   5.193   9.496 -0.6030  0.4835 -0.5091
   35POPC   H8X 4744   6.292   5.164   9.485 -0.4171 -0.7383  0.7508
   35POPC   H8Y 4745   6.453   5.096   9.498 -0.8806  0.3444  0.5234
   35POPC   C39 4746   6.451   5.292   9.384  0.7078 -0.9522  0.1610
   35POPC   H9X 4747   6.550   5.333   9.412  0.9489 -1.4780  0.0990
   35POPC   H9Y 4748   6.384   5.378   9.366  0.3300 -1.1528  0.5876
   35POPC  C310 4749   6.465   5.221   9.251  0.3487 -0.2263 -0.3527
   35POPC  H10X 4750   6.369   5.173   9.223  0.0068  0.5590 -0.5541
   35POPC  H10Y 4751   6.532   5.134   9.268  3.1656  2.0765  1.3298
   35POPC  C311 4752   6.518   5.299   9.135  0.3178  0.5592  0.5419
   35POPC  H11X 4753   6.616   5.343   9.163  1.1024 -0.6110 -0.2886
   35POPC  H11Y 4754   6.457   5.390   9.115  1.3496  1.0721 -0.3971
   35POPC  C312 4755   6.527   5.226   8.995 -0.1872 -0.5066  0.0320
   35POPC  H12X 4756   6.426   5.215   8.948 -0.6127 -1.1221  1.0699
   35POPC  H12Y 4757   6.567   5.125   9.018  0.2253 -0.3650 -0.0561
   35POPC  C313 4758   6.628   5.278   8.896  0.4837 -0.4902  1.0082
   35POPC  H13X 4759   6.722   5.292   8.953  1.0296 -1.0767  0.2717
   35POPC  H13Y 4760   6.596   5.375   8.852  1.7415  0.1382  1.4289
   35POPC  C314 4761   6.664   5.179   8.791 -0.3430  0.8133  0.1900
   35POPC  H14X 4762   6.577   5.142   8.732  0.3150  0.5620 -0.6632
   35POPC  H14Y 4763   6.715   5.089   8.833 -2.1421 -0.4646 -0.2461
   35POPC  C315 4764   6.768   5.237   8.694  0.8321  0.1715 -0.4385
   35POPC  H15X 4765   6.864   5.269   8.740  0.1148  0.1156  1.1568
   35POPC  H15Y 4766   6.717   5.332   8.667  2.1930  0.6663 -1.4027
   35POPC  C316 4767   6.773   5.156   8.567 -0.3182  0.0106  0.5243
   35POPC  H16X 4768   6.667   5.135   8.541  0.0215  0.5996 -1.4889
   35POPC  H16Y 4769   6.836   5.064   8.566 -0.9189 -0.4067  0.5132
   35POPC  H16Z 4770   6.821   5.220   8.490 -1.1805 -0.6688 -0.6130
   36POPC     N 4771   6.214   3.230  10.391 -0.0466  0.0190 -0.7947
   36POPC   C12 4772   6.069   3.184  10.360 -0.4588 -0.5802  0.0671
   36POPC  H12A 4773   6.034   3.114  10.435  1.6126 -0.7513  0.9602
   36POPC  H12B 4774   6.074   3.120  10.273  1.8192  0.9909 -1.0435
   36POPC   C13 4775   6.258   3.324  10.285 -0.8534  0.2733 -0.0485
   36POPC  H13A 4776   6.349   3.373  10.316 -0.3366 -1.3213  1.0877
   36POPC  H13B 4777   6.284   3.263  10.199  1.4113 -0.0981  0.8219
   36POPC  H13C 4778   6.191   3.407  10.269 -0.9136 -0.1369 -2.2789
   36POPC   C14 4779   6.227   3.306  10.518 -0.4233  0.7357  0.7683
   36POPC  H14A 4780   6.157   3.388  10.514  0.1177  1.2486  1.4736
   36POPC  H14B 4781   6.200   3.247  10.604  0.7062 -1.1659 -0.1090
   36POPC  H14C 4782   6.326   3.341  10.543 -0.1037 -2.3006  4.6052
   36POPC   C15 4783   6.313   3.112  10.380 -0.4975  0.1525  0.1331
   36POPC  H15A 4784   6.416   3.137  10.403  1.4314 -3.6266 -3.1569
   36POPC  H15B 4785   6.317   3.067  10.282  1.1134 -0.1378  0.3016
   36POPC  H15C 4786   6.297   3.040  10.458 -0.4518 -0.7365 -0.6622
   36POPC   C11 4787   5.960   3.290  10.351  1.0311 -0.7661  0.9482
   36POPC  H11A 4788   5.870   3.251  10.299  1.4949  0.1680 -0.6368
   36POPC  H11B 4789   6.003   3.358  10.274 -0.7067 -1.4415 -0.6834
   36POPC     P 4790   5.850   3.291  10.584  0.3808  0.3351  0.1668
   36POPC   O13 4791   5.799   3.397  10.670 -0.2280 -0.8445 -0.2785
   36POPC   O14 4792   5.922   3.189  10.657 -0.2558 -0.5455  0.2304
   36POPC   O12 4793   5.940   3.354  10.473  0.5417  0.4052  0.2261
   36POPC   O11 4794   5.733   3.213  10.507  0.2832  0.2462 -0.2955
   36POPC    C1 4795   5.608   3.275  10.484  0.5354  0.6482  0.5277
   36POPC    HA 4796   5.583   3.358  10.553 -0.0474 -0.5128  1.7695
   36POPC    HB 4797   5.527   3.202  10.502  0.2173  0.6636 -0.7123
   36POPC    C2 4798   5.591   3.324  10.335 -0.5095  0.5268 -0.5648
   36POPC    HS 4799   5.649   3.249  10.277 -0.4394 -0.3502  0.6119
   36POPC   O21 4800   5.632   3.466  10.319  0.3265 -0.4750 -0.3073
   36POPC   C21 4801   5.701   3.490  10.210 -0.8795 -0.3912  0.7611
   36POPC   O22 4802   5.730   3.410  10.124  0.1320  0.6594 -0.0788
   36POPC   C22 4803   5.731   3.639  10.207 -0.0951 -0.2508  0.8354
   36POPC   H2R 4804   5.759   3.654  10.101 -1.4981  2.1799  0.7284
   36POPC   H2S 4805   5.815   3.659  10.277 -0.4765  0.9509  0.9802
   36POPC    C3 4806   5.441   3.319  10.289 -0.0396  0.2735 -0.8143
   36POPC    HX 4807   5.388   3.381  10.364 -0.4086  0.3159 -1.1077
   36POPC    HY 4808   5.410   3.213  10.291  2.0017 -0.3611 -0.2055
   36POPC   O31 4809   5.413   3.371  10.164  0.5488 -0.0295  0.4454
   36POPC   C31 4810   5.429   3.291  10.062  0.0859  0.2722  0.6563
   36POPC   O32 4811   5.475   3.176  10.070  0.8841  0.9589  0.0432
   36POPC   C32 4812   5.391   3.367   9.932  0.0166 -0.2728 -0.3702
   36POPC   H2X 4813   5.453   3.459   9.931  0.7896 -0.7746 -1.7374
   36POPC   H2Y 4814   5.288   3.400   9.954  0.1306 -0.1632  0.0002
   36POPC   C23 4815   5.610   3.732  10.223  0.3541 -0.4453  0.0468
   36POPC   H3R 4816   5.656   3.832  10.236 -0.4876  0.1648 -1.4461
   36POPC   H3S 4817   5.549   3.712  10.313 -0.4924  1.0017 -0.1770
   36POPC   C24 4818   5.512   3.727  10.108  0.3770  0.0472  0.0544
   36POPC   H4R 4819   5.427   3.795  10.131 -0.5015 -1.4509  1.4476
   36POPC   H4S 4820   5.481   3.621  10.100  0.8909 -0.1319  0.4145
   36POPC   C25 4821   5.570   3.773   9.974  0.4313  0.0345 -0.1751
   36POPC   H5R 4822   5.651   3.706   9.941 -2.1874 -1.4002 -4.5194
   36POPC   H5S 4823   5.613   3.873   9.998  1.9958 -0.5119 -0.5960
   36POPC   C26 4824   5.467   3.768   9.847 -0.4076 -0.1285 -0.3028
   36POPC   H6R 4825   5.439   3.660   9.845 -1.3471  0.0041  2.1989
   36POPC   H6S 4826   5.524   3.795   9.755 -1.8980  1.5231 -0.7792
   36POPC   C27 4827   5.358   3.868   9.865  0.5123 -0.3918  0.2748
   36POPC   H7R 4828   5.404   3.954   9.919 -0.2446  0.1575  0.0598
   36POPC   H7S 4829   5.271   3.831   9.924 -2.0348  2.5483 -1.3399
   36POPC   C28 4830   5.285   3.916   9.731 -0.2048  0.1718  0.4659
   36POPC   H8R 4831   5.359   3.963   9.663 -0.0394 -1.4249 -0.5037
   36POPC   H8S 4832   5.214   3.995   9.763 -1.3374 -0.5414 -0.1958
   36POPC   C29 4833   5.225   3.801   9.666  0.2461  0.4696 -0.0731
   36POPC   H91 4834   5.179   3.728   9.733  0.4591 -0.1493 -0.5897
   36POPC  C210 4835   5.217   3.772   9.532  0.1699  0.3693 -0.4387
   36POPC  H101 4836   5.171   3.681   9.492  0.0517  0.8666 -1.4470
   36POPC  C211 4837   5.252   3.870   9.425  0.5537 -0.2241 -0.0611
   36POPC  H11R 4838   5.312   3.813   9.352  0.4346  0.2309 -0.5229
   36POPC  H11S 4839   5.319   3.948   9.467  0.0750 -0.2689  0.8171
   36POPC  C212 4840   5.136   3.935   9.345  0.4112  0.3089  0.0013
   36POPC  H12R 4841   5.164   4.015   9.273 -0.4979  1.2618  0.6858
   36POPC  H12S 4842   5.066   3.991   9.410 -3.8338 -3.4789 -0.7923
   36POPC  C213 4843   5.042   3.828   9.271  0.1448  0.4116  0.1445
   36POPC  H13R 4844   5.013   3.749   9.345  0.4836  1.5548  1.5293
   36POPC  H13S 4845   5.101   3.784   9.188 -1.7386 -1.1274 -0.4843
   36POPC  C214 4846   4.903   3.869   9.211 -1.4067 -0.0359 -0.2126
   36POPC  H14R 4847   4.920   3.970   9.168 -0.1126 -0.0606  0.1880
   36POPC  H14S 4848   4.837   3.875   9.300 -1.0945 -0.0184  0.0214
   36POPC  C215 4849   4.864   3.766   9.099 -0.7331  0.0611 -0.1150
   36POPC  H15R 4850   4.874   3.658   9.125 -0.5834  0.0631 -0.1623
   36POPC  H15S 4851   4.945   3.780   9.024 -2.1874 -0.4391 -1.8411
   36POPC  C216 4852   4.736   3.801   9.030  0.3873  0.4620  0.6967
   36POPC  H16R 4853   4.751   3.908   9.005  0.9314  0.0536 -0.8031
   36POPC  H16S 4854   4.652   3.804   9.104  0.1683  0.9019  0.4338
   36POPC  C217 4855   4.703   3.713   8.912 -0.1006  0.3423 -0.3789
   36POPC  H17R 4856   4.620   3.755   8.852  0.5739 -0.2739 -1.7903
   36POPC  H17S 4857   4.677   3.611   8.947  0.9977 -0.2778 -1.2921
   36POPC  C218 4858   4.823   3.679   8.821 -0.3534  0.0015  0.1818
   36POPC  H18R 4859   4.916   3.643   8.870 -0.0637 -0.0962 -0.4303
   36POPC  H18S 4860   4.856   3.770   8.768 -2.3933 -0.7955 -2.6664
   36POPC  H18T 4861   4.796   3.603   8.745 -1.2112 -0.5930  1.0420
   36POPC   C33 4862   5.402   3.291   9.800  0.6194 -0.3230  0.9630
   36POPC   H3X 4863   5.506   3.258   9.780  0.2212 -0.6756 -0.6790
   36POPC   H3Y 4864   5.376   3.365   9.720 -0.0721 -0.2337  1.2655
   36POPC   C34 4865   5.309   3.164   9.795 -0.5588 -0.1716  0.7137
   36POPC   H4X 4866   5.204   3.198   9.803 -0.1553  0.8345  2.2124
   36POPC   H4Y 4867   5.321   3.105   9.888  1.3363 -1.7936 -0.4866
   36POPC   C35 4868   5.339   3.049   9.694 -0.4272 -0.1927  0.2193
   36POPC   H5X 4869   5.434   3.001   9.726  0.4574  0.4392 -1.3776
   36POPC   H5Y 4870   5.368   3.090   9.595  1.2169 -0.5630  0.5110
   36POPC   C36 4871   5.225   2.952   9.691  0.1119 -0.4266 -0.0076
   36POPC   H6X 4872   5.123   2.997   9.694 -1.0282 -2.8679  0.8391
   36POPC   H6Y 4873   5.238   2.891   9.783  3.0644 -1.0912 -0.7635
   36POPC   C37 4874   5.220   2.856   9.574 -0.7217  0.6121  0.2755
   36POPC   H7X 4875   5.120   2.807   9.570  0.3184 -1.6328  0.0854
   36POPC   H7Y 4876   5.300   2.782   9.596 -1.7297 -1.7220 -3.0115
   36POPC   C38 4877   5.240   2.915   9.441 -0.0560  0.1833  0.0078
   36POPC   H8X 4878   5.348   2.937   9.427  0.0262 -0.9265 -1.3822
   36POPC   H8Y 4879   5.182   3.009   9.436  0.0437  0.1941 -1.2247
   36POPC   C39 4880   5.219   2.807   9.337 -0.0817  0.1267 -0.2104
   36POPC   H9X 4881   5.116   2.765   9.335 -0.0777  0.1172 -0.2095
   36POPC   H9Y 4882   5.294   2.726   9.352  0.0999  0.2421 -0.4890
   36POPC  C310 4883   5.244   2.857   9.192 -0.0928 -0.3208 -0.7582
   36POPC  H10X 4884   5.339   2.915   9.188 -0.1552 -0.1434  0.1227
   36POPC  H10Y 4885   5.159   2.926   9.174 -0.8527 -1.2859 -0.8889
   36POPC  C311 4886   5.246   2.742   9.085  0.0579 -0.9213 -0.6020
   36POPC  H11X 4887   5.142   2.703   9.088 -0.7931  0.9757 -2.7098
   36POPC  H11Y 4888   5.324   2.667   9.110 -1.5310 -2.0972  1.1215
   36POPC  C312 4889   5.270   2.818   8.955  0.5823 -0.4357 -0.8337
   36POPC  H12X 4890   5.369   2.870   8.962  0.9678 -1.2479 -0.1451
   36POPC  H12Y 4891   5.185   2.886   8.935  1.6224  1.1012 -0.2611
   36POPC  C313 4892   5.278   2.730   8.830 -0.5491  0.1006  0.2911
   36POPC  H13X 4893   5.180   2.713   8.781 -0.8424  2.5209 -0.1000
   36POPC  H13Y 4894   5.317   2.634   8.869 -1.4354  0.1822  1.4433
   36POPC  C314 4895   5.372   2.789   8.722  0.2678  0.3362  0.7525
   36POPC  H14X 4896   5.477   2.794   8.756  1.3597  0.6387 -2.2899
   36POPC  H14Y 4897   5.339   2.894   8.706  1.0909  0.3324 -1.2414
   36POPC  C315 4898   5.371   2.718   8.588  0.4247 -0.6463 -0.3007
   36POPC  H15X 4899   5.434   2.788   8.528  0.0622  0.7510  0.9026
   36POPC  H15Y 4900   5.265   2.721   8.554  0.8696 -0.1886 -1.7110
   36POPC  C316 4901   5.420   2.575   8.601  0.0912 -0.3256 -0.2737
   36POPC  H16X 4902   5.450   2.562   8.708 -1.4334  2.8503  0.6648
   36POPC  H16Y 4903   5.510   2.560   8.538  0.9632 -2.8907  1.4003
   36POPC  H16Z 4904   5.343   2.498   8.583  1.6057 -2.8131  2.8088
   37POPC     N 4905   5.565   0.102   5.902 -0.5190 -0.2903 -0.2328
   37POPC   C12 4906   5.466   0.046   6.008 -0.0618 -0.3512 -0.2530
   37POPC  H12A 4907   5.381   0.019   5.948 -1.4989  0.5418  1.2916
   37POPC  H12B 4908   5.433   0.129   6.070 -0.0147 -0.7760  0.3547
   37POPC   C13 4909   5.495   0.203   5.812  0.6532  0.2375 -0.4613
   37POPC  H13A 4910   5.551   0.220   5.722 -0.5279  0.0758 -1.2399
   37POPC  H13B 4911   5.402   0.158   5.781  0.7796 -0.2539 -0.1411
   37POPC  H13C 4912   5.484   0.297   5.864  1.1019  0.0821 -0.0847
   37POPC   C14 4913   5.679   0.169   5.966  0.2889 -0.7073 -0.6328
   37POPC  H14A 4914   5.642   0.248   6.030  2.3208 -0.3777  0.2216
   37POPC  H14B 4915   5.732   0.106   6.036  1.4398  0.5338 -0.3364
   37POPC  H14C 4916   5.749   0.214   5.897  0.8284  1.4126  1.1799
   37POPC   C15 4917   5.615  -0.008   5.813 -0.2737 -1.0320 -0.2408
   37POPC  H15A 4918   5.702   0.033   5.764 -0.1475 -0.2495  0.6065
   37POPC  H15B 4919   5.541  -0.055   5.750  0.8581 -2.3826 -0.6111
   37POPC  H15C 4920   5.656  -0.088   5.873  2.8095  0.7182  0.1889
   37POPC   C11 4921   5.518  -0.064   6.102  0.7769 -0.0905 -0.4125
   37POPC  H11A 4922   5.432  -0.092   6.167 -0.0031 -1.3950 -1.9151
   37POPC  H11B 4923   5.603  -0.016   6.154  1.6852  0.4795 -2.3109
   37POPC     P 4924   5.475  -0.294   5.994 -0.2864 -0.0169 -0.2166
   37POPC   O13 4925   5.565  -0.392   5.925  0.4999  0.2841  0.1320
   37POPC   O14 4926   5.356  -0.235   5.928 -0.7176  0.1329  0.2815
   37POPC   O12 4927   5.565  -0.177   6.046  0.0429 -0.0896 -0.2728
   37POPC   O11 4928   5.418  -0.372   6.112  0.0040  0.5194  0.0539
   37POPC    C1 4929   5.480  -0.375   6.245 -0.1170 -0.1026  0.1412
   37POPC    HA 4930   5.530  -0.279   6.269 -1.4962  1.3412 -2.3199
   37POPC    HB 4931   5.563  -0.447   6.230 -1.3871 -1.9477  1.4762
   37POPC    C2 4932   5.381  -0.410   6.360 -0.1463  0.0428 -0.5039
   37POPC    HS 4933   5.325  -0.501   6.329  0.4432 -1.3457  2.1576
   37POPC   O21 4934   5.300  -0.298   6.394 -0.1032  0.4427  0.0658
   37POPC   C21 4935   5.192  -0.276   6.319  0.4795  0.3234 -0.3197
   37POPC   O22 4936   5.134  -0.362   6.254  0.0857 -0.4941 -0.8327
   37POPC   C22 4937   5.167  -0.121   6.320  0.1927  0.9888  0.2962
   37POPC   H2R 4938   5.130  -0.100   6.218 -1.0473 -0.7573  0.3305
   37POPC   H2S 4939   5.259  -0.064   6.345  0.1948  1.0553  0.1327
   37POPC    C3 4940   5.461  -0.452   6.484  0.1347  0.0075 -0.6681
   37POPC    HX 4941   5.538  -0.375   6.506 -0.3477 -0.3997  2.9820
   37POPC    HY 4942   5.524  -0.541   6.467 -0.1572 -0.3960  0.3572
   37POPC   O31 4943   5.372  -0.467   6.602 -0.4663 -0.1041 -0.0043
   37POPC   C31 4944   5.308  -0.579   6.615 -0.5388  0.1073 -0.8229
   37POPC   O32 4945   5.302  -0.677   6.539 -0.4255 -0.2952  0.1542
   37POPC   C32 4946   5.241  -0.582   6.752  0.0766  0.1659  0.1476
   37POPC   H2X 4947   5.307  -0.545   6.832  0.2700 -0.4952  0.3010
   37POPC   H2Y 4948   5.224  -0.691   6.766 -0.2450  0.5165  2.9548
   37POPC   C23 4949   5.049  -0.094   6.420  0.2095 -0.9763  0.1477
   37POPC   H3R 4950   4.951  -0.140   6.392  0.3136 -0.1970 -1.7080
   37POPC   H3S 4951   5.028   0.013   6.399  1.4943 -0.5683  0.8760
   37POPC   C24 4952   5.096  -0.113   6.567  0.2997 -0.0083 -0.3956
   37POPC   H4R 4953   5.188  -0.052   6.569 -0.7244  1.5676  0.4676
   37POPC   H4S 4954   5.125  -0.218   6.589 -3.9732 -1.2393  0.3601
   37POPC   C25 4955   5.009  -0.060   6.684 -0.1267 -1.0341  0.4859
   37POPC   H5R 4956   4.922  -0.127   6.701 -0.8659 -0.9859 -2.4745
   37POPC   H5S 4957   4.966   0.042   6.669  0.0742 -0.5774  2.6834
   37POPC   C26 4958   5.085  -0.063   6.821 -0.3607 -0.4504 -0.1908
   37POPC   H6R 4959   5.185  -0.014   6.809 -1.3156  1.4829 -0.6505
   37POPC   H6S 4960   5.094  -0.170   6.847  3.4410 -0.2394  0.0236
   37POPC   C27 4961   5.025   0.020   6.941  0.1624 -0.3248  0.0771
   37POPC   H7R 4962   4.924  -0.021   6.963  0.6337 -2.0056 -0.7472
   37POPC   H7S 4963   5.018   0.118   6.889 -0.6251  0.3431  1.3813
   37POPC   C28 4964   5.118   0.042   7.063 -0.0082  0.3900 -0.8746
   37POPC   H8R 4965   5.070   0.121   7.125  0.9297  1.6095 -1.6745
   37POPC   H8S 4966   5.221   0.066   7.029 -0.2157 -0.1285 -1.9059
   37POPC   C29 4967   5.140  -0.084   7.142 -0.0125 -0.9824  0.3124
   37POPC   H91 4968   5.210  -0.152   7.092  0.9438 -0.1483  0.4643
   37POPC  C210 4969   5.102  -0.109   7.269  0.4227  0.2210 -0.6056
   37POPC  H101 4970   5.127  -0.207   7.312  0.0770 -0.7348 -2.4602
   37POPC  C211 4971   5.003  -0.027   7.352  0.2471  0.3139  0.1650
   37POPC  H11R 4972   4.906  -0.080   7.343  1.4223 -1.6299 -2.2539
   37POPC  H11S 4973   4.986   0.073   7.305  1.3665  0.1144 -0.7151
   37POPC  C212 4974   5.056   0.006   7.501 -0.0399 -0.0493 -0.1753
   37POPC  H12R 4975   4.984   0.079   7.544  0.2842  0.3035 -0.2250
   37POPC  H12S 4976   5.161   0.044   7.503 -0.2490  0.5227  1.2540
   37POPC  C213 4977   5.033  -0.113   7.593  0.4125  0.2775  0.7066
   37POPC  H13R 4978   5.073  -0.206   7.547 -0.5984  0.2938 -0.2463
   37POPC  H13S 4979   4.923  -0.125   7.598  0.3298  1.3518  4.3644
   37POPC  C214 4980   5.096  -0.086   7.728  0.5977  0.6197 -0.0226
   37POPC  H14R 4981   5.205  -0.072   7.717  0.7187 -0.2292  0.0274
   37POPC  H14S 4982   5.070  -0.167   7.799 -1.4966  1.9469  0.8443
   37POPC  C215 4983   5.025   0.032   7.794 -0.1275  0.4760  0.1694
   37POPC  H15R 4984   4.915   0.019   7.785 -0.6178  3.1231  1.2847
   37POPC  H15S 4985   5.036   0.130   7.743 -1.6318  1.1632  1.1057
   37POPC  C216 4986   5.041   0.054   7.948  0.5322 -0.0809 -0.0823
   37POPC  H16R 4987   4.968  -0.011   8.002  0.9284 -0.6358 -0.1953
   37POPC  H16S 4988   5.024   0.158   7.982 -0.7404  0.0574 -1.0837
   37POPC  C217 4989   5.186   0.020   7.996 -0.1026  0.2085 -0.3716
   37POPC  H17R 4990   5.259   0.077   7.935 -0.4865  1.4205  0.2564
   37POPC  H17S 4991   5.214  -0.087   7.988  0.6148  0.3997 -0.4762
   37POPC  C218 4992   5.207   0.071   8.138  0.3350  0.3262 -0.1833
   37POPC  H18R 4993   5.237   0.178   8.139 -0.1688  0.4728 -0.2108
   37POPC  H18S 4994   5.285   0.018   8.197  1.6804 -0.3855 -2.4526
   37POPC  H18T 4995   5.117   0.073   8.203  0.0968 -0.3667 -0.4803
   37POPC   C33 4996   5.096  -0.527   6.755 -0.0875  0.1572 -0.1396
   37POPC   H3X 4997   5.036  -0.559   6.667 -0.7483 -2.2931  1.1020
   37POPC   H3Y 4998   5.099  -0.416   6.747 -0.3403  0.2654  1.0454
   37POPC   C34 4999   5.025  -0.575   6.881 -0.4471  0.2437  0.1689
   37POPC   H4X 5000   5.046  -0.685   6.882 -0.2280  0.2831  1.3908
   37POPC   H4Y 5001   4.915  -0.564   6.877 -0.3133  1.3994 -0.7376
   37POPC   C35 5002   5.059  -0.506   7.015 -0.4981  0.4388 -0.5803
   37POPC   H5X 5003   5.045  -0.396   7.001  3.9727  0.9816 -2.1292
   37POPC   H5Y 5004   5.168  -0.518   7.025 -0.6378  1.0244  2.8506
   37POPC   C36 5005   4.983  -0.569   7.129 -0.1363  1.0285  0.7660
   37POPC   H6X 5006   4.979  -0.680   7.118  1.5959  0.8451  1.6922
   37POPC   H6Y 5007   4.879  -0.529   7.128 -0.5357  0.0778  1.9638
   37POPC   C37 5008   5.049  -0.549   7.263 -0.1684 -0.1247  0.0640
   37POPC   H7X 5009   5.098  -0.449   7.264  0.5869 -0.4909 -0.0930
   37POPC   H7Y 5010   5.124  -0.626   7.291 -0.6639 -0.5842  0.1398
   37POPC   C38 5011   4.945  -0.558   7.366  0.3727  0.0916 -0.3566
   37POPC   H8X 5012   4.891  -0.653   7.345 -0.9210  0.4259  1.2781
   37POPC   H8Y 5013   4.867  -0.481   7.352 -0.0594 -0.5752 -1.8439
   37POPC   C39 5014   4.998  -0.559   7.511  0.5469 -1.1551 -0.1944
   37POPC   H9X 5015   5.029  -0.457   7.544 -2.8911 -0.4743  1.4187
   37POPC   H9Y 5016   5.086  -0.625   7.526  1.8972 -0.0439 -2.7515
   37POPC  C310 5017   4.884  -0.604   7.608  0.2830 -0.0500  0.1044
   37POPC  H10X 5018   4.927  -0.622   7.709 -0.2050  1.8623  0.6841
   37POPC  H10Y 5019   4.845  -0.703   7.576 -0.7644  0.8704 -1.5887
   37POPC  C311 5020   4.776  -0.502   7.626 -0.3930 -0.5753  0.0630
   37POPC  H11X 5021   4.675  -0.547   7.639 -0.5584 -0.2476 -0.0749
   37POPC  H11Y 5022   4.769  -0.429   7.542  0.8018 -0.5298 -0.0128
   37POPC  C312 5023   4.791  -0.425   7.756 -0.1093 -0.0702 -0.8257
   37POPC  H12X 5024   4.895  -0.390   7.775 -0.6296  1.1614 -0.1731
   37POPC  H12Y 5025   4.759  -0.478   7.848  0.6658  3.7276  1.8680
   37POPC  C313 5026   4.700  -0.295   7.753  0.7574 -0.3017  0.9469
   37POPC  H13X 5027   4.596  -0.333   7.763 -0.2369  2.5963  2.8792
   37POPC  H13Y 5028   4.697  -0.237   7.659  0.5489  3.0601  2.8702
   37POPC  C314 5029   4.735  -0.190   7.859 -0.2255 -0.2167  0.5849
   37POPC  H14X 5030   4.670  -0.101   7.851 -1.1779 -0.7752  1.7742
   37POPC  H14Y 5031   4.841  -0.162   7.844 -0.1703 -0.6725  0.0667
   37POPC  C315 5032   4.740  -0.245   8.008  0.7429 -0.0528  0.2066
   37POPC  H15X 5033   4.754  -0.159   8.077 -3.0460  1.5518 -0.8019
   37POPC  H15Y 5034   4.828  -0.312   8.019  0.6701 -0.1361  0.2781
   37POPC  C316 5035   4.605  -0.312   8.038 -0.1450  0.3431 -0.3579
   37POPC  H16X 5036   4.600  -0.350   8.142  0.8651  2.4120  0.5074
   37POPC  H16Y 5037   4.587  -0.398   7.970  0.5236  0.0222 -0.1360
   37POPC  H16Z 5038   4.524  -0.240   8.013 -0.7365 -0.0577  0.3607
   38POPC     N 5039   0.546   3.716   6.217 -0.3516  0.3477  0.4028
   38POPC   C12 5040   0.662   3.809   6.170  0.0204 -0.1798  0.2496
   38POPC  H12A 5041   0.673   3.770   6.069 -0.9533 -0.2861  0.1705
   38POPC  H12B 5042   0.744   3.777   6.232 -0.6539 -1.1514  0.6763
   38POPC   C13 5043   0.433   3.722   6.122 -0.2167  0.0492  0.8058
   38POPC  H13A 5044   0.389   3.819   6.101  0.1564  0.0878  0.1700
   38POPC  H13B 5045   0.455   3.681   6.024 -1.1170  1.8165 -0.1827
   38POPC  H13C 5046   0.352   3.659   6.156 -0.7879  1.2548  1.7519
   38POPC   C14 5047   0.593   3.576   6.225 -0.2629 -0.3180  0.0839
   38POPC  H14A 5048   0.527   3.513   6.282 -1.2951  0.8380  0.1920
   38POPC  H14B 5049   0.607   3.528   6.129  1.2845  1.7000 -0.7996
   38POPC  H14C 5050   0.692   3.575   6.269 -0.4638 -0.9500  0.5279
   38POPC   C15 5051   0.503   3.770   6.347  0.2988  0.4323  0.5386
   38POPC  H15A 5052   0.481   3.876   6.341  1.5802  0.6230 -2.0488
   38POPC  H15B 5053   0.580   3.762   6.423  0.1565 -1.8193  0.5015
   38POPC  H15C 5054   0.412   3.723   6.379 -0.0849  2.0735  2.0538
   38POPC   C11 5055   0.644   3.955   6.169 -0.2994  0.4297 -0.4415
   38POPC  H11A 5056   0.747   3.989   6.143 -0.1250 -0.1404 -0.5066
   38POPC  H11B 5057   0.623   3.985   6.274 -2.1296  0.4795 -0.7844
   38POPC     P 5058   0.413   4.071   6.117 -0.0233  0.1367 -0.0445
   38POPC   O13 5059   0.295   3.995   6.062  0.5950 -0.0014  0.1834
   38POPC   O14 5060   0.422   4.215   6.077  0.4834  0.5510  0.5357
   38POPC   O12 5061   0.548   4.003   6.078 -0.6975 -0.4611  0.0047
   38POPC   O11 5062   0.415   4.050   6.270 -0.1039 -0.0459 -0.0319
   38POPC    C1 5063   0.368   4.153   6.362 -0.1458 -0.3585  0.7446
   38POPC    HA 5064   0.262   4.180   6.344 -0.2675 -1.1792  0.1530
   38POPC    HB 5065   0.432   4.243   6.359  0.7340 -0.9879 -0.0377
   38POPC    C2 5066   0.364   4.095   6.509  0.2768  0.1034  0.3292
   38POPC    HS 5067   0.332   4.181   6.572  2.5297  2.5178 -1.5663
   38POPC   O21 5068   0.496   4.042   6.540  0.0002  0.1699 -0.2513
   38POPC   C21 5069   0.589   4.135   6.564  0.1290 -0.1575 -0.0594
   38POPC   O22 5070   0.567   4.253   6.544  0.3148 -0.7578 -0.3342
   38POPC   C22 5071   0.710   4.068   6.629 -0.5683 -0.3592 -0.3108
   38POPC   H2R 5072   0.784   4.064   6.547  0.4711 -0.0197  0.5810
   38POPC   H2S 5073   0.682   3.973   6.679 -2.8254  0.6573  0.5274
   38POPC    C3 5074   0.254   3.987   6.530  0.0486  0.1603  0.5842
   38POPC    HX 5075   0.303   3.891   6.503  1.5631  0.4588  2.0878
   38POPC    HY 5076   0.167   4.004   6.463 -1.7740 -0.9484  2.5493
   38POPC   O31 5077   0.212   3.989   6.672 -0.5855 -0.0428  0.7219
   38POPC   C31 5078   0.103   3.908   6.689  0.0957  0.5313 -0.4471
   38POPC   O32 5079   0.038   3.855   6.599 -0.3282  0.2094 -0.4500
   38POPC   C32 5080   0.085   3.873   6.836  0.4159  0.2254  0.0410
   38POPC   H2X 5081   0.061   3.966   6.893 -0.1774 -1.4163  2.6617
   38POPC   H2Y 5082   0.186   3.837   6.867  0.3724 -1.6739 -1.8154
   38POPC   C23 5083   0.746   4.168   6.746  0.2564 -0.4226 -0.9470
   38POPC   H3R 5084   0.661   4.195   6.812 -0.3278  1.2943 -2.3199
   38POPC   H3S 5085   0.776   4.262   6.695  0.7428 -0.5811 -0.9590
   38POPC   C24 5086   0.862   4.114   6.835 -0.4693 -0.0544 -0.5804
   38POPC   H4R 5087   0.947   4.131   6.766  0.3079  1.6992  0.7408
   38POPC   H4S 5088   0.855   4.005   6.856 -0.8548  0.2268  0.8786
   38POPC   C25 5089   0.886   4.199   6.962  0.9112  0.6507 -0.5604
   38POPC   H5R 5090   0.852   4.304   6.949  0.6214  0.3661 -2.3697
   38POPC   H5S 5091   0.993   4.197   6.992  0.2942  0.2442  1.8900
   38POPC   C26 5092   0.816   4.127   7.081 -0.3701 -0.5121  0.3701
   38POPC   H6R 5093   0.844   4.020   7.089  0.8324 -0.4284 -1.8066
   38POPC   H6S 5094   0.710   4.116   7.051  0.2966  0.9818 -2.9799
   38POPC   C27 5095   0.844   4.205   7.208  0.1792  0.7355  0.4486
   38POPC   H7R 5096   0.821   4.313   7.194  2.5802  1.0687 -1.7800
   38POPC   H7S 5097   0.951   4.195   7.233 -0.1076 -0.4974  1.3030
   38POPC   C28 5098   0.755   4.155   7.322  0.1599  0.1864  0.2555
   38POPC   H8R 5099   0.761   4.045   7.310  3.9311  0.4793 -1.9567
   38POPC   H8S 5100   0.649   4.183   7.304  0.4134  0.8767 -0.2084
   38POPC   C29 5101   0.812   4.200   7.454 -0.6297  0.1753 -0.5813
   38POPC   H91 5102   0.921   4.198   7.470 -0.9977  1.5247  2.7731
   38POPC  C210 5103   0.739   4.232   7.565 -0.1471 -0.6011  0.5820
   38POPC  H101 5104   0.786   4.256   7.662 -2.6596  2.9279  1.1433
   38POPC  C211 5105   0.589   4.254   7.580 -0.6707  0.1334 -0.5061
   38POPC  H11R 5106   0.541   4.163   7.622 -0.1658  0.8776  1.8189
   38POPC  H11S 5107   0.556   4.277   7.477 -0.0311  4.0405  0.0077
   38POPC  C212 5108   0.544   4.374   7.672 -0.1438  0.7745  0.3762
   38POPC  H12R 5109   0.594   4.354   7.769  1.3832  1.6003 -0.2119
   38POPC  H12S 5110   0.433   4.375   7.675 -0.2820 -0.1013 -2.1268
   38POPC  C213 5111   0.590   4.511   7.617 -0.4923 -0.0001  0.1016
   38POPC  H13R 5112   0.689   4.495   7.569 -0.1820  1.6230  0.1253
   38POPC  H13S 5113   0.595   4.580   7.704  2.8170  0.9280 -0.6931
   38POPC  C214 5114   0.496   4.588   7.524  0.5771  1.0043 -0.2505
   38POPC  H14R 5115   0.404   4.618   7.579  0.1020  0.0104 -0.4662
   38POPC  H14S 5116   0.445   4.529   7.444 -1.0566  1.5687  0.3165
   38POPC  C215 5117   0.553   4.706   7.455 -0.0163  0.2936  0.5811
   38POPC  H15R 5118   0.654   4.685   7.414 -0.2670 -1.7518  0.8954
   38POPC  H15S 5119   0.555   4.788   7.529 -1.8212  2.6073 -1.7376
   38POPC  C216 5120   0.469   4.748   7.330 -0.0841 -0.2614 -0.2993
   38POPC  H16R 5121   0.377   4.795   7.372  1.0896  2.4828 -0.5832
   38POPC  H16S 5122   0.449   4.665   7.258  1.2050  1.5446 -2.8939
   38POPC  C217 5123   0.543   4.854   7.249 -0.9075  0.6809 -1.1314
   38POPC  H17R 5124   0.634   4.807   7.207 -2.4144 -3.8616  0.1535
   38POPC  H17S 5125   0.591   4.936   7.308  2.8882 -1.8907 -0.2789
   38POPC  C218 5126   0.462   4.918   7.143 -0.4472 -0.3087  0.1536
   38POPC  H18R 5127   0.388   4.982   7.197  0.1326 -0.6292  1.3737
   38POPC  H18S 5128   0.419   4.836   7.082 -1.5050  1.1011 -1.0754
   38POPC  H18T 5129   0.526   4.992   7.092  0.1551 -0.1969  1.0430
   38POPC   C33 5130  -0.007   3.757   6.862  0.7463  0.4427 -0.1016
   38POPC   H3X 5131   0.024   3.660   6.818 -3.7670 -1.2637 -0.0741
   38POPC   H3Y 5132  -0.110   3.771   6.823  1.1066 -0.5137 -1.4565
   38POPC   C34 5133  -0.035   3.719   7.009  0.1832  0.9433 -0.6382
   38POPC   H4X 5134   0.063   3.707   7.062  0.1906  0.7173 -0.7028
   38POPC   H4Y 5135  -0.094   3.626   7.003  0.5746  0.7424 -1.6128
   38POPC   C35 5136  -0.130   3.823   7.074 -0.0148 -0.1244  0.0357
   38POPC   H5X 5137  -0.230   3.821   7.025 -0.5442  0.9175  1.0109
   38POPC   H5Y 5138  -0.075   3.919   7.056  2.1821 -1.7309 -2.6068
   38POPC   C36 5139  -0.167   3.805   7.217  0.5807  0.1213 -0.0034
   38POPC   H6X 5140  -0.227   3.714   7.241  0.6090  0.6795  2.4326
   38POPC   H6Y 5141  -0.241   3.883   7.243  0.7818  0.7954 -1.3769
   38POPC   C37 5142  -0.051   3.811   7.320 -0.5133  0.4071 -0.3860
   38POPC   H7X 5143   0.027   3.885   7.293  1.5894 -1.5538  0.0064
   38POPC   H7Y 5144  -0.003   3.712   7.312 -0.8907  0.3777 -2.9077
   38POPC   C38 5145  -0.093   3.835   7.466  0.1126 -0.2886 -0.0877
   38POPC   H8X 5146  -0.175   3.764   7.486 -0.1571  0.4421  1.5251
   38POPC   H8Y 5147  -0.145   3.931   7.489 -1.3227 -1.2605  0.8408
   38POPC   C39 5148   0.019   3.800   7.561 -0.1457 -0.2336  0.0160
   38POPC   H9X 5149   0.047   3.693   7.559  0.7763 -0.0124  0.3673
   38POPC   H9Y 5150  -0.025   3.809   7.662  0.6066  3.0551  0.1870
   38POPC  C310 5151   0.146   3.893   7.553 -0.2523 -0.2200  0.4694
   38POPC  H10X 5152   0.100   3.992   7.536 -0.6250 -0.3168  0.9174
   38POPC  H10Y 5153   0.208   3.856   7.468 -1.5286  0.5544 -0.8472
   38POPC  C311 5154   0.232   3.909   7.681 -0.0752 -0.1602 -0.5424
   38POPC  H11X 5155   0.329   3.960   7.666 -0.3061 -0.2302 -2.6994
   38POPC  H11Y 5156   0.270   3.807   7.703 -1.7571 -1.3011 -2.5023
   38POPC  C312 5157   0.164   3.953   7.798  0.0345 -0.2537  0.1374
   38POPC  H12X 5158   0.082   3.886   7.831  1.3190 -0.7970  2.3970
   38POPC  H12Y 5159   0.118   4.055   7.797 -2.8156 -1.4104  1.7852
   38POPC  C313 5160   0.257   3.958   7.920  0.1459 -1.0279 -0.1969
   38POPC  H13X 5161   0.337   4.032   7.900 -2.4613  1.9973 -0.2433
   38POPC  H13Y 5162   0.308   3.861   7.933  2.2619  0.3492  2.7546
   38POPC  C314 5163   0.176   4.004   8.041  0.8352  0.7482 -0.2791
   38POPC  H14X 5164   0.094   3.932   8.061  0.2277  1.7458  0.9915
   38POPC  H14Y 5165   0.124   4.100   8.018 -1.7903 -1.0657 -2.6616
   38POPC  C315 5166   0.243   4.005   8.170 -0.8991 -0.3692  0.3415
   38POPC  H15X 5167   0.179   4.047   8.251 -0.3110 -0.6462  0.9557
   38POPC  H15Y 5168   0.331   4.073   8.172  0.6332 -2.2739  1.5622
   38POPC  C316 5169   0.291   3.869   8.219  0.2104 -0.0313 -0.1710
   38POPC  H16X 5170   0.390   3.833   8.184  0.1891 -1.0367  0.7394
   38POPC  H16Y 5171   0.222   3.786   8.192 -0.3552  0.0998  0.8235
   38POPC  H16Z 5172   0.296   3.872   8.330 -3.3726  0.9588  0.0790
   39POPC     N 5173   4.305   0.650   6.178 -0.0065  0.3959 -0.2473
   39POPC   C12 5174   4.337   0.530   6.269  0.2917 -0.2313 -0.3222
   39POPC  H12A 5175   4.377   0.446   6.214  2.1233 -0.9070  1.9018
   39POPC  H12B 5176   4.249   0.482   6.307  1.0961 -0.2222  1.6556
   39POPC   C13 5177   4.433   0.681   6.111 -0.5915  0.4042 -0.0991
   39POPC  H13A 5178   4.515   0.703   6.177 -0.7294  1.9017 -0.3883
   39POPC  H13B 5179   4.462   0.596   6.050  0.5149  0.8182 -0.1625
   39POPC  H13C 5180   4.418   0.758   6.038 -1.8189 -0.9998 -1.4021
   39POPC   C14 5181   4.204   0.597   6.084  0.1256 -0.3445  0.3496
   39POPC  H14A 5182   4.198   0.658   5.995 -1.5267 -2.1834 -0.8912
   39POPC  H14B 5183   4.244   0.504   6.044 -1.0799 -0.6259 -0.2440
   39POPC  H14C 5184   4.104   0.584   6.121 -0.1882  0.5669 -0.1581
   39POPC   C15 5185   4.259   0.769   6.252 -0.4084  0.1952 -0.7441
   39POPC  H15A 5186   4.168   0.743   6.304  1.2290  0.5457  2.5452
   39POPC  H15B 5187   4.240   0.851   6.183 -0.2786  0.1884 -0.7873
   39POPC  H15C 5188   4.326   0.805   6.327 -0.7437  3.1740 -1.7420
   39POPC   C11 5189   4.444   0.547   6.384  0.0126  0.4075  0.0648
   39POPC  H11A 5190   4.439   0.464   6.458  0.0682  0.7531  0.4601
   39POPC  H11B 5191   4.403   0.625   6.452  0.6183  0.9955 -0.2370
   39POPC     P 5192   4.691   0.475   6.339 -0.1159 -0.7022  0.4867
   39POPC   O13 5193   4.792   0.541   6.259  0.4222  0.1853 -0.1180
   39POPC   O14 5194   4.630   0.352   6.285  0.3462 -0.0676 -0.8902
   39POPC   O12 5195   4.577   0.582   6.350 -0.8493  0.0455  0.0193
   39POPC   O11 5196   4.741   0.453   6.492  0.1194 -0.0921 -0.3105
   39POPC    C1 5197   4.782   0.571   6.560 -0.2983 -0.4808 -0.4277
   39POPC    HA 5198   4.746   0.576   6.665  0.5052  1.6511 -0.1902
   39POPC    HB 5199   4.742   0.665   6.516  1.1807  0.0431 -0.7062
   39POPC    C2 5200   4.936   0.586   6.572  0.9670 -0.1247  0.4157
   39POPC    HS 5201   4.977   0.569   6.470 -0.3470 -0.1447 -0.1178
   39POPC   O21 5202   4.981   0.486   6.668 -0.4518 -0.3275  0.3918
   39POPC   C21 5203   5.077   0.400   6.620  0.0139  1.1134  0.6137
   39POPC   O22 5204   5.123   0.404   6.508  0.0040 -0.9967  0.3926
   39POPC   C22 5205   5.132   0.310   6.724  0.2331 -0.3490  0.8231
   39POPC   H2R 5206   5.166   0.230   6.655 -0.4725  1.9102 -2.3233
   39POPC   H2S 5207   5.043   0.274   6.781 -0.8794 -1.1251 -1.3094
   39POPC    C3 5208   4.988   0.729   6.617  0.0410  0.0862 -0.5674
   39POPC    HX 5209   4.929   0.800   6.555 -2.7390 -1.3858  0.1971
   39POPC    HY 5210   5.092   0.731   6.578 -0.2069  0.3521 -1.2388
   39POPC   O31 5211   4.972   0.753   6.759  0.4444 -0.2393  0.3287
   39POPC   C31 5212   5.084   0.767   6.824 -0.4787 -0.2213 -0.3967
   39POPC   O32 5213   5.196   0.769   6.772  0.9523  0.4787 -0.2789
   39POPC   C32 5214   5.059   0.796   6.975  0.0189 -0.7878  0.9472
   39POPC   H2X 5215   4.964   0.852   6.988  0.3824 -0.3200  1.6479
   39POPC   H2Y 5216   5.044   0.698   7.026 -2.3348 -0.4980  0.9462
   39POPC   C23 5217   5.252   0.363   6.806  0.9484 -0.2843 -0.2525
   39POPC   H3R 5218   5.297   0.447   6.749 -0.3132  0.4008 -0.2872
   39POPC   H3S 5219   5.326   0.281   6.812  0.2798 -0.9807 -1.1400
   39POPC   C24 5220   5.214   0.429   6.941  0.0618  0.2499  0.1815
   39POPC   H4R 5221   5.178   0.351   7.011  1.8619 -0.5100  0.3146
   39POPC   H4S 5222   5.133   0.503   6.927 -1.7877 -1.7471 -0.1079
   39POPC   C25 5223   5.332   0.476   7.026  0.4750 -0.7535  0.9840
   39POPC   H5R 5224   5.357   0.577   6.987  0.6384 -1.2604 -0.2640
   39POPC   H5S 5225   5.411   0.400   7.009  0.1481 -0.8596 -0.1585
   39POPC   C26 5226   5.290   0.488   7.171  0.5996 -0.2157 -0.2522
   39POPC   H6R 5227   5.276   0.383   7.204 -1.5659 -0.2438 -1.1359
   39POPC   H6S 5228   5.194   0.543   7.180 -1.7707 -4.3400  3.4373
   39POPC   C27 5229   5.384   0.558   7.268 -0.3306 -0.3714  0.7653
   39POPC   H7R 5230   5.380   0.669   7.262  0.3265 -0.4048 -0.7564
   39POPC   H7S 5231   5.487   0.525   7.242  0.0387  0.6724  0.8325
   39POPC   C28 5232   5.355   0.510   7.408  0.4833  0.2822 -0.1546
   39POPC   H8R 5233   5.425   0.557   7.481  0.8063  0.0258 -0.2938
   39POPC   H8S 5234   5.398   0.408   7.396 -2.7074 -0.9647 -2.1763
   39POPC   C29 5235   5.213   0.501   7.453 -0.0556 -0.3997 -0.2395
   39POPC   H91 5236   5.148   0.560   7.387  0.3333 -0.7847 -0.9895
   39POPC  C210 5237   5.170   0.435   7.558  0.5766  0.8194  0.2484
   39POPC  H101 5238   5.062   0.440   7.579  0.6612  0.6547  0.7305
   39POPC  C211 5239   5.241   0.339   7.650 -0.6436 -0.2492 -0.1489
   39POPC  H11R 5240   5.337   0.305   7.607 -0.4165  0.5333 -0.2841
   39POPC  H11S 5241   5.176   0.253   7.677 -1.7553  0.3627 -0.8323
   39POPC  C212 5242   5.278   0.418   7.779 -0.0636 -0.3909  0.0686
   39POPC  H12R 5243   5.336   0.508   7.750 -0.3594 -0.3201 -0.2963
   39POPC  H12S 5244   5.351   0.369   7.847  0.7762  1.6578  0.7248
   39POPC  C213 5245   5.157   0.466   7.862 -0.6393 -0.0964 -0.0345
   39POPC  H13R 5246   5.114   0.391   7.931 -1.4456  0.2810 -0.1083
   39POPC  H13S 5247   5.070   0.486   7.796 -1.4286  0.5731  1.1672
   39POPC  C214 5248   5.182   0.602   7.940 -0.6562 -0.2873  0.0743
   39POPC  H14R 5249   5.090   0.613   8.001 -1.8028  2.7010 -1.9584
   39POPC  H14S 5250   5.195   0.689   7.873 -1.4644 -0.5813 -0.4846
   39POPC  C215 5251   5.302   0.597   8.037 -0.2034 -0.1579  0.5690
   39POPC  H15R 5252   5.307   0.693   8.093 -0.8487  0.5390 -0.5186
   39POPC  H15S 5253   5.395   0.587   7.978  0.3701 -0.4396  1.4944
   39POPC  C216 5254   5.294   0.485   8.134 -1.1585 -0.0228  0.3093
   39POPC  H16R 5255   5.290   0.386   8.084  1.3043 -0.7394  1.3605
   39POPC  H16S 5256   5.209   0.507   8.202 -1.5788  2.3751 -0.8776
   39POPC  C217 5257   5.427   0.477   8.221 -0.1336  0.0149 -0.0787
   39POPC  H17R 5258   5.451   0.583   8.246  0.7480 -0.5038  1.4617
   39POPC  H17S 5259   5.522   0.445   8.174  1.9192  2.2272  2.2097
   39POPC  C218 5260   5.404   0.402   8.355 -0.6286 -0.1298  0.0332
   39POPC  H18R 5261   5.474   0.439   8.433  0.4069 -0.8162 -0.5378
   39POPC  H18S 5262   5.428   0.297   8.329  0.0953  0.2928 -1.0752
   39POPC  H18T 5263   5.297   0.412   8.382 -1.3600  0.6474 -2.8589
   39POPC   C33 5264   5.170   0.882   7.030  0.0218  0.3381  0.1628
   39POPC   H3X 5265   5.204   0.957   6.956 -0.0243 -1.3331 -1.6397
   39POPC   H3Y 5266   5.261   0.820   7.044 -0.2879 -0.6586 -1.8249
   39POPC   C34 5267   5.133   0.957   7.159  0.0267  0.2050 -0.3188
   39POPC   H4X 5268   5.027   0.989   7.155 -0.4444 -1.3887 -2.4155
   39POPC   H4Y 5269   5.188   1.054   7.166  1.2398 -0.5670  1.7925
   39POPC   C35 5270   5.164   0.873   7.284  0.5268 -0.3355 -1.2985
   39POPC   H5X 5271   5.273   0.849   7.281  1.0237  1.7935 -2.2522
   39POPC   H5Y 5272   5.092   0.789   7.276 -0.6832  0.7101 -1.7452
   39POPC   C36 5273   5.136   0.959   7.414 -0.2261 -0.1705 -0.1938
   39POPC   H6X 5274   5.032   0.998   7.418 -0.4922 -0.9014  0.0120
   39POPC   H6Y 5275   5.208   1.043   7.410  0.2906 -0.6462 -2.1870
   39POPC   C37 5276   5.170   0.892   7.544 -0.3229 -0.2118 -0.0883
   39POPC   H7X 5277   5.121   0.792   7.544 -0.2489 -0.2676 -1.6190
   39POPC   H7Y 5278   5.124   0.944   7.631  0.6598  0.6780 -0.0731
   39POPC   C38 5279   5.325   0.871   7.560  0.0914 -0.5421 -0.3158
   39POPC   H8X 5280   5.381   0.967   7.566 -0.7026 -0.0726 -0.1630
   39POPC   H8Y 5281   5.360   0.809   7.475  0.5813 -1.5045  0.5579
   39POPC   C39 5282   5.353   0.801   7.698 -0.3589 -0.3905 -0.6017
   39POPC   H9X 5283   5.282   0.718   7.716 -0.1066  0.1017  3.9921
   39POPC   H9Y 5284   5.332   0.865   7.786  1.9155 -1.5065  0.8662
   39POPC  C310 5285   5.498   0.748   7.717  0.1467  0.2454  0.1636
   39POPC  H10X 5286   5.513   0.682   7.628  1.5446  0.8412 -0.0722
   39POPC  H10Y 5287   5.493   0.671   7.797 -1.5975 -0.2271 -0.3706
   39POPC  C311 5288   5.607   0.854   7.732 -0.2405  0.4577  0.1841
   39POPC  H11X 5289   5.590   0.920   7.644 -0.0848 -0.0227 -0.2148
   39POPC  H11Y 5290   5.702   0.797   7.718 -1.0509 -0.2662 -3.2588
   39POPC  C312 5291   5.614   0.936   7.863  0.1719  0.2800 -0.1193
   39POPC  H12X 5292   5.512   0.969   7.892 -0.1685  0.3278 -1.3187
   39POPC  H12Y 5293   5.673   1.030   7.859 -2.5686  2.1902  0.9602
   39POPC  C313 5294   5.670   0.845   7.975  0.2380 -0.1548 -0.7048
   39POPC  H13X 5295   5.768   0.812   7.933  0.1974 -1.7063  0.3141
   39POPC  H13Y 5296   5.613   0.750   7.976  0.2633 -0.1657  0.4408
   39POPC  C314 5297   5.680   0.904   8.112 -0.3263 -0.5091  0.5180
   39POPC  H14X 5298   5.580   0.930   8.153 -1.3612 -0.6095 -1.8130
   39POPC  H14Y 5299   5.749   0.992   8.115 -1.0971  0.0828  1.5231
   39POPC  C315 5300   5.750   0.811   8.208 -0.5986  0.1623 -0.5127
   39POPC  H15X 5301   5.692   0.716   8.216 -0.5412  0.1458 -0.2620
   39POPC  H15Y 5302   5.741   0.851   8.312 -0.1111 -0.0033 -0.4020
   39POPC  C316 5303   5.894   0.766   8.177  0.2749  0.1119 -0.0752
   39POPC  H16X 5304   5.930   0.684   8.242 -0.5532 -1.4862 -1.5375
   39POPC  H16Y 5305   5.970   0.847   8.186 -1.6344  2.2936 -2.2255
   39POPC  H16Z 5306   5.901   0.726   8.073  2.3022  0.8290 -0.2582
   40POPC     N 5307   2.493   3.444   6.106 -0.5938 -0.6558 -0.2659
   40POPC   C12 5308   2.480   3.315   6.192 -0.0865  0.2994  0.4676
   40POPC  H12A 5309   2.377   3.298   6.220 -0.1320 -1.2504 -0.5144
   40POPC  H12B 5310   2.550   3.328   6.274  0.7437 -0.2614 -0.1390
   40POPC   C13 5311   2.434   3.419   5.971 -0.6175 -0.3074 -0.3154
   40POPC  H13A 5312   2.493   3.346   5.917  0.2408 -0.3400  0.6225
   40POPC  H13B 5313   2.341   3.371   5.995  0.1330 -0.6584  2.1740
   40POPC  H13C 5314   2.426   3.507   5.909 -0.4511 -2.4158 -3.5542
   40POPC   C14 5315   2.412   3.548   6.180 -0.5370  0.2112 -0.1300
   40POPC  H14A 5316   2.408   3.646   6.135  3.1159  0.3004 -0.5795
   40POPC  H14B 5317   2.310   3.511   6.186 -0.5525  0.4643  1.7233
   40POPC  H14C 5318   2.439   3.547   6.285  3.5967  1.3151 -1.0102
   40POPC   C15 5319   2.636   3.480   6.110  0.1155 -0.3424  0.2812
   40POPC  H15A 5320   2.693   3.389   6.094 -0.2767 -0.3957 -0.9229
   40POPC  H15B 5321   2.664   3.524   6.204 -2.4252  4.1149 -0.7955
   40POPC  H15C 5322   2.666   3.562   6.047 -0.3544 -0.7846 -0.5403
   40POPC   C11 5323   2.539   3.187   6.118 -0.3529  0.8591 -0.8343
   40POPC  H11A 5324   2.486   3.171   6.021 -0.1662  2.7093 -1.2833
   40POPC  H11B 5325   2.500   3.097   6.169  0.6258  0.6630 -0.4106
   40POPC     P 5326   2.774   3.135   6.219  0.1376  0.4797 -0.0055
   40POPC   O13 5327   2.918   3.176   6.206  0.4793 -0.5701 -0.6755
   40POPC   O14 5328   2.748   2.996   6.232  0.6737  0.5287  0.4507
   40POPC   O12 5329   2.680   3.191   6.098  0.2476 -0.1286  0.3180
   40POPC   O11 5330   2.707   3.206   6.347  0.1435 -0.0082 -0.1873
   40POPC    C1 5331   2.782   3.262   6.449 -0.4349 -0.2934 -0.4000
   40POPC    HA 5332   2.728   3.345   6.500  1.5440  0.2572  0.9327
   40POPC    HB 5333   2.875   3.315   6.420 -1.3625  2.0911  0.7191
   40POPC    C2 5334   2.816   3.149   6.557  0.6681  0.1618 -0.0218
   40POPC    HS 5335   2.876   3.068   6.512 -2.3823 -1.1241 -2.1550
   40POPC   O21 5336   2.693   3.102   6.613  0.4926 -0.0203 -0.1436
   40POPC   C21 5337   2.673   2.970   6.617  0.4038  0.4122  0.1377
   40POPC   O22 5338   2.738   2.881   6.565 -0.3675 -0.0127  1.3368
   40POPC   C22 5339   2.550   2.943   6.705 -0.0999 -0.1890 -0.1418
   40POPC   H2R 5340   2.553   2.834   6.727  4.0579 -0.3870 -0.9514
   40POPC   H2S 5341   2.466   2.954   6.633  1.0585  2.8727 -1.1472
   40POPC    C3 5342   2.902   3.212   6.676 -0.4009  0.0480 -0.3788
   40POPC    HX 5343   2.831   3.280   6.727 -1.4961 -0.2359 -1.4825
   40POPC    HY 5344   2.987   3.271   6.637 -0.5962  0.2092 -0.5623
   40POPC   O31 5345   2.960   3.106   6.758  0.7055 -0.0947 -0.5747
   40POPC   C31 5346   3.084   3.124   6.805 -0.2230 -0.2742 -0.1762
   40POPC   O32 5347   3.144   3.231   6.790  0.3666  0.8769  0.2227
   40POPC   C32 5348   3.141   3.008   6.884  0.1351 -0.3313 -0.7934
   40POPC   H2X 5349   3.250   3.009   6.863  0.3439  0.0943  0.2505
   40POPC   H2Y 5350   3.093   2.919   6.838  2.9253 -1.4581 -1.7490
   40POPC   C23 5351   2.527   3.036   6.827  0.5449 -0.3961  0.0545
   40POPC   H3R 5352   2.423   3.023   6.864  0.0778  1.5722 -0.4119
   40POPC   H3S 5353   2.526   3.146   6.806  0.5157 -0.5396 -0.7354
   40POPC   C24 5354   2.624   3.014   6.952 -0.8072  0.4257 -0.7929
   40POPC   H4R 5355   2.726   3.008   6.910 -0.7509 -1.3258 -0.4892
   40POPC   H4S 5356   2.615   2.909   6.989  0.5898  0.5691  0.0404
   40POPC   C25 5357   2.600   3.118   7.066  0.0560 -0.4452  0.6988
   40POPC   H5R 5358   2.492   3.129   7.087  0.0584  1.1639 -0.0033
   40POPC   H5S 5359   2.632   3.219   7.033  1.6517 -0.3290  2.4060
   40POPC   C26 5360   2.665   3.086   7.197 -0.3565  0.8651 -0.8813
   40POPC   H6R 5361   2.774   3.077   7.184 -0.0699 -1.0466  1.8311
   40POPC   H6S 5362   2.626   2.985   7.223 -0.6421  1.2314  0.1804
   40POPC   C27 5363   2.636   3.191   7.308 -0.1935 -0.3180 -0.0266
   40POPC   H7R 5364   2.529   3.218   7.309  0.2743  1.7106 -0.6304
   40POPC   H7S 5365   2.705   3.274   7.281 -0.3376 -0.6182 -1.4287
   40POPC   C28 5366   2.700   3.145   7.437  0.0106  0.8264  0.1684
   40POPC   H8R 5367   2.720   3.237   7.497  0.3746  0.6760  0.2764
   40POPC   H8S 5368   2.803   3.109   7.414 -0.1602  0.2788  0.2461
   40POPC   C29 5369   2.614   3.051   7.523  0.6153 -0.0030  0.9939
   40POPC   H91 5370   2.590   2.955   7.476  0.1451  1.6705 -2.4614
   40POPC  C210 5371   2.563   3.069   7.643 -0.0368 -0.0011 -1.0743
   40POPC  H101 5372   2.519   2.989   7.704  1.3345  0.7666  1.0527
   40POPC  C211 5373   2.600   3.194   7.717  0.0353  0.1537 -0.4583
   40POPC  H11R 5374   2.531   3.271   7.676  0.3639  0.5181 -0.3310
   40POPC  H11S 5375   2.701   3.236   7.701  0.0063 -0.2457 -1.8726
   40POPC  C212 5376   2.587   3.180   7.873  0.2052 -0.3725  0.0131
   40POPC  H12R 5377   2.656   3.260   7.906  0.3579 -0.1491 -0.8326
   40POPC  H12S 5378   2.628   3.086   7.914 -1.4445 -0.8021  0.7477
   40POPC  C213 5379   2.442   3.199   7.917 -0.4861 -0.5272 -0.2421
   40POPC  H13R 5380   2.374   3.130   7.863 -0.3663 -0.5221 -0.4002
   40POPC  H13S 5381   2.399   3.295   7.883  0.4839 -0.6795 -2.0331
   40POPC  C214 5382   2.421   3.159   8.065  0.1909 -0.0104  0.5382
   40POPC  H14R 5383   2.516   3.184   8.117  0.4372 -1.4228  0.8039
   40POPC  H14S 5384   2.395   3.052   8.081  0.0485 -0.3173 -1.4833
   40POPC  C215 5385   2.310   3.238   8.141  0.1414 -0.6510  0.2284
   40POPC  H15R 5386   2.295   3.190   8.241 -0.3245  1.1121  1.0423
   40POPC  H15S 5387   2.215   3.219   8.086  0.6078  0.5944 -1.0436
   40POPC  C216 5388   2.347   3.382   8.176 -0.1048 -0.8571  0.2838
   40POPC  H16R 5389   2.386   3.433   8.085  0.0104 -0.0053  0.8016
   40POPC  H16S 5390   2.437   3.374   8.240  0.0161  0.2355  0.2779
   40POPC  C217 5391   2.242   3.466   8.251 -0.5518 -0.0611 -0.0702
   40POPC  H17R 5392   2.218   3.407   8.342  2.3241 -1.0989  0.1082
   40POPC  H17S 5393   2.148   3.463   8.191  0.4860 -0.6206 -1.7368
   40POPC  C218 5394   2.273   3.618   8.280 -0.6250  0.0286 -0.4148
   40POPC  H18R 5395   2.194   3.658   8.347 -0.2067 -2.2169  1.5348
   40POPC  H18S 5396   2.284   3.671   8.183 -0.6304 -0.4792 -0.6908
   40POPC  H18T 5397   2.371   3.614   8.333 -1.5400 -1.2384  1.2823
   40POPC   C33 5398   3.114   3.001   7.034  0.3498  0.6869  0.9245
   40POPC   H3X 5399   3.155   2.903   7.066 -2.0502  0.0702  2.3811
   40POPC   H3Y 5400   3.005   3.003   7.054 -0.3448 -0.0276 -2.2146
   40POPC   C34 5401   3.169   3.116   7.117 -0.1684 -0.8086  0.7097
   40POPC   H4X 5402   3.097   3.198   7.098  1.2126 -0.1312 -2.1190
   40POPC   H4Y 5403   3.269   3.144   7.079  0.0433 -0.1542  1.7167
   40POPC   C35 5404   3.177   3.090   7.270  0.7759 -0.1633  0.5250
   40POPC   H5X 5405   3.081   3.045   7.304 -0.4006  1.0238 -1.0092
   40POPC   H5Y 5406   3.208   3.184   7.321  0.9564 -1.5461  3.1134
   40POPC   C36 5407   3.287   2.989   7.305  0.1551  0.0562  0.1056
   40POPC   H6X 5408   3.376   3.015   7.245  0.3730  1.5603  1.0323
   40POPC   H6Y 5409   3.263   2.885   7.273  1.7538 -0.6487  1.0334
   40POPC   C37 5410   3.332   2.991   7.445  0.1781 -0.5093 -0.2933
   40POPC   H7X 5411   3.333   3.098   7.475 -0.7999 -1.1304  2.1938
   40POPC   H7Y 5412   3.440   2.965   7.454  0.1694 -0.4617 -0.0422
   40POPC   C38 5413   3.259   2.888   7.532  0.2084  1.0100  0.3899
   40POPC   H8X 5414   3.311   2.883   7.630  2.1977 -1.6610 -0.6973
   40POPC   H8Y 5415   3.276   2.787   7.489  0.4721  0.3163  2.0438
   40POPC   C39 5416   3.108   2.905   7.562  0.3385  0.9219  0.2112
   40POPC   H9X 5417   3.056   2.901   7.464 -0.6238  0.5128  0.7284
   40POPC   H9Y 5418   3.092   3.003   7.610  1.5745  1.5642 -0.6192
   40POPC  C310 5419   3.051   2.797   7.654 -0.2517 -0.6206  0.4846
   40POPC  H10X 5420   3.108   2.795   7.750  0.3699  0.0657  0.1469
   40POPC  H10Y 5421   3.070   2.699   7.606 -1.7008 -1.1967  1.0437
   40POPC  C311 5422   2.906   2.807   7.681 -0.4292 -0.2085  0.2095
   40POPC  H11X 5423   2.869   2.703   7.693 -0.6119 -0.0634  0.9767
   40POPC  H11Y 5424   2.856   2.853   7.592  0.5122  1.6610  0.5913
   40POPC  C312 5425   2.864   2.897   7.798 -0.0641  0.1686  0.0063
   40POPC  H12X 5426   2.758   2.928   7.789  0.3019  1.0551 -1.6804
   40POPC  H12Y 5427   2.933   2.983   7.791 -2.1397  1.8011 -1.6092
   40POPC  C313 5428   2.882   2.830   7.938 -0.2078 -0.5861 -0.5410
   40POPC  H13X 5429   2.991   2.818   7.950 -0.4368  0.0395  3.3023
   40POPC  H13Y 5430   2.834   2.731   7.952 -2.2399  0.3714 -0.2178
   40POPC  C314 5431   2.834   2.921   8.054  1.0974 -0.1735 -0.2495
   40POPC  H14X 5432   2.866   2.873   8.149  1.1203 -0.7431 -0.5355
   40POPC  H14Y 5433   2.723   2.930   8.048  0.7399 -2.2467  1.6313
   40POPC  C315 5434   2.907   3.056   8.059  0.1492  0.8215  0.3971
   40POPC  H15X 5435   2.918   3.108   7.962  3.2667 -0.5688 -0.0952
   40POPC  H15Y 5436   3.015   3.041   8.079  0.6692  1.3807 -1.7466
   40POPC  C316 5437   2.845   3.150   8.161  0.3002  0.2316 -0.1658
   40POPC  H16X 5438   2.877   3.114   8.261  0.1344  0.5811  0.0149
   40POPC  H16Y 5439   2.735   3.157   8.149  0.3622  1.1964 -0.2378
   40POPC  H16Z 5440   2.883   3.254   8.152  0.7555  0.1069  0.2841
   41CHL1    C3 5441   6.044   0.488  10.203  0.7296  0.0416 -0.1291
   41CHL1    H3 5442   6.014   0.595  10.205 -1.6137 -0.4971 -2.1550
   41CHL1    O3 5443   6.081   0.451  10.333 -0.0458  0.0095 -0.7710
   41CHL1   H3' 5444   6.175   0.461  10.348 -0.3551  1.1723  0.6351
   41CHL1    C4 5445   5.915   0.406  10.165 -0.1477 -0.2175  0.2974
   41CHL1   H4A 5446   5.917   0.298  10.194 -1.1784 -0.3996 -0.2635
   41CHL1   H4B 5447   5.827   0.439  10.223  1.2395  2.2329  1.1465
   41CHL1    C5 5448   5.888   0.413  10.014  0.0479 -0.2448  0.2646
   41CHL1    C6 5449   5.762   0.438   9.970 -0.5308  0.2659 -0.0391
   41CHL1    H6 5450   5.677   0.445  10.039 -0.6948  1.0538 -0.3027
   41CHL1    C7 5451   5.727   0.444   9.823  0.6499 -0.2143  0.6239
   41CHL1   H7A 5452   5.644   0.372   9.804  1.1024 -1.3018  2.5657
   41CHL1   H7B 5453   5.701   0.550   9.806 -0.1436 -0.6010 -0.7382
   41CHL1    C8 5454   5.846   0.417   9.729  0.2382 -0.1314 -0.3516
   41CHL1    H8 5455   5.848   0.305   9.729 -1.0132 -0.1698  0.0768
   41CHL1   C14 5456   5.816   0.472   9.586  0.0655  0.6887 -0.8072
   41CHL1   H14 5457   5.812   0.582   9.602  0.2354  0.5076  0.5800
   41CHL1   C15 5458   5.679   0.440   9.517 -0.4144 -0.2209  0.2427
   41CHL1  H15A 5459   5.660   0.332   9.533 -2.0071 -0.2459 -1.5087
   41CHL1  H15B 5460   5.595   0.498   9.561  1.5419  1.6523  1.7132
   41CHL1   C16 5461   5.708   0.486   9.371 -0.5763 -0.0061 -0.0781
   41CHL1  H16A 5462   5.679   0.406   9.301 -1.9208  0.4602 -0.0847
   41CHL1  H16B 5463   5.662   0.586   9.353 -0.4888  0.2011  0.7856
   41CHL1   C17 5464   5.863   0.508   9.356  0.7925 -0.3717 -0.6656
   41CHL1   H17 5465   5.883   0.616   9.374 -1.3169 -0.1458  0.6440
   41CHL1   C13 5466   5.922   0.447   9.479  0.0261  0.6546  0.4591
   41CHL1   C18 5467   5.943   0.292   9.463  0.6883  0.5777  0.0184
   41CHL1  H18A 5468   5.963   0.240   9.560 -0.5956 -1.5363 -0.7712
   41CHL1  H18B 5469   5.851   0.252   9.415  1.8160 -2.6902  0.2997
   41CHL1  H18C 5470   6.029   0.261   9.400  1.4961 -0.5031  1.5750
   41CHL1   C12 5471   6.047   0.520   9.534  0.1557  0.2004 -0.8446
   41CHL1  H12A 5472   6.139   0.516   9.472  0.9959 -1.9356  0.4036
   41CHL1  H12B 5473   6.035   0.630   9.539 -1.1879  0.0176  0.8088
   41CHL1   C11 5474   6.088   0.472   9.674  0.3434  0.5051  0.5407
   41CHL1  H11A 5475   6.119   0.366   9.662 -0.6260 -0.0338  2.3892
   41CHL1  H11B 5476   6.173   0.527   9.720  0.6912 -0.9385  1.6951
   41CHL1    C9 5477   5.972   0.475   9.780 -0.0889  0.5252 -0.5326
   41CHL1    H9 5478   5.946   0.582   9.795  1.0761  0.7064  0.2754
   41CHL1   C10 5479   6.016   0.420   9.920 -0.8399 -0.1907  0.3411
   41CHL1   C19 5480   6.067   0.271   9.902 -0.0743 -0.4463  0.9187
   41CHL1  H19A 5481   6.006   0.211   9.832  1.7966  1.6449 -2.7936
   41CHL1  H19B 5482   6.164   0.281   9.849 -0.5536 -0.4056  0.0327
   41CHL1  H19C 5483   6.078   0.226  10.003 -0.8943 -0.7144  0.8923
   41CHL1    C1 5484   6.129   0.516   9.977  0.1729  0.4118  0.2862
   41CHL1   H1A 5485   6.216   0.509   9.908 -0.8860 -0.0752 -1.0323
   41CHL1   H1B 5486   6.099   0.623   9.981 -0.5143  0.2614 -0.5746
   41CHL1    C2 5487   6.169   0.470  10.120  0.7642  0.0591  0.2379
   41CHL1   H2A 5488   6.255   0.527  10.161 -0.5811  0.5357  2.6503
   41CHL1   H2B 5489   6.202   0.364  10.124  0.7310  0.0214 -0.4517
   41CHL1   C20 5490   5.916   0.466   9.217 -0.8010 -0.4472 -0.4361
   41CHL1   H20 5491   5.899   0.356   9.209 -1.5279 -0.2844 -1.2075
   41CHL1   C21 5492   6.075   0.481   9.212  0.5914  0.5727 -0.5940
   41CHL1  H21A 5493   6.132   0.417   9.282  1.6233  3.6012  1.5487
   41CHL1  H21B 5494   6.110   0.586   9.226  2.3070  0.2319 -1.9655
   41CHL1  H21C 5495   6.116   0.444   9.115  1.2553 -1.4964  0.4316
   41CHL1   C22 5496   5.841   0.533   9.104  0.4643  0.0985 -0.1334
   41CHL1  H22A 5497   5.733   0.510   9.094  0.8241 -0.8709 -2.5316
   41CHL1  H22B 5498   5.857   0.643   9.115  0.3184  0.0379  0.7639
   41CHL1   C23 5499   5.897   0.497   8.968  0.6354  0.4906 -0.0480
   41CHL1  H23A 5500   5.990   0.558   8.961 -1.3622  4.5716  3.7291
   41CHL1  H23B 5501   5.912   0.387   8.968 -0.8021  0.1755 -2.9002
   41CHL1   C24 5502   5.795   0.526   8.854 -1.3419 -0.3380 -0.6105
   41CHL1  H24A 5503   5.698   0.474   8.870 -0.2061 -2.8501 -1.4063
   41CHL1  H24B 5504   5.774   0.635   8.857 -2.6579 -0.4960 -2.2559
   41CHL1   C25 5505   5.849   0.499   8.712  0.3592 -0.3688 -0.5428
   41CHL1   H25 5506   5.923   0.418   8.697  1.2913  0.5431 -0.9620
   41CHL1   C26 5507   5.735   0.458   8.616 -0.3150  0.1214  0.6650
   41CHL1  H26A 5508   5.656   0.535   8.624 -0.0792  0.5947 -1.1893
   41CHL1  H26B 5509   5.776   0.455   8.513  0.3349 -2.9055  0.9383
   41CHL1  H26C 5510   5.700   0.356   8.641 -1.4020 -0.2420 -2.0255
   41CHL1   C27 5511   5.924   0.629   8.663  0.7351 -0.7797  0.4762
   41CHL1  H27A 5512   6.003   0.611   8.586  1.1393 -0.3554  0.7838
   41CHL1  H27B 5513   5.848   0.703   8.632  0.2950 -2.2077 -2.2203
   41CHL1  H27C 5514   5.978   0.669   8.751 -0.9340 -0.0642  1.2004
   42CHL1    C3 5515   0.929   6.400   9.830  0.0280  0.8017 -0.2086
   42CHL1    H3 5516   0.950   6.501   9.789 -1.3521  1.0468 -0.3433
   42CHL1    O3 5517   0.954   6.394   9.970  0.1404 -0.2060  0.4627
   42CHL1   H3' 5518   1.042   6.420   9.998  0.4155 -0.4101 -0.1907
   42CHL1    C4 5519   0.788   6.341   9.801 -1.0215 -0.2260 -0.6730
   42CHL1   H4A 5520   0.786   6.243   9.854  0.9191  1.2258  2.3991
   42CHL1   H4B 5521   0.724   6.412   9.858 -0.5629 -1.4577  1.5098
   42CHL1    C5 5522   0.752   6.327   9.655  0.3570 -0.1103 -0.6382
   42CHL1    C6 5523   0.645   6.393   9.609  0.3326  0.4905  0.7945
   42CHL1    H6 5524   0.588   6.456   9.679  2.9555  1.8571  1.8443
   42CHL1    C7 5525   0.605   6.395   9.468  0.4349 -0.7189  0.2802
   42CHL1   H7A 5526   0.498   6.366   9.460 -0.3794  1.6471  1.7169
   42CHL1   H7B 5527   0.610   6.498   9.428 -1.6771 -1.4729 -2.2267
   42CHL1    C8 5528   0.689   6.288   9.382 -0.1171 -0.5380  0.2152
   42CHL1    H8 5529   0.641   6.189   9.400 -0.4550  0.0255  2.9326
   42CHL1   C14 5530   0.682   6.319   9.235 -0.2279  0.3043 -0.1922
   42CHL1   H14 5531   0.729   6.419   9.224 -0.4022  0.4837  0.5835
   42CHL1   C15 5532   0.537   6.336   9.179 -0.1607 -0.8380 -0.3660
   42CHL1  H15A 5533   0.456   6.262   9.195 -3.4128  2.3295 -0.9961
   42CHL1  H15B 5534   0.498   6.436   9.207 -0.4040 -1.2256  0.7748
   42CHL1   C16 5535   0.564   6.331   9.023 -0.7136 -0.3111  0.8896
   42CHL1  H16A 5536   0.487   6.262   8.982 -0.3066 -0.9184  1.1468
   42CHL1  H16B 5537   0.553   6.430   8.973  1.7035 -0.8163 -0.8190
   42CHL1   C17 5538   0.711   6.273   9.002 -0.5602 -0.3034  0.7057
   42CHL1   H17 5539   0.787   6.350   8.977 -0.0097 -0.8971  0.5147
   42CHL1   C13 5540   0.748   6.217   9.140 -0.4405  0.1059 -0.3717
   42CHL1   C18 5541   0.679   6.087   9.159  0.3054 -0.0809  0.0313
   42CHL1  H18A 5542   0.576   6.096   9.118  0.5358  3.6187 -0.0336
   42CHL1  H18B 5543   0.734   6.009   9.102  0.4884 -0.5303  0.8012
   42CHL1  H18C 5544   0.665   6.060   9.266 -0.6586 -1.0492 -0.3173
   42CHL1   C12 5545   0.896   6.213   9.185 -0.1319 -0.6425 -0.6068
   42CHL1  H12A 5546   0.948   6.131   9.130 -0.4137 -1.0577 -0.2531
   42CHL1  H12B 5547   0.948   6.308   9.160 -0.8219  0.5347  2.1657
   42CHL1   C11 5548   0.911   6.176   9.336  0.5729  0.2400  0.2842
   42CHL1  H11A 5549   0.881   6.070   9.351  1.6685 -0.1875 -0.4734
   42CHL1  H11B 5550   1.019   6.185   9.359  1.0410 -4.0865  0.4898
   42CHL1    C9 5551   0.836   6.275   9.422  0.6346  0.1045 -0.6177
   42CHL1    H9 5552   0.879   6.372   9.390  0.0985 -0.1910 -2.3503
   42CHL1   C10 5553   0.851   6.250   9.568 -1.0294 -0.0878  0.0859
   42CHL1   C19 5554   0.820   6.100   9.605  0.4869 -1.0187  0.4433
   42CHL1  H19A 5555   0.718   6.091   9.563 -0.7080  0.4207  2.8295
   42CHL1  H19B 5556   0.893   6.039   9.547 -2.1511 -1.2719 -2.9186
   42CHL1  H19C 5557   0.822   6.086   9.715  2.5836 -2.9367  0.2390
   42CHL1    C1 5558   1.003   6.287   9.603  0.0174  0.3932 -0.2982
   42CHL1   H1A 5559   1.071   6.210   9.564  1.6847  2.6497 -2.1297
   42CHL1   H1B 5560   1.005   6.385   9.549  0.8423  0.1312 -0.7551
   42CHL1    C2 5561   1.034   6.316   9.758 -0.2452  0.3357  0.0626
   42CHL1   H2A 5562   1.134   6.362   9.772  0.1983 -1.1160  2.1390
   42CHL1   H2B 5563   1.025   6.214   9.801 -0.6248 -1.7311 -4.3106
   42CHL1   C20 5564   0.712   6.180   8.879  0.0106  0.0820 -0.1490
   42CHL1   H20 5565   0.652   6.090   8.903 -1.7261  1.3762  0.6029
   42CHL1   C21 5566   0.855   6.131   8.850 -0.1190 -0.1634 -0.5935
   42CHL1  H21A 5567   0.887   6.067   8.935  0.4259  1.5914  0.5632
   42CHL1  H21B 5568   0.933   6.210   8.842  0.1997 -0.3133  0.8272
   42CHL1  H21C 5569   0.841   6.074   8.755 -0.0579  1.4362 -1.5954
   42CHL1   C22 5570   0.645   6.233   8.741  0.0941 -0.2275  0.1283
   42CHL1  H22A 5571   0.593   6.329   8.759 -0.5658 -0.5137 -0.2235
   42CHL1  H22B 5572   0.731   6.254   8.674  1.3065 -0.0288  1.6647
   42CHL1   C23 5573   0.546   6.130   8.673  0.2299 -0.3109 -0.1757
   42CHL1  H23A 5574   0.512   6.171   8.576  1.3709 -0.5722 -0.7030
   42CHL1  H23B 5575   0.604   6.038   8.650  3.7010  1.4989  0.6136
   42CHL1   C24 5576   0.422   6.096   8.758 -0.8435  0.4316  0.1556
   42CHL1  H24A 5577   0.450   6.049   8.854  1.9247  0.3164 -0.6099
   42CHL1  H24B 5578   0.354   6.181   8.776 -1.1821 -0.1073  1.4878
   42CHL1   C25 5579   0.327   5.994   8.689 -0.0320 -0.1437 -0.6732
   42CHL1   H25 5580   0.391   5.905   8.668 -1.6086 -1.2228 -1.0497
   42CHL1   C26 5581   0.214   5.959   8.785 -0.5116 -0.1086  0.6067
   42CHL1  H26A 5582   0.163   6.054   8.812  0.3296 -0.0289  1.9870
   42CHL1  H26B 5583   0.141   5.900   8.724 -0.3795  0.8605 -0.5152
   42CHL1  H26C 5584   0.245   5.916   8.883 -0.1946 -1.5203 -0.0771
   42CHL1   C27 5585   0.282   6.042   8.553 -0.2435  0.0419 -0.5370
   42CHL1  H27A 5586   0.373   6.045   8.489 -0.4126 -0.7407 -0.8167
   42CHL1  H27B 5587   0.213   5.964   8.514  0.5443 -0.9771  0.0672
   42CHL1  H27C 5588   0.223   6.137   8.555  0.2675  0.3529  0.4173
   43CHL1    C3 5589   1.249   1.599  10.061  0.0669  0.4988 -0.3526
   43CHL1    H3 5590   1.300   1.689  10.020  0.1612  0.6490  0.0834
   43CHL1    O3 5591   1.252   1.606  10.203  0.1281  0.6370 -0.1504
   43CHL1   H3' 5592   1.346   1.606  10.222  0.7732  2.3420 -2.8310
   43CHL1    C4 5593   1.105   1.587  10.011 -0.5449 -0.9333  0.2874
   43CHL1   H4A 5594   1.053   1.501  10.057 -0.4327 -1.3694 -0.3919
   43CHL1   H4B 5595   1.059   1.676  10.059  2.3450  1.2794 -0.7030
   43CHL1    C5 5596   1.115   1.575   9.861 -0.1394 -0.1386  0.2255
   43CHL1    C6 5597   1.052   1.665   9.786  0.1171 -0.5767 -0.5645
   43CHL1    H6 5598   0.992   1.737   9.843 -0.6637 -2.7658  1.5825
   43CHL1    C7 5599   1.040   1.660   9.636 -0.5849  0.7340 -0.7758
   43CHL1   H7A 5600   0.938   1.683   9.598  1.0084  2.7846 -4.3366
   43CHL1   H7B 5601   1.109   1.742   9.605 -1.2003  2.1107  1.2997
   43CHL1    C8 5602   1.102   1.531   9.575  0.6160  0.1399  0.1114
   43CHL1    H8 5603   1.033   1.445   9.569 -1.3551  1.7627 -2.3171
   43CHL1   C14 5604   1.150   1.568   9.440 -0.1534 -0.5489  0.0999
   43CHL1   H14 5605   1.229   1.646   9.453 -0.5455 -0.0766 -0.2971
   43CHL1   C15 5606   1.047   1.637   9.348 -0.8802 -0.6291  0.0961
   43CHL1  H15A 5607   0.956   1.575   9.364  1.0445 -3.8343 -0.4420
   43CHL1  H15B 5608   1.026   1.743   9.375  5.4076  0.8014  0.9421
   43CHL1   C16 5609   1.100   1.607   9.205 -0.2521  0.2368 -0.0588
   43CHL1  H16A 5610   1.021   1.564   9.139 -0.0846  0.6042 -0.5075
   43CHL1  H16B 5611   1.144   1.698   9.160 -0.7836  0.1860 -0.7035
   43CHL1   C17 5612   1.231   1.516   9.228  0.3160  0.1620  0.1948
   43CHL1   H17 5613   1.313   1.588   9.245 -0.5345  0.9023  1.3279
   43CHL1   C13 5614   1.208   1.446   9.363 -0.4067  0.8150  0.1018
   43CHL1   C18 5615   1.109   1.326   9.340 -0.0803 -0.2038  0.0222
   43CHL1  H18A 5616   1.056   1.289   9.429  0.0119  0.0421  0.1807
   43CHL1  H18B 5617   1.033   1.363   9.268  2.9512  3.1109 -1.7857
   43CHL1  H18C 5618   1.163   1.237   9.300 -0.2832 -0.7527  0.9463
   43CHL1   C12 5619   1.330   1.393   9.437  0.1000 -0.3646  0.7148
   43CHL1  H12A 5620   1.370   1.296   9.401 -0.0498 -0.2034  0.1016
   43CHL1  H12B 5621   1.418   1.460   9.430  2.2316 -2.9757  0.8606
   43CHL1   C11 5622   1.287   1.363   9.582  0.1430  0.3868  0.3681
   43CHL1  H11A 5623   1.225   1.272   9.599  0.9687 -0.3866 -0.6304
   43CHL1  H11B 5624   1.381   1.337   9.634  0.7482  1.9123  0.0968
   43CHL1    C9 5625   1.218   1.482   9.656 -0.1377  0.3924  0.5273
   43CHL1    H9 5626   1.296   1.560   9.645 -1.1920  1.7006  1.9620
   43CHL1   C10 5627   1.201   1.461   9.807  0.3154 -0.4444 -0.2733
   43CHL1   C19 5628   1.123   1.330   9.842 -0.5382  0.0325 -0.1373
   43CHL1  H19A 5629   1.093   1.326   9.949 -0.2603 -1.0612 -0.0878
   43CHL1  H19B 5630   1.033   1.319   9.778  1.8005 -1.0308 -3.5522
   43CHL1  H19C 5631   1.198   1.249   9.831  1.1928  1.4446  0.7986
   43CHL1    C1 5632   1.339   1.462   9.872 -0.8216  0.7487 -0.3249
   43CHL1   H1A 5633   1.406   1.378   9.845 -0.2770  0.9148  0.4755
   43CHL1   H1B 5634   1.393   1.546   9.824  0.5701 -0.3285 -0.6939
   43CHL1    C2 5635   1.329   1.478  10.024 -0.5033  0.6853  0.0027
   43CHL1   H2A 5636   1.435   1.483  10.054  0.0522 -0.2372 -1.6820
   43CHL1   H2B 5637   1.291   1.386  10.074 -1.0388  1.3899  0.9396
   43CHL1   C20 5638   1.273   1.431   9.096  0.2227 -0.6077  0.0056
   43CHL1   H20 5639   1.190   1.357   9.091  0.2125 -0.6090  0.1666
   43CHL1   C21 5640   1.406   1.361   9.115 -0.0513 -0.0615 -0.2110
   43CHL1  H21A 5641   1.433   1.325   9.013 -2.7985  0.1749 -1.1137
   43CHL1  H21B 5642   1.403   1.279   9.190  1.6096  1.7389  1.9383
   43CHL1  H21C 5643   1.480   1.440   9.139 -0.1726  0.2734 -0.9038
   43CHL1   C22 5644   1.267   1.517   8.964  0.6062 -0.0850  0.7722
   43CHL1  H22A 5645   1.178   1.584   8.962  2.1210  2.0256 -0.9070
   43CHL1  H22B 5646   1.351   1.590   8.964 -1.0091  1.8599  0.0412
   43CHL1   C23 5647   1.260   1.431   8.834 -0.0902 -0.6173  0.0462
   43CHL1  H23A 5648   1.335   1.349   8.838  0.9812  0.3826  2.1059
   43CHL1  H23B 5649   1.162   1.382   8.819  0.3947 -1.3017 -1.0767
   43CHL1   C24 5650   1.287   1.508   8.701  0.7655 -0.1443 -0.3808
   43CHL1  H24A 5651   1.210   1.581   8.669  1.0922 -0.0754 -1.0387
   43CHL1  H24B 5652   1.387   1.554   8.715 -0.8008  2.9404  1.7414
   43CHL1   C25 5653   1.308   1.409   8.583 -0.3594 -0.0879 -0.7399
   43CHL1   H25 5654   1.346   1.316   8.630  1.5124  1.4028  0.9379
   43CHL1   C26 5655   1.178   1.393   8.503  0.2406  0.0803 -0.3782
   43CHL1  H26A 5656   1.180   1.318   8.421 -1.2907 -0.2712 -0.1300
   43CHL1  H26B 5657   1.096   1.354   8.567 -0.6399  0.5662 -1.1853
   43CHL1  H26C 5658   1.146   1.490   8.460 -1.2585 -1.2503 -2.4492
   43CHL1   C27 5659   1.410   1.474   8.486  0.3246 -0.4584 -0.1250
   43CHL1  H27A 5660   1.511   1.490   8.531  0.3798  0.3340 -0.5065
   43CHL1  H27B 5661   1.422   1.403   8.402 -0.2183 -1.2773  0.4827
   43CHL1  H27C 5662   1.379   1.568   8.437 -0.5628 -1.8776 -2.4165
   44CHL1    C3 5663   0.587   0.590   9.888  0.2345 -0.2498  0.0134
   44CHL1    H3 5664   0.654   0.677   9.872 -0.4821  0.3906  0.4403
   44CHL1    O3 5665   0.545   0.591  10.025  0.1823 -0.1307 -0.0625
   44CHL1   H3' 5666   0.478   0.524  10.033 -0.0843 -0.0972 -1.6966
   44CHL1    C4 5667   0.460   0.607   9.806 -0.4013 -0.0412  0.5014
   44CHL1   H4A 5668   0.397   0.520   9.835 -3.2548  1.4645 -0.7365
   44CHL1   H4B 5669   0.411   0.700   9.842  2.0469  0.7206  2.0676
   44CHL1    C5 5670   0.490   0.599   9.656  0.1127 -0.1734 -0.2025
   44CHL1    C6 5671   0.457   0.703   9.577 -0.0212  0.3557 -0.1701
   44CHL1    H6 5672   0.417   0.793   9.626 -2.7596 -0.8105 -0.1061
   44CHL1    C7 5673   0.469   0.686   9.428  0.1662  0.1874  0.2631
   44CHL1   H7A 5674   0.374   0.728   9.386  0.6159  3.6300  2.2626
   44CHL1   H7B 5675   0.555   0.752   9.404  0.3622  0.3123  1.2799
   44CHL1    C8 5676   0.498   0.541   9.378  0.7202  0.5171  0.0455
   44CHL1    H8 5677   0.407   0.479   9.388 -1.0642  3.0380  0.3302
   44CHL1   C14 5678   0.544   0.553   9.229  0.6577  0.0656 -0.0749
   44CHL1   H14 5679   0.636   0.616   9.231  0.0255  1.2808 -3.0671
   44CHL1   C15 5680   0.449   0.612   9.124 -0.5646 -0.2836  0.1293
   44CHL1  H15A 5681   0.345   0.585   9.148 -1.5091  0.8958 -2.2575
   44CHL1  H15B 5682   0.454   0.722   9.136 -2.1236 -0.3953  2.3627
   44CHL1   C16 5683   0.503   0.544   8.994  0.1097 -0.1723  0.3930
   44CHL1  H16A 5684   0.408   0.498   8.957 -0.3135  0.0646  1.1686
   44CHL1  H16B 5685   0.540   0.611   8.913 -1.5802  0.8552  0.4204
   44CHL1   C17 5686   0.618   0.440   9.029 -0.2296 -0.3727 -0.0021
   44CHL1   H17 5687   0.717   0.491   9.024 -0.7089  0.7361  1.1821
   44CHL1   C13 5688   0.583   0.408   9.174  0.1489 -0.2803 -0.0979
   44CHL1   C18 5689   0.459   0.304   9.175  0.3900 -1.0403 -0.3868
   44CHL1  H18A 5690   0.373   0.351   9.123  0.4779 -1.0946 -0.5820
   44CHL1  H18B 5691   0.497   0.215   9.120 -1.3423 -0.3091 -2.9237
   44CHL1  H18C 5692   0.432   0.268   9.276  2.2673 -1.9649 -0.1628
   44CHL1   C12 5693   0.710   0.371   9.251  0.0355  0.5517 -0.4985
   44CHL1  H12A 5694   0.759   0.283   9.205  0.9386 -0.2691  1.8713
   44CHL1  H12B 5695   0.779   0.457   9.246 -0.8574  1.2294 -2.4976
   44CHL1   C11 5696   0.666   0.345   9.400  0.0315  0.5576  0.3718
   44CHL1  H11A 5697   0.594   0.260   9.400  1.0658 -0.3370  0.3508
   44CHL1  H11B 5698   0.755   0.317   9.460 -0.9169 -0.0355  1.5477
   44CHL1    C9 5699   0.608   0.478   9.459 -0.8943 -0.1977 -0.6071
   44CHL1    H9 5700   0.696   0.544   9.470 -1.4983  0.5349 -0.1500
   44CHL1   C10 5701   0.558   0.465   9.604 -1.1556 -0.7668 -0.5302
   44CHL1   C19 5702   0.462   0.340   9.614  0.8302 -0.4973  0.1199
   44CHL1  H19A 5703   0.502   0.248   9.567  0.1885 -0.5150 -0.3974
   44CHL1  H19B 5704   0.434   0.321   9.720 -0.5621  1.5229  0.1769
   44CHL1  H19C 5705   0.365   0.367   9.567  0.9937  1.9224  1.0179
   44CHL1    C1 5706   0.679   0.441   9.707 -0.0883  0.0338  0.0216
   44CHL1   H1A 5707   0.729   0.347   9.675 -2.3922 -0.2069 -3.3581
   44CHL1   H1B 5708   0.760   0.515   9.688  1.5114 -1.4853  0.7126
   44CHL1    C2 5709   0.643   0.452   9.856 -0.2639  0.1491  0.4600
   44CHL1   H2A 5710   0.729   0.429   9.924 -0.2323  0.3454  0.4847
   44CHL1   H2B 5711   0.574   0.368   9.879  0.1270  0.0797  1.4645
   44CHL1   C20 5712   0.615   0.327   8.918 -0.0353 -0.4331  1.1351
   44CHL1   H20 5713   0.516   0.277   8.913  0.8907 -2.3011  0.3233
   44CHL1   C21 5714   0.718   0.217   8.956 -0.3696  0.0918  0.2779
   44CHL1  H21A 5715   0.737   0.151   8.868 -0.0141  0.2851  0.2110
   44CHL1  H21B 5716   0.691   0.155   9.044 -0.1089  1.3272  1.2460
   44CHL1  H21C 5717   0.807   0.280   8.976 -0.1558 -0.2334  0.3471
   44CHL1   C22 5718   0.631   0.370   8.766  0.2087 -0.2808  0.1261
   44CHL1  H22A 5719   0.646   0.284   8.697  3.1393 -0.4960  0.9169
   44CHL1  H22B 5720   0.530   0.414   8.755 -0.7348 -1.7333  2.2396
   44CHL1   C23 5721   0.740   0.465   8.729 -0.3099  0.6530 -0.6093
   44CHL1  H23A 5722   0.725   0.561   8.784 -0.5270 -0.5318  1.5030
   44CHL1  H23B 5723   0.833   0.414   8.762 -0.8681 -1.5139 -2.1211
   44CHL1   C24 5724   0.762   0.495   8.587  0.3430  0.5318  0.4698
   44CHL1  H24A 5725   0.773   0.394   8.541 -0.0663 -0.4816  2.4815
   44CHL1  H24B 5726   0.674   0.545   8.542  0.2725  0.5413  0.6173
   44CHL1   C25 5727   0.878   0.584   8.547  0.9230 -0.1999  0.1582
   44CHL1   H25 5728   0.851   0.688   8.576 -1.9528 -0.2152 -2.0664
   44CHL1   C26 5729   1.016   0.539   8.595  0.6824  0.1042  0.4970
   44CHL1  H26A 5730   1.016   0.534   8.706  0.7650  0.8538  0.5338
   44CHL1  H26B 5731   1.045   0.435   8.569  2.0975  0.6485 -0.1894
   44CHL1  H26C 5732   1.099   0.609   8.572  1.0436 -0.5355 -0.1609
   44CHL1   C27 5733   0.882   0.597   8.391  0.0843 -0.2099 -0.7058
   44CHL1  H27A 5734   0.786   0.631   8.346 -1.2376 -2.0646  0.5950
   44CHL1  H27B 5735   0.961   0.672   8.367  0.5991 -0.1870  0.9629
   44CHL1  H27C 5736   0.905   0.497   8.349 -0.4057 -0.8527  0.5133
   45CHL1    C3 5737   3.998   6.797   9.830  0.0850  0.1259 -0.8626
   45CHL1    H3 5738   3.900   6.846   9.845  1.2347  2.3433 -0.1822
   45CHL1    O3 5739   4.037   6.737   9.956 -0.0157 -0.4682  0.0860
   45CHL1   H3' 5740   4.059   6.812  10.012 -0.6289 -1.4165  1.6738
   45CHL1    C4 5741   3.988   6.686   9.718 -0.0803 -0.6358  0.3770
   45CHL1   H4A 5742   4.084   6.633   9.706 -1.0084 -2.0240 -1.2527
   45CHL1   H4B 5743   3.915   6.609   9.751 -2.2004  0.7616 -0.7510
   45CHL1    C5 5744   3.946   6.754   9.589  0.1444  0.1238  0.0849
   45CHL1    C6 5745   3.832   6.721   9.533  0.2712  0.3528 -0.2971
   45CHL1    H6 5746   3.766   6.643   9.573  1.3615 -0.2585  0.3622
   45CHL1    C7 5747   3.779   6.792   9.416 -1.1585 -0.2514  0.2269
   45CHL1   H7A 5748   3.742   6.708   9.353 -0.9163 -0.3241  0.1790
   45CHL1   H7B 5749   3.688   6.853   9.435 -1.3145  0.2040 -1.7220
   45CHL1    C8 5750   3.875   6.882   9.332 -0.8328 -0.3815 -0.0589
   45CHL1    H8 5751   3.813   6.965   9.293 -1.4551 -0.5672  0.5183
   45CHL1   C14 5752   3.939   6.805   9.214 -0.7161 -0.1491  0.0317
   45CHL1   H14 5753   3.984   6.710   9.250  0.6106 -0.1036 -1.4241
   45CHL1   C15 5754   3.831   6.759   9.110  0.1334  0.7218 -0.3760
   45CHL1  H15A 5755   3.872   6.677   9.047  3.7737  1.4852  0.7254
   45CHL1  H15B 5756   3.736   6.720   9.151  1.4153 -0.5831  1.5397
   45CHL1   C16 5757   3.817   6.886   9.031  0.0117 -0.5646  0.4289
   45CHL1  H16A 5758   3.804   6.856   8.924  0.8021  1.1915 -0.2091
   45CHL1  H16B 5759   3.726   6.936   9.071 -1.3922 -1.6580 -1.2270
   45CHL1   C17 5760   3.942   6.975   9.051 -0.3232 -0.0285 -0.6396
   45CHL1   H17 5761   3.907   7.059   9.115 -2.1283  0.7881 -2.5698
   45CHL1   C13 5762   4.040   6.894   9.139  0.1120 -0.1723  0.1395
   45CHL1   C18 5763   4.131   6.803   9.044 -0.5644  0.0703 -0.2853
   45CHL1  H18A 5764   4.202   6.863   8.984  0.3241 -0.4600  0.2051
   45CHL1  H18B 5765   4.186   6.728   9.106 -0.5743  0.8282  0.6533
   45CHL1  H18C 5766   4.069   6.737   8.980 -0.0393  0.7845 -1.5481
   45CHL1   C12 5767   4.128   6.983   9.226 -0.2765  0.5088 -0.4002
   45CHL1  H12A 5768   4.213   6.918   9.256 -1.3593  0.3060  2.5623
   45CHL1  H12B 5769   4.166   7.064   9.160  2.9163  0.0379  0.6861
   45CHL1   C11 5770   4.065   7.055   9.356 -0.0981  0.5757  0.2707
   45CHL1  H11A 5771   4.141   7.108   9.416  2.9789 -1.0420 -1.9440
   45CHL1  H11B 5772   4.003   7.141   9.321 -0.1359 -0.1330 -1.5110
   45CHL1    C9 5773   3.972   6.954   9.430  0.4046  0.7847 -0.4414
   45CHL1    H9 5774   3.907   7.023   9.488  0.1564 -0.5481  0.9265
   45CHL1   C10 5775   4.035   6.867   9.544 -0.5288 -0.3039 -0.3450
   45CHL1   C19 5776   4.173   6.801   9.504  0.1567 -0.1834 -0.1016
   45CHL1  H19A 5777   4.158   6.733   9.417  2.1073 -1.3340  0.3968
   45CHL1  H19B 5778   4.239   6.883   9.469  0.6440 -0.9017 -0.9230
   45CHL1  H19C 5779   4.217   6.743   9.588 -1.9101  0.0976  1.2472
   45CHL1    C1 5780   4.063   6.966   9.654  0.4475  0.1155  1.1174
   45CHL1   H1A 5781   4.132   7.049   9.628 -0.7897  0.5893 -0.8343
   45CHL1   H1B 5782   3.970   7.020   9.682 -0.2245  0.1872 -1.0656
   45CHL1    C2 5783   4.098   6.902   9.785  0.0999 -0.6566 -0.1661
   45CHL1   H2A 5784   4.124   6.971   9.868  2.2122 -1.2394 -0.2779
   45CHL1   H2B 5785   4.197   6.854   9.768  0.2141 -0.6388  0.4084
   45CHL1   C20 5786   4.000   7.048   8.924 -0.6200 -0.4328  0.1269
   45CHL1   H20 5787   4.108   7.069   8.943 -0.3507 -1.2745 -0.4151
   45CHL1   C21 5788   3.939   7.186   8.925 -0.4877  0.1257 -0.1105
   45CHL1  H21A 5789   4.000   7.257   8.985  0.1601  0.4965 -1.1766
   45CHL1  H21B 5790   3.832   7.188   8.955 -1.1784 -0.5145 -2.3589
   45CHL1  H21C 5791   3.929   7.222   8.820 -0.2875 -1.7247 -0.7964
   45CHL1   C22 5792   3.991   6.971   8.790 -0.0272  0.6788  0.2772
   45CHL1  H22A 5793   4.016   6.865   8.808 -3.5068 -0.2685  0.2419
   45CHL1  H22B 5794   3.886   6.988   8.758 -0.1921  0.5739  0.7598
   45CHL1   C23 5795   4.090   7.035   8.698  0.1616  0.3535 -0.0256
   45CHL1  H23A 5796   4.072   7.143   8.681 -0.4207 -0.0532 -2.2328
   45CHL1  H23B 5797   4.190   7.007   8.736  0.2986  1.3985  0.4374
   45CHL1   C24 5798   4.079   6.980   8.547  1.4057  0.6885  0.0804
   45CHL1  H24A 5799   4.093   6.870   8.550 -0.9560  0.1644 -2.8683
   45CHL1  H24B 5800   3.976   6.992   8.507  0.3218 -1.7543  1.9241
   45CHL1   C25 5801   4.181   7.034   8.452  0.5756 -0.2585 -0.3774
   45CHL1   H25 5802   4.274   7.058   8.507  0.1472  1.0606 -0.1870
   45CHL1   C26 5803   4.220   6.922   8.350  0.3784  0.3610  0.2363
   45CHL1  H26A 5804   4.272   6.834   8.395  0.4427  0.0589 -0.4138
   45CHL1  H26B 5805   4.134   6.892   8.285  1.4412 -1.7727 -0.2875
   45CHL1  H26C 5806   4.291   6.950   8.270 -0.5332 -1.3125 -1.2558
   45CHL1   C27 5807   4.127   7.159   8.381  0.1176 -0.4927 -0.1802
   45CHL1  H27A 5808   4.035   7.143   8.321 -0.3445  2.3771 -0.3482
   45CHL1  H27B 5809   4.118   7.245   8.450  1.9068 -1.3167  1.1917
   45CHL1  H27C 5810   4.219   7.182   8.322  0.4672 -1.4501 -0.0394
   46CHL1    C3 5811   6.171   3.631  10.075  0.3540  0.3740 -0.8413
   46CHL1    H3 5812   6.125   3.532  10.055 -0.0311  0.6244 -1.2047
   46CHL1    O3 5813   6.217   3.641  10.210 -0.1930  0.2906  0.0663
   46CHL1   H3' 5814   6.133   3.639  10.257 -1.9010 -3.4165 -2.6232
   46CHL1    C4 5815   6.281   3.664   9.977  0.3829  0.1894  0.3391
   46CHL1   H4A 5816   6.310   3.768  10.005 -0.5257  0.5364  0.0313
   46CHL1   H4B 5817   6.369   3.596   9.982  1.3762  1.2076 -1.7201
   46CHL1    C5 5818   6.227   3.676   9.833  0.5041 -0.5561 -0.2199
   46CHL1    C6 5819   6.295   3.622   9.733  0.0217  0.0604  0.1286
   46CHL1    H6 5820   6.385   3.561   9.749 -0.1827 -0.2035  0.2832
   46CHL1    C7 5821   6.251   3.617   9.585 -0.6774  0.4311 -0.0210
   46CHL1   H7A 5822   6.342   3.649   9.531  0.3440  0.1825  1.4815
   46CHL1   H7B 5823   6.224   3.515   9.550  0.7304 -0.2498  0.7789
   46CHL1    C8 5824   6.149   3.727   9.558 -0.4393 -0.0744  0.1259
   46CHL1    H8 5825   6.206   3.822   9.552 -0.5597  0.0745  1.0923
   46CHL1   C14 5826   6.088   3.699   9.427 -0.0515  0.2052 -0.0004
   46CHL1   H14 5827   6.045   3.597   9.438  1.5471 -0.4347  0.5980
   46CHL1   C15 5828   6.175   3.678   9.301 -0.4038  0.1110 -0.6804
   46CHL1  H15A 5829   6.268   3.738   9.309 -0.4123  0.0370 -0.0167
   46CHL1  H15B 5830   6.205   3.572   9.289  2.8909  0.8911 -0.4583
   46CHL1   C16 5831   6.091   3.722   9.181  0.4273  0.1270 -0.1644
   46CHL1  H16A 5832   6.132   3.813   9.132  0.3292 -0.2336 -0.9299
   46CHL1  H16B 5833   6.095   3.648   9.099  2.8854  1.2448 -1.1633
   46CHL1   C17 5834   5.949   3.742   9.239 -0.3427 -0.5252 -0.2443
   46CHL1   H17 5835   5.918   3.636   9.246  0.2666 -0.5739  3.7134
   46CHL1   C13 5836   5.974   3.796   9.376 -0.3313  0.7121 -0.2593
   46CHL1   C18 5837   6.022   3.934   9.373 -0.3024  0.2811 -0.1665
   46CHL1  H18A 5838   5.938   4.005   9.356  0.2895  1.2475  0.8481
   46CHL1  H18B 5839   6.051   3.957   9.478 -2.2851  0.9387  0.2826
   46CHL1  H18C 5840   6.109   3.945   9.305  0.6339 -0.7977  0.8151
   46CHL1   C12 5841   5.864   3.777   9.489 -0.3017 -0.5896  0.9942
   46CHL1  H12A 5842   5.779   3.845   9.468  0.2142 -0.2373 -0.0051
   46CHL1  H12B 5843   5.838   3.669   9.489  0.7720 -0.8996  3.0610
   46CHL1   C11 5844   5.917   3.815   9.625 -0.2658 -1.0161  1.4224
   46CHL1  H11A 5845   5.930   3.925   9.636  0.4098 -0.9208 -0.0716
   46CHL1  H11B 5846   5.835   3.793   9.696 -0.2483  0.6091  1.9852
   46CHL1    C9 5847   6.039   3.732   9.666  0.0040 -0.7607 -1.0103
   46CHL1    H9 5848   5.997   3.630   9.677  2.1050 -1.5579  0.0724
   46CHL1   C10 5849   6.101   3.760   9.808  0.0226 -0.4035 -0.6609
   46CHL1   C19 5850   6.151   3.901   9.812  0.7654 -0.5924  0.7958
   46CHL1  H19A 5851   6.064   3.970   9.798  0.9808 -0.3528  0.6235
   46CHL1  H19B 5852   6.186   3.927   9.914  1.9781 -0.2896  0.3190
   46CHL1  H19C 5853   6.231   3.915   9.737  1.1606 -2.2921  0.8837
   46CHL1    C1 5854   5.998   3.744   9.919  0.0938  0.2283  0.4224
   46CHL1   H1A 5855   5.923   3.825   9.911  2.5544  2.5315 -0.9844
   46CHL1   H1B 5856   5.953   3.643   9.903  0.6754 -0.4654  2.7419
   46CHL1    C2 5857   6.056   3.736  10.064  0.1194  0.3494  0.2659
   46CHL1   H2A 5858   5.981   3.696  10.136  0.1259  0.8817  0.5673
   46CHL1   H2B 5859   6.103   3.832  10.093  3.1900 -0.6243 -1.0423
   46CHL1   C20 5860   5.852   3.818   9.148  0.3118 -0.0129 -0.3152
   46CHL1   H20 5861   5.876   3.926   9.147 -2.1702  0.6690  1.9520
   46CHL1   C21 5862   5.710   3.801   9.201 -0.4376 -0.2583  0.5840
   46CHL1  H21A 5863   5.685   3.850   9.298 -0.4381  0.0095  0.4479
   46CHL1  H21B 5864   5.688   3.695   9.228 -2.8195  0.4104  1.4874
   46CHL1  H21C 5865   5.632   3.839   9.133 -0.2873 -0.6939  0.1596
   46CHL1   C22 5866   5.844   3.757   9.007  0.4650 -0.3064  0.0671
   46CHL1  H22A 5867   5.765   3.808   8.947  0.4980  1.3751  1.3992
   46CHL1  H22B 5868   5.941   3.789   8.965  1.3611 -2.4370  0.3904
   46CHL1   C23 5869   5.842   3.606   8.983 -0.2423 -0.0278 -0.7685
   46CHL1  H23A 5870   5.901   3.546   9.055 -0.2443 -0.6121 -1.2395
   46CHL1  H23B 5871   5.742   3.558   8.979  0.1836 -1.2220  1.5177
   46CHL1   C24 5872   5.898   3.572   8.835  0.1636  0.3415 -0.2406
   46CHL1  H24A 5873   5.846   3.635   8.760 -1.3537  1.4739  1.6584
   46CHL1  H24B 5874   6.005   3.598   8.844  0.1880 -0.0197  0.6892
   46CHL1   C25 5875   5.881   3.423   8.802  0.0986  0.1389 -0.0165
   46CHL1   H25 5876   5.772   3.397   8.800 -0.3503  1.9326 -0.1432
   46CHL1   C26 5877   5.941   3.384   8.669 -0.0024 -0.7544 -0.0624
   46CHL1  H26A 5878   5.903   3.288   8.630  0.6130 -1.0859  0.1471
   46CHL1  H26B 5879   5.905   3.465   8.600 -0.3758 -0.9280 -0.0705
   46CHL1  H26C 5880   6.052   3.389   8.670  0.0188 -1.1565 -0.2092
   46CHL1   C27 5881   5.946   3.336   8.907  0.7326  0.1954 -0.2019
   46CHL1  H27A 5882   5.944   3.230   8.873  0.4794 -0.1382  0.8065
   46CHL1  H27B 5883   6.048   3.375   8.924 -0.1578  2.8398 -0.4875
   46CHL1  H27C 5884   5.899   3.345   9.008  0.2238  3.1496 -0.6275
   47CHL1    C3 5885   1.622   6.290   9.813  0.3167  0.2380 -0.0989
   47CHL1    H3 5886   1.695   6.373   9.803  2.6638 -1.8275 -0.8792
   47CHL1    O3 5887   1.645   6.258   9.947  0.2712  0.3677  0.3099
   47CHL1   H3' 5888   1.567   6.217   9.985 -0.8779  1.1478 -1.1166
   47CHL1    C4 5889   1.481   6.343   9.799  0.0920  0.1272 -0.0160
   47CHL1   H4A 5890   1.397   6.277   9.831 -0.3349  0.3802 -0.5898
   47CHL1   H4B 5891   1.457   6.416   9.879 -1.1520 -1.2347  0.9247
   47CHL1    C5 5892   1.462   6.404   9.664 -0.5718 -0.4900  1.0475
   47CHL1    C6 5893   1.434   6.536   9.646  0.8803 -0.0489 -0.6561
   47CHL1    H6 5894   1.418   6.594   9.739 -0.3944 -0.6445 -0.4832
   47CHL1    C7 5895   1.398   6.612   9.524 -0.5885  0.1987  0.4061
   47CHL1   H7A 5896   1.305   6.671   9.540  0.8084  3.3733 -2.1855
   47CHL1   H7B 5897   1.481   6.684   9.507 -0.8563  0.5595  0.6253
   47CHL1    C8 5898   1.398   6.512   9.407  0.6628  0.7322  1.1551
   47CHL1    H8 5899   1.298   6.462   9.400  0.8455  0.3893  0.9251
   47CHL1   C14 5900   1.434   6.571   9.271 -0.7683  0.5154 -0.7759
   47CHL1   H14 5901   1.543   6.592   9.282 -0.5328 -0.7933 -0.5031
   47CHL1   C15 5902   1.372   6.703   9.232  0.2167  0.4353  0.2945
   47CHL1  H15A 5903   1.265   6.688   9.256  1.0840 -2.5076  2.9592
   47CHL1  H15B 5904   1.398   6.791   9.294  0.2677  0.0602  0.8095
   47CHL1   C16 5905   1.381   6.716   9.078 -0.1372  0.1010  0.1259
   47CHL1  H16A 5906   1.280   6.709   9.032  0.6042 -1.1229 -1.4104
   47CHL1  H16B 5907   1.422   6.811   9.039  0.0894 -0.5122 -1.1844
   47CHL1   C17 5908   1.455   6.588   9.036 -0.4692  0.3385  0.1584
   47CHL1   H17 5909   1.562   6.610   9.056 -0.3616 -0.5844  0.6337
   47CHL1   C13 5910   1.418   6.484   9.143  0.2087 -0.5321 -0.0633
   47CHL1   C18 5911   1.268   6.442   9.133 -0.2024 -0.3731 -0.0985
   47CHL1  H18A 5912   1.199   6.528   9.148  2.0137  1.3567  0.7487
   47CHL1  H18B 5913   1.252   6.390   9.036 -2.1416 -0.2682  0.1104
   47CHL1  H18C 5914   1.251   6.370   9.216  1.1129 -0.9455 -0.3051
   47CHL1   C12 5915   1.511   6.365   9.157 -0.2179 -0.0438 -0.7406
   47CHL1  H12A 5916   1.502   6.297   9.070  2.1196 -0.8201 -0.4554
   47CHL1  H12B 5917   1.614   6.407   9.148 -0.1962  0.9853  2.8469
   47CHL1   C11 5918   1.491   6.293   9.290 -0.6227 -0.1414 -0.8002
   47CHL1  H11A 5919   1.400   6.230   9.281 -0.8153 -0.4292  2.0246
   47CHL1  H11B 5920   1.573   6.218   9.298 -1.2797 -0.7859  0.1562
   47CHL1    C9 5921   1.495   6.391   9.418  0.6005  0.1925 -0.5776
   47CHL1    H9 5922   1.590   6.449   9.415  0.2154  0.8799  0.0831
   47CHL1   C10 5923   1.487   6.316   9.550 -0.1744  0.0539 -0.4876
   47CHL1   C19 5924   1.365   6.226   9.555 -0.0965  0.2106  0.7862
   47CHL1  H19A 5925   1.270   6.284   9.552  1.0095  2.0526 -1.0974
   47CHL1  H19B 5926   1.350   6.160   9.466  0.9595  0.6219  0.2910
   47CHL1  H19C 5927   1.361   6.162   9.646  1.0319  0.3631  0.9495
   47CHL1    C1 5928   1.621   6.230   9.567  0.1594  0.4324 -0.5680
   47CHL1   H1A 5929   1.620   6.148   9.492 -3.0572 -0.5675  0.3934
   47CHL1   H1B 5930   1.714   6.287   9.546  0.5528 -0.0664 -0.2241
   47CHL1    C2 5931   1.649   6.178   9.709  0.3724 -0.5899 -0.5674
   47CHL1   H2A 5932   1.754   6.147   9.721  0.9798  0.9916 -1.4520
   47CHL1   H2B 5933   1.580   6.097   9.739  0.1891 -0.2618 -0.0907
   47CHL1   C20 5934   1.442   6.538   8.892 -0.3501 -0.3040  0.5865
   47CHL1   H20 5935   1.492   6.439   8.892  1.4968  0.5569  2.3046
   47CHL1   C21 5936   1.534   6.633   8.814 -0.1659 -0.0488  0.6162
   47CHL1  H21A 5937   1.505   6.740   8.808 -1.4101 -0.3805  0.3093
   47CHL1  H21B 5938   1.548   6.592   8.712  0.3439 -1.2284  1.1420
   47CHL1  H21C 5939   1.637   6.629   8.856  1.3866 -0.3225 -2.9112
   47CHL1   C22 5940   1.307   6.530   8.815  0.2916  0.4247 -0.2675
   47CHL1  H22A 5941   1.230   6.497   8.887  2.1966 -0.0517  1.6108
   47CHL1  H22B 5942   1.266   6.632   8.798 -0.8156 -0.0135 -0.2799
   47CHL1   C23 5943   1.313   6.436   8.686  0.1659 -1.1869 -0.0323
   47CHL1  H23A 5944   1.347   6.496   8.599 -1.4659 -3.4935 -2.4297
   47CHL1  H23B 5945   1.395   6.362   8.695  1.2218  0.1329  1.8938
   47CHL1   C24 5946   1.178   6.378   8.638  0.8924 -0.4840  0.3284
   47CHL1  H24A 5947   1.149   6.324   8.730  1.7135  0.5533  1.2275
   47CHL1  H24B 5948   1.108   6.462   8.621 -0.1515 -0.9266  2.2090
   47CHL1   C25 5949   1.185   6.292   8.516 -0.0575 -0.2399  0.2146
   47CHL1   H25 5950   1.243   6.354   8.445 -0.3468  0.1078  0.2824
   47CHL1   C26 5951   1.264   6.157   8.555 -0.1917 -0.9060  0.0205
   47CHL1  H26A 5952   1.278   6.094   8.465  0.3301 -0.8778  0.0830
   47CHL1  H26B 5953   1.216   6.110   8.643 -1.0471  0.5693  0.3832
   47CHL1  H26C 5954   1.367   6.183   8.587 -0.5154  0.0242  0.3618
   47CHL1   C27 5955   1.057   6.248   8.458  0.2530  0.0276  0.3446
   47CHL1  H27A 5956   1.079   6.215   8.354  2.9459  1.8612  0.2403
   47CHL1  H27B 5957   1.001   6.174   8.520 -2.0701  0.4959 -1.0347
   47CHL1  H27C 5958   0.989   6.335   8.450 -0.8892 -0.6117  2.2448
   48CHL1    C3 5959   0.929   0.792   9.825  0.8595  0.9442 -0.1683
   48CHL1    H3 5960   0.871   0.697   9.820 -0.5374  1.6419  1.6712
   48CHL1    O3 5961   0.982   0.808   9.956  0.2633  0.2246  0.0589
   48CHL1   H3' 5962   1.001   0.902   9.965 -2.4982  0.8150  0.6696
   48CHL1    C4 5963   1.045   0.784   9.728 -0.4995  0.4429  0.2477
   48CHL1   H4A 5964   1.117   0.866   9.751  0.1649 -0.6352  2.3534
   48CHL1   H4B 5965   1.101   0.691   9.751 -0.7004 -1.0413 -4.2736
   48CHL1    C5 5966   1.002   0.774   9.582  0.3098  0.1498 -0.2636
   48CHL1    C6 5967   1.043   0.678   9.493 -0.1127  0.1708 -0.3691
   48CHL1    H6 5968   1.120   0.610   9.532  2.1228  3.9248  2.4922
   48CHL1    C7 5969   1.015   0.673   9.348  0.5979  0.2679  0.4339
   48CHL1   H7A 5970   1.113   0.654   9.301  0.5613 -0.5888  0.6861
   48CHL1   H7B 5971   0.933   0.601   9.328 -1.3900  2.2848  0.8525
   48CHL1    C8 5972   0.956   0.809   9.299  0.1499 -0.2210 -0.2752
   48CHL1    H8 5973   1.045   0.876   9.292  0.2060 -0.3038 -0.3533
   48CHL1   C14 5974   0.894   0.782   9.161 -0.4882  0.0033 -1.1513
   48CHL1   H14 5975   0.814   0.707   9.179 -1.2270  1.4279  2.5203
   48CHL1   C15 5976   0.981   0.717   9.057 -0.3661  0.3784  0.4887
   48CHL1  H15A 5977   1.075   0.775   9.046  0.3941 -0.3111  2.7801
   48CHL1  H15B 5978   1.005   0.610   9.076  2.3809  0.4042 -2.0454
   48CHL1   C16 5979   0.898   0.740   8.931  0.3295 -0.3452 -0.3153
   48CHL1  H16A 5980   0.968   0.788   8.859  1.7958  0.1297  1.3481
   48CHL1  H16B 5981   0.851   0.656   8.877  1.3964 -0.1945 -1.5350
   48CHL1   C17 5982   0.773   0.841   8.972 -0.0646  0.2758 -0.2601
   48CHL1   H17 5983   0.693   0.770   9.000 -2.0065  2.4515  0.0406
   48CHL1   C13 5984   0.825   0.906   9.100  0.4848 -0.1886 -0.3319
   48CHL1   C18 5985   0.938   1.011   9.080 -0.6728  0.2728  0.0583
   48CHL1  H18A 5986   0.895   1.106   9.042  1.9122  0.4760 -2.7301
   48CHL1  H18B 5987   0.992   1.035   9.174  0.6128  1.1696 -0.8854
   48CHL1  H18C 5988   1.012   0.971   9.008 -1.1987 -0.1535 -0.2510
   48CHL1   C12 5989   0.706   0.953   9.203  0.2909 -0.6351 -0.5080
   48CHL1  H12A 5990   0.652   1.041   9.160  0.8199  1.6814  3.1467
   48CHL1  H12B 5991   0.623   0.881   9.212 -0.0539 -0.2192 -0.3318
   48CHL1   C11 5992   0.764   0.983   9.339  0.6862 -0.1669 -0.6096
   48CHL1  H11A 5993   0.835   1.068   9.324  1.3911 -0.6218  0.1010
   48CHL1  H11B 5994   0.689   1.007   9.418  3.5247  0.9324  1.9811
   48CHL1    C9 5995   0.852   0.865   9.397  0.0925 -0.3842 -0.8415
   48CHL1    H9 5996   0.786   0.777   9.412 -0.7445  0.5509  1.2925
   48CHL1   C10 5997   0.905   0.889   9.537  0.3894 -0.4087  0.6395
   48CHL1   C19 5998   0.990   1.022   9.527  0.4215  0.3039 -0.1264
   48CHL1  H19A 5999   1.045   1.047   9.621 -0.4182 -0.3970  0.5749
   48CHL1  H19B 6000   1.057   1.011   9.439 -2.2331 -1.6092 -2.0691
   48CHL1  H19C 6001   0.923   1.109   9.507  0.5722  0.4847  0.1371
   48CHL1    C1 6002   0.785   0.896   9.638  0.1917 -0.0498 -0.5822
   48CHL1   H1A 6003   0.732   0.991   9.615  1.0163  1.0231  1.7000
   48CHL1   H1B 6004   0.722   0.805   9.622  2.6701 -2.0049  0.1717
   48CHL1    C2 6005   0.837   0.905   9.784 -0.2472 -0.9070 -0.3186
   48CHL1   H2A 6006   0.754   0.911   9.857 -1.4978  1.1283 -1.7899
   48CHL1   H2B 6007   0.885   1.004   9.799 -0.2870 -0.9583  0.1584
   48CHL1   C20 6008   0.724   0.932   8.866  0.4298  0.6675 -0.1922
   48CHL1   H20 6009   0.700   1.031   8.909  0.0694 -0.5750  2.7253
   48CHL1   C21 6010   0.593   0.866   8.809 -0.6916  0.1918 -0.1303
   48CHL1  H21A 6011   0.547   0.946   8.748  0.4254  1.6672  0.8885
   48CHL1  H21B 6012   0.519   0.851   8.890 -0.4966  2.5663  0.5705
   48CHL1  H21C 6013   0.621   0.768   8.765  1.1817 -0.1620  1.6888
   48CHL1   C22 6014   0.823   0.957   8.752 -0.0544 -1.3161  0.6195
   48CHL1  H22A 6015   0.903   1.016   8.801 -0.7551  0.8949 -0.7715
   48CHL1  H22B 6016   0.862   0.860   8.714  0.6813 -0.5891 -0.5250
   48CHL1   C23 6017   0.771   1.028   8.628 -0.2753 -0.8774  0.2246
   48CHL1  H23A 6018   0.861   1.043   8.566  0.0175 -1.8139  0.4102
   48CHL1  H23B 6019   0.693   0.973   8.572 -0.4380 -1.3384  0.8871
   48CHL1   C24 6020   0.713   1.168   8.650  0.2499  0.2965 -0.2095
   48CHL1  H24A 6021   0.613   1.175   8.698  0.9021  2.9433  0.9290
   48CHL1  H24B 6022   0.779   1.224   8.719 -1.5161  2.6963 -0.3327
   48CHL1   C25 6023   0.685   1.253   8.528  0.1865 -0.7024  0.0875
   48CHL1   H25 6024   0.619   1.208   8.451 -0.8402  0.6565  0.1523
   48CHL1   C26 6025   0.604   1.365   8.579  0.6550 -1.0593 -0.1625
   48CHL1  H26A 6026   0.663   1.432   8.646 -1.9929 -0.2933  1.5832
   48CHL1  H26B 6027   0.575   1.425   8.490 -1.0480 -0.4201  0.7775
   48CHL1  H26C 6028   0.512   1.339   8.635  0.6995  0.6513  0.7770
   48CHL1   C27 6029   0.812   1.318   8.455  0.5694 -0.0231  0.2741
   48CHL1  H27A 6030   0.865   1.237   8.402  0.6144 -0.8854  1.5881
   48CHL1  H27B 6031   0.783   1.396   8.382  1.1130  0.8360  0.9506
   48CHL1  H27C 6032   0.891   1.365   8.517  0.5969  0.5403 -0.1785
   49CHL1    C3 6033   6.084   3.283   9.878  1.0327  0.4038 -0.3301
   49CHL1    H3 6034   6.115   3.389   9.889  1.4846  0.2069  0.3529
   49CHL1    O3 6035   6.132   3.220   9.989 -0.2543  0.1256 -0.3839
   49CHL1   H3' 6036   6.086   3.136   9.987 -1.4466  0.7695 -0.5681
   49CHL1    C4 6037   5.934   3.284   9.903 -0.5791 -0.8247  0.2341
   49CHL1   H4A 6038   5.885   3.187   9.928 -1.0965 -1.1765 -1.9460
   49CHL1   H4B 6039   5.916   3.343   9.995 -0.9296  0.0214 -0.3706
   49CHL1    C5 6040   5.858   3.330   9.777 -0.1522 -0.6740  0.0104
   49CHL1    C6 6041   5.771   3.431   9.785  0.0798  0.1461  0.3515
   49CHL1    H6 6042   5.756   3.470   9.887 -1.3863  1.1317 -0.2181
   49CHL1    C7 6043   5.689   3.485   9.674 -0.4328  1.1796  0.1303
   49CHL1   H7A 6044   5.583   3.501   9.704  0.6051  3.0620  3.2640
   49CHL1   H7B 6045   5.720   3.585   9.638  1.6047 -0.2792 -2.5487
   49CHL1    C8 6046   5.677   3.382   9.562 -0.0099 -0.2380 -0.3128
   49CHL1    H8 6047   5.612   3.302   9.602 -3.2732  1.8450 -1.0890
   49CHL1   C14 6048   5.608   3.448   9.444  0.0614 -0.2833  0.1026
   49CHL1   H14 6049   5.680   3.515   9.393 -2.2563  1.5187 -1.0108
   49CHL1   C15 6050   5.473   3.521   9.465 -0.4413  0.3472  0.4855
   49CHL1  H15A 6051   5.412   3.470   9.542 -0.2214 -0.8155 -0.0820
   49CHL1  H15B 6052   5.490   3.623   9.507  0.8361  1.0161 -1.4817
   49CHL1   C16 6053   5.405   3.528   9.329 -0.3634  0.6139 -0.1038
   49CHL1  H16A 6054   5.311   3.469   9.327 -0.5207  0.8264 -2.8772
   49CHL1  H16B 6055   5.396   3.633   9.294 -1.0966 -0.4262 -3.3873
   49CHL1   C17 6056   5.499   3.439   9.239  0.3570 -0.1781 -0.1723
   49CHL1   H17 6057   5.571   3.510   9.193  1.6368 -1.0722  0.3675
   49CHL1   C13 6058   5.578   3.347   9.333 -0.1951 -0.0672 -0.7792
   49CHL1   C18 6059   5.481   3.236   9.392  0.4036 -0.9425  0.2737
   49CHL1  H18A 6060   5.526   3.169   9.468 -1.9683 -2.2827  0.5824
   49CHL1  H18B 6061   5.392   3.285   9.435 -0.9195 -2.1454 -0.9772
   49CHL1  H18C 6062   5.443   3.179   9.304 -1.7816  2.2050 -1.0095
   49CHL1   C12 6063   5.717   3.302   9.282 -0.2868 -0.4531  0.2938
   49CHL1  H12A 6064   5.691   3.241   9.193 -1.1968  1.6734 -1.0023
   49CHL1  H12B 6065   5.767   3.396   9.249 -0.8875  0.0226  0.7112
   49CHL1   C11 6066   5.809   3.246   9.391  0.6289 -0.3702  0.1445
   49CHL1  H11A 6067   5.767   3.145   9.407 -3.6552  0.8131 -2.0511
   49CHL1  H11B 6068   5.911   3.249   9.347 -0.2625 -2.0232 -2.2433
   49CHL1    C9 6069   5.815   3.327   9.531 -0.0080 -0.0512  0.3612
   49CHL1    H9 6070   5.879   3.415   9.514  0.9462 -0.4035  1.8684
   49CHL1   C10 6071   5.882   3.246   9.645 -0.2331 -0.3791 -0.7407
   49CHL1   C19 6072   5.828   3.104   9.649  0.1773 -0.3454 -0.3745
   49CHL1  H19A 6073   5.836   3.057   9.750 -1.8975 -0.5234 -0.2483
   49CHL1  H19B 6074   5.722   3.107   9.616 -0.0755  2.2551  0.4957
   49CHL1  H19C 6075   5.887   3.048   9.573  0.5885 -0.2426 -0.1330
   49CHL1    C1 6076   6.038   3.252   9.617 -0.1444 -0.1595  0.1882
   49CHL1   H1A 6077   6.058   3.173   9.542  3.2376  0.6272  0.0852
   49CHL1   H1B 6078   6.070   3.354   9.585  0.4499 -0.0604  1.0567
   49CHL1    C2 6079   6.127   3.220   9.740  0.9385 -0.6024 -0.3297
   49CHL1   H2A 6080   6.235   3.242   9.728  0.6212  1.8807  0.7556
   49CHL1   H2B 6081   6.112   3.110   9.745 -2.2740 -0.4895 -3.4398
   49CHL1   C20 6082   5.433   3.384   9.115  0.4104 -0.0738  0.8986
   49CHL1   H20 6083   5.352   3.321   9.159 -0.4335 -1.4745 -2.3482
   49CHL1   C21 6084   5.523   3.297   9.026  0.5218  0.3489 -0.1992
   49CHL1  H21A 6085   5.546   3.197   9.069  0.1214  0.2599 -0.1896
   49CHL1  H21B 6086   5.618   3.353   9.014  1.0177  0.3810  2.9114
   49CHL1  H21C 6087   5.486   3.284   8.922  0.5694  4.6587 -0.9619
   49CHL1   C22 6088   5.361   3.490   9.031 -0.0671 -0.1983 -0.6205
   49CHL1  H22A 6089   5.303   3.436   8.953 -0.8962  0.4907 -0.4966
   49CHL1  H22B 6090   5.282   3.545   9.086  0.6851  1.1289 -0.8004
   49CHL1   C23 6091   5.457   3.599   8.967  0.5851  0.7631  0.2935
   49CHL1  H23A 6092   5.498   3.666   9.046 -0.7395  1.4040  0.4678
   49CHL1  H23B 6093   5.543   3.550   8.918 -0.5508 -1.8059  0.7231
   49CHL1   C24 6094   5.375   3.677   8.860 -0.3418  0.6727  0.2022
   49CHL1  H24A 6095   5.443   3.728   8.789  0.6636 -1.1753 -0.2281
   49CHL1  H24B 6096   5.325   3.599   8.798 -0.8070 -0.7075  2.1828
   49CHL1   C25 6097   5.265   3.774   8.908  0.4709 -0.1787 -0.0971
   49CHL1   H25 6098   5.208   3.711   8.981  0.8054 -1.2125 -0.7026
   49CHL1   C26 6099   5.326   3.890   8.989 -0.3240  0.4933  0.1381
   49CHL1  H26A 6100   5.386   3.846   9.071  1.2975  1.1917 -0.6352
   49CHL1  H26B 6101   5.382   3.952   8.915  1.9360 -2.3308 -0.6901
   49CHL1  H26C 6102   5.238   3.948   9.024 -1.6655 -0.5510 -1.3399
   49CHL1   C27 6103   5.181   3.829   8.793  0.0480 -0.4945 -0.9299
   49CHL1  H27A 6104   5.245   3.897   8.734 -0.7736  1.6631  0.5429
   49CHL1  H27B 6105   5.144   3.742   8.735  1.6904 -2.1688  0.3725
   49CHL1  H27C 6106   5.102   3.895   8.836 -1.1626 -2.2458 -0.3438
   50CHL1    C3 6107   3.351   6.452   9.863 -0.3367 -0.6821 -0.1046
   50CHL1    H3 6108   3.290   6.362   9.887 -2.6373  0.1656 -2.4104
   50CHL1    O3 6109   3.380   6.508   9.994 -1.3760  0.3487  0.0304
   50CHL1   H3' 6110   3.460   6.561   9.983 -1.6315  1.2868  2.1733
   50CHL1    C4 6111   3.487   6.412   9.795 -0.9425 -0.2670 -0.1800
   50CHL1   H4A 6112   3.559   6.495   9.806 -0.3831 -0.7911  0.1830
   50CHL1   H4B 6113   3.524   6.345   9.876  1.3942  0.4596 -0.5938
   50CHL1    C5 6114   3.476   6.358   9.660 -0.4168  0.0966 -0.6220
   50CHL1    C6 6115   3.526   6.240   9.624 -0.4505 -0.1556 -0.1617
   50CHL1    H6 6116   3.580   6.180   9.698 -1.6579  0.0625  0.9148
   50CHL1    C7 6117   3.512   6.176   9.487 -0.8986 -0.6659 -0.2110
   50CHL1   H7A 6118   3.603   6.118   9.460  0.6687  0.5912  2.1107
   50CHL1   H7B 6119   3.431   6.099   9.489 -0.7574 -0.9516 -2.6621
   50CHL1    C8 6120   3.477   6.284   9.386 -0.3781  0.3383  0.3744
   50CHL1    H8 6121   3.567   6.348   9.378  2.0207 -2.7228  0.9831
   50CHL1   C14 6122   3.450   6.211   9.251 -0.2019 -0.7398 -0.3515
   50CHL1   H14 6123   3.352   6.161   9.268 -1.1844  0.9899 -0.7221
   50CHL1   C15 6124   3.544   6.104   9.189 -0.6764  0.6848  0.3299
   50CHL1  H15A 6125   3.639   6.150   9.225 -3.0171  1.8532  6.1539
   50CHL1  H15B 6126   3.525   6.002   9.227  1.4725  0.0024 -0.2851
   50CHL1   C16 6127   3.535   6.127   9.034  0.3705  0.7327  0.0046
   50CHL1  H16A 6128   3.631   6.175   9.005  2.1596 -2.3757  0.2773
   50CHL1  H16B 6129   3.532   6.031   8.978  0.7928  0.1681  0.9163
   50CHL1   C17 6130   3.413   6.216   9.020  0.4013  0.2613  0.1315
   50CHL1   H17 6131   3.333   6.147   9.053  1.9052 -1.6071  0.0675
   50CHL1   C13 6132   3.420   6.316   9.138  0.1776  0.5702  0.1099
   50CHL1   C18 6133   3.529   6.420   9.106  0.1492 -0.1653  0.0992
   50CHL1  H18A 6134   3.515   6.465   9.006  0.7881  1.7223  0.8085
   50CHL1  H18B 6135   3.547   6.488   9.192  0.8931 -0.8142  0.4797
   50CHL1  H18C 6136   3.628   6.369   9.102 -0.2409 -0.8513 -1.6691
   50CHL1   C12 6137   3.292   6.386   9.183  0.4079  0.2539 -0.9443
   50CHL1  H12A 6138   3.248   6.460   9.112  0.3461 -0.0473 -1.2262
   50CHL1  H12B 6139   3.219   6.304   9.205  1.4690 -0.2191  0.9840
   50CHL1   C11 6140   3.307   6.463   9.311  0.1494 -0.3579 -0.2948
   50CHL1  H11A 6141   3.369   6.552   9.285 -1.3715  0.4738 -1.2815
   50CHL1  H11B 6142   3.208   6.499   9.347  0.4800 -1.1771  1.5089
   50CHL1    C9 6143   3.359   6.374   9.427 -0.3641  0.0267 -0.4331
   50CHL1    H9 6144   3.275   6.304   9.448 -0.0273 -0.4026 -0.5011
   50CHL1   C10 6145   3.390   6.448   9.565  0.8181 -0.5790 -0.1454
   50CHL1   C19 6146   3.474   6.572   9.525  0.3878 -0.0009  0.6030
   50CHL1  H19A 6147   3.504   6.642   9.606 -1.0445  0.3611  0.8578
   50CHL1  H19B 6148   3.569   6.537   9.480 -0.3835 -1.9390  0.4037
   50CHL1  H19C 6149   3.416   6.640   9.459 -0.4086 -2.1945 -1.0835
   50CHL1    C1 6150   3.258   6.482   9.636  0.7967 -0.0571  0.1389
   50CHL1   H1A 6151   3.190   6.534   9.566 -0.3297 -0.2293  1.0883
   50CHL1   H1B 6152   3.214   6.384   9.663  1.2819 -0.3982 -0.2748
   50CHL1    C2 6153   3.276   6.549   9.774  0.5811 -0.2428  0.5594
   50CHL1   H2A 6154   3.184   6.573   9.830  0.0850 -0.3053 -0.2081
   50CHL1   H2B 6155   3.332   6.644   9.763  0.3167 -0.0506  0.8920
   50CHL1   C20 6156   3.380   6.260   8.874  0.4292  0.1690 -0.4881
   50CHL1   H20 6157   3.320   6.353   8.874  0.1163  0.0348 -2.7646
   50CHL1   C21 6158   3.285   6.158   8.822  0.1950 -0.2159  0.2773
   50CHL1  H21A 6159   3.323   6.054   8.813 -0.4037 -0.4481  0.4359
   50CHL1  H21B 6160   3.266   6.190   8.717  1.9045 -1.2913 -0.4107
   50CHL1  H21C 6161   3.187   6.151   8.874  0.1041  1.7509  0.4628
   50CHL1   C22 6162   3.501   6.288   8.781 -0.4518  0.5798 -0.3578
   50CHL1  H22A 6163   3.527   6.389   8.819  2.0552 -0.5665  1.2190
   50CHL1  H22B 6164   3.573   6.205   8.798 -0.3217  1.1013  2.0984
   50CHL1   C23 6165   3.457   6.297   8.635  0.8888 -0.1992  0.4982
   50CHL1  H23A 6166   3.466   6.195   8.593  2.0165  1.2623 -3.2310
   50CHL1  H23B 6167   3.351   6.329   8.631  0.4873 -1.2725  1.8440
   50CHL1   C24 6168   3.576   6.369   8.555 -0.0798 -0.3410  0.5642
   50CHL1  H24A 6169   3.592   6.469   8.600 -0.0070  0.0658 -0.3572
   50CHL1  H24B 6170   3.665   6.306   8.575 -0.3626 -0.8234  0.3384
   50CHL1   C25 6171   3.544   6.381   8.404 -0.6766 -0.0428 -0.0638
   50CHL1   H25 6172   3.626   6.444   8.364  0.0611 -1.1273 -0.2957
   50CHL1   C26 6173   3.530   6.249   8.339  0.6342 -0.0424  0.6278
   50CHL1  H26A 6174   3.433   6.200   8.364  0.3098  0.3142  0.0955
   50CHL1  H26B 6175   3.551   6.246   8.230  0.9466 -3.3753  0.6706
   50CHL1  H26C 6176   3.609   6.176   8.369  1.9999 -0.7056 -3.8495
   50CHL1   C27 6177   3.418   6.461   8.368  0.1103 -0.2547 -0.1237
   50CHL1  H27A 6178   3.430   6.455   8.258  1.6975 -1.8340  0.0879
   50CHL1  H27B 6179   3.319   6.421   8.400 -0.2497  0.3941 -0.4223
   50CHL1  H27C 6180   3.414   6.562   8.413 -2.0870 -0.0168 -0.7492
   51CHL1    C3 6181   5.091   0.782  10.226  0.1006 -0.1218 -0.1557
   51CHL1    H3 6182   5.063   0.688  10.174 -0.2235 -0.6177  0.9019
   51CHL1    O3 6183   5.067   0.752  10.363  0.6474  0.0274 -0.4244
   51CHL1   H3' 6184   5.127   0.679  10.378  0.3149 -0.2559 -0.4680
   51CHL1    C4 6185   5.238   0.813  10.184 -0.2661 -0.0277 -0.3833
   51CHL1   H4A 6186   5.266   0.915  10.216 -0.2972  0.0068 -0.4654
   51CHL1   H4B 6187   5.303   0.738  10.235  0.0477  1.7449  1.9887
   51CHL1    C5 6188   5.255   0.804  10.036  0.1474  0.4948  0.3591
   51CHL1    C6 6189   5.337   0.720   9.979 -0.9836 -0.4097  0.2376
   51CHL1    H6 6190   5.414   0.669  10.039 -0.7325  0.1780  0.4206
   51CHL1    C7 6191   5.357   0.705   9.830  0.7423  0.0080  0.0962
   51CHL1   H7A 6192   5.463   0.689   9.800 -0.1181 -2.4439 -1.9768
   51CHL1   H7B 6193   5.309   0.611   9.794  1.5834 -0.8309  1.0918
   51CHL1    C8 6194   5.303   0.831   9.757  1.4151  0.4617 -0.1449
   51CHL1    H8 6195   5.367   0.920   9.777 -0.2030  1.3442  1.4200
   51CHL1   C14 6196   5.288   0.796   9.608 -0.7161 -0.3030  0.0490
   51CHL1   H14 6197   5.209   0.718   9.613 -0.3946 -0.8622 -2.4797
   51CHL1   C15 6198   5.409   0.737   9.533 -0.6937  0.0320  0.7095
   51CHL1  H15A 6199   5.500   0.791   9.567 -1.6728  2.7218 -0.6336
   51CHL1  H15B 6200   5.408   0.629   9.559  1.6275  0.3421  2.3664
   51CHL1   C16 6201   5.380   0.751   9.384 -0.2337  0.0977 -0.3255
   51CHL1  H16A 6202   5.457   0.826   9.355 -0.2133  0.2396  0.0908
   51CHL1  H16B 6203   5.387   0.655   9.330  0.7367  0.0607 -0.1510
   51CHL1   C17 6204   5.248   0.824   9.380  0.2919  0.2531  0.7236
   51CHL1   H17 6205   5.162   0.754   9.378 -0.4030  1.0701 -1.2291
   51CHL1   C13 6206   5.238   0.902   9.513 -0.1183  0.1126 -0.6506
   51CHL1   C18 6207   5.343   1.017   9.508 -0.3868  0.2295 -0.0190
   51CHL1  H18A 6208   5.337   1.074   9.604 -0.3448 -0.0742  0.1648
   51CHL1  H18B 6209   5.451   0.991   9.505 -0.9530 -2.3723 -0.6513
   51CHL1  H18C 6210   5.313   1.084   9.425 -0.7445  1.7060  1.2449
   51CHL1   C12 6211   5.102   0.952   9.571 -0.3802  0.0672 -0.4944
   51CHL1  H12A 6212   5.061   1.034   9.507 -0.2391 -0.5398 -1.3923
   51CHL1  H12B 6213   5.027   0.870   9.562 -1.4244  0.1049  4.9477
   51CHL1   C11 6214   5.117   0.990   9.721  0.5203  0.2510 -0.3904
   51CHL1  H11A 6215   5.180   1.078   9.744 -2.0381  2.2497 -0.5265
   51CHL1  H11B 6216   5.016   1.012   9.761  0.1473 -0.7371 -0.7568
   51CHL1    C9 6217   5.162   0.872   9.807 -0.4799  0.2098 -0.0735
   51CHL1    H9 6218   5.091   0.789   9.789  4.5205 -4.5882 -0.1887
   51CHL1   C10 6219   5.162   0.901   9.962 -0.2828  0.0805 -0.0485
   51CHL1   C19 6220   5.222   1.045   9.982  0.4095  0.4056 -0.3863
   51CHL1  H19A 6221   5.252   1.054  10.089 -4.0942  0.4449  1.0848
   51CHL1  H19B 6222   5.311   1.060   9.917 -0.2581  0.1491 -1.3678
   51CHL1  H19C 6223   5.140   1.120   9.970 -1.8079 -1.2870  2.8242
   51CHL1    C1 6224   5.011   0.898  10.017  0.4475  0.3655 -0.1530
   51CHL1   H1A 6225   4.956   0.988   9.983  0.8727 -0.1169 -2.2843
   51CHL1   H1B 6226   4.958   0.812   9.972  1.0039 -0.1622  0.1801
   51CHL1    C2 6227   4.999   0.892  10.177 -0.6865  0.2899 -1.1053
   51CHL1   H2A 6228   4.899   0.858  10.210 -0.2334 -0.8175 -0.8443
   51CHL1   H2B 6229   5.019   0.987  10.233 -0.7608 -0.1277 -0.3527
   51CHL1   C20 6230   5.231   0.889   9.238  0.0335  0.1567 -0.7275
   51CHL1   H20 6231   5.320   0.950   9.211 -0.3294  0.2705 -1.7141
   51CHL1   C21 6232   5.112   0.994   9.233  1.2720 -0.6157  0.3272
   51CHL1  H21A 6233   5.016   0.943   9.255  0.9374 -0.4678 -0.7444
   51CHL1  H21B 6234   5.108   1.039   9.131  1.5260 -3.1151 -0.8615
   51CHL1  H21C 6235   5.126   1.075   9.308 -1.1439  0.5089 -0.3443
   51CHL1   C22 6236   5.218   0.781   9.126  0.2262 -0.1259 -0.1081
   51CHL1  H22A 6237   5.229   0.676   9.161 -4.6786 -0.5263  1.0163
   51CHL1  H22B 6238   5.109   0.787   9.105  0.1531 -0.4581  0.1810
   51CHL1   C23 6239   5.300   0.806   8.994  0.1443  0.1058 -0.2403
   51CHL1  H23A 6240   5.238   0.879   8.939 -0.1569  1.2375  1.5142
   51CHL1  H23B 6241   5.402   0.837   9.026 -0.0760  0.4065  0.1682
   51CHL1   C24 6242   5.303   0.667   8.924 -0.6395 -0.5024  0.0006
   51CHL1  H24A 6243   5.340   0.590   8.995  0.2219  1.3275  1.6287
   51CHL1  H24B 6244   5.200   0.632   8.899 -0.5270  0.5613 -2.1867
   51CHL1   C25 6245   5.377   0.674   8.790  0.1632  0.2388 -0.1767
   51CHL1   H25 6246   5.303   0.723   8.724 -1.0279 -1.7013 -0.3863
   51CHL1   C26 6247   5.508   0.749   8.800  0.4123 -0.7720  0.5937
   51CHL1  H26A 6248   5.572   0.742   8.710 -0.3984 -0.4984 -0.0176
   51CHL1  H26B 6249   5.491   0.858   8.812  0.2578 -0.7787  0.4325
   51CHL1  H26C 6250   5.574   0.713   8.882  0.4947 -0.4189  0.6856
   51CHL1   C27 6251   5.389   0.530   8.736 -0.1128 -0.0263  0.2524
   51CHL1  H27A 6252   5.307   0.458   8.757 -2.4253  0.9662 -4.1686
   51CHL1  H27B 6253   5.406   0.539   8.627  2.5986  1.7174  0.7354
   51CHL1  H27C 6254   5.489   0.494   8.767  1.0738  2.6507 -0.1997
   52CHL1    C3 6255   1.320   1.976  10.147  0.5925 -0.5017 -0.2889
   52CHL1    H3 6256   1.272   1.875  10.150 -0.9518  0.1963 -0.5533
   52CHL1    O3 6257   1.348   2.027  10.274  0.3051 -0.2492 -0.6898
   52CHL1   H3' 6258   1.372   1.955  10.333 -0.5798  0.8496  1.1161
   52CHL1    C4 6259   1.454   1.988  10.068  0.3270  0.4849 -0.0658
   52CHL1   H4A 6260   1.495   2.091  10.072  0.5200  0.4627 -1.2665
   52CHL1   H4B 6261   1.524   1.918  10.120 -0.7584 -1.4862 -1.1338
   52CHL1    C5 6262   1.428   1.955   9.926  0.1304 -0.1015 -0.1231
   52CHL1    C6 6263   1.507   1.859   9.865 -0.3287 -0.3810  0.2099
   52CHL1    H6 6264   1.579   1.803   9.927  0.3539 -0.1737 -0.3916
   52CHL1    C7 6265   1.503   1.830   9.714 -0.4584  0.3437  0.2517
   52CHL1   H7A 6266   1.605   1.807   9.676 -0.7015 -2.1633  0.9796
   52CHL1   H7B 6267   1.449   1.736   9.694  2.5985 -1.8294  1.5295
   52CHL1    C8 6268   1.438   1.944   9.635 -0.1669 -0.9187 -0.0001
   52CHL1    H8 6269   1.505   2.032   9.630 -0.3935 -0.8218 -2.4031
   52CHL1   C14 6270   1.417   1.897   9.493 -0.1701 -0.1858  0.4295
   52CHL1   H14 6271   1.356   1.805   9.494 -1.2940  0.4239 -2.2227
   52CHL1   C15 6272   1.553   1.878   9.412 -0.3266 -0.0883 -0.0493
   52CHL1  H15A 6273   1.627   1.956   9.438 -1.7211  1.8504 -1.6583
   52CHL1  H15B 6274   1.599   1.783   9.447  1.7339  0.4834 -1.0686
   52CHL1   C16 6275   1.508   1.876   9.265  0.1270  0.1910 -0.1169
   52CHL1  H16A 6276   1.571   1.942   9.201 -1.1460  1.7380  0.1473
   52CHL1  H16B 6277   1.507   1.773   9.225 -1.0788  0.5792 -1.1704
   52CHL1   C17 6278   1.359   1.916   9.263 -0.0784  0.0810  0.1795
   52CHL1   H17 6279   1.297   1.825   9.279 -0.4734  0.3316  0.0925
   52CHL1   C13 6280   1.340   1.994   9.401 -0.2871  0.5607  0.8931
   52CHL1   C18 6281   1.401   2.134   9.395 -0.0199  0.7555  0.2081
   52CHL1  H18A 6282   1.506   2.129   9.358 -0.3599 -0.8812 -0.6430
   52CHL1  H18B 6283   1.348   2.208   9.333  1.0956 -0.2400 -2.0490
   52CHL1  H18C 6284   1.416   2.175   9.497  0.3656  1.8491 -0.2729
   52CHL1   C12 6285   1.202   2.005   9.466  0.3470  0.2178  0.4096
   52CHL1  H12A 6286   1.134   2.069   9.405  0.0466  0.1182  0.6405
   52CHL1  H12B 6287   1.156   1.905   9.479 -0.9356  0.6857 -0.3244
   52CHL1   C11 6288   1.209   2.066   9.607 -0.1546 -0.4369 -0.2953
   52CHL1  H11A 6289   1.246   2.169   9.584 -0.4168 -0.6727 -1.8792
   52CHL1  H11B 6290   1.111   2.082   9.658  0.3288  2.0016  0.0006
   52CHL1    C9 6291   1.298   1.981   9.703 -0.2275 -0.1724  0.5782
   52CHL1    H9 6292   1.256   1.879   9.717  2.5344 -1.5288 -0.2851
   52CHL1   C10 6293   1.323   2.038   9.845 -0.4561 -1.2069 -0.5670
   52CHL1   C19 6294   1.378   2.185   9.839  0.1658  0.3674 -0.8680
   52CHL1  H19A 6295   1.305   2.241   9.777  0.2166 -0.5457 -1.7650
   52CHL1  H19B 6296   1.380   2.238   9.937  2.7325  2.0699 -1.7271
   52CHL1  H19C 6297   1.480   2.197   9.798  1.6639  1.3342  2.7134
   52CHL1    C1 6298   1.194   2.037   9.923  0.0031 -0.1021 -0.5667
   52CHL1   H1A 6299   1.128   2.117   9.882  0.2897  0.0753 -0.6865
   52CHL1   H1B 6300   1.137   1.944   9.902 -2.0090  1.6923 -3.8544
   52CHL1    C2 6301   1.209   2.068  10.073 -0.4626  0.4948  0.4921
   52CHL1   H2A 6302   1.113   2.051  10.126 -0.7311 -3.1235 -0.8944
   52CHL1   H2B 6303   1.239   2.173  10.095 -1.3779  0.5400  1.6663
   52CHL1   C20 6304   1.328   1.992   9.128 -0.1228 -0.1571 -0.3871
   52CHL1   H20 6305   1.380   2.090   9.129 -1.8298  0.7723 -0.3107
   52CHL1   C21 6306   1.177   2.023   9.123 -0.1107 -0.6125 -0.2618
   52CHL1  H21A 6307   1.117   1.937   9.158 -0.0382 -0.4296  0.3287
   52CHL1  H21B 6308   1.151   2.036   9.016 -1.0611 -1.5860 -0.1634
   52CHL1  H21C 6309   1.155   2.108   9.192 -0.3466 -0.9018  0.0257
   52CHL1   C22 6310   1.375   1.911   9.004 -0.3048  0.0545  0.0350
   52CHL1  H22A 6311   1.483   1.891   9.020 -0.4989 -0.0229  1.3342
   52CHL1  H22B 6312   1.323   1.814   8.991 -0.7211  0.1792  0.7179
   52CHL1   C23 6313   1.356   1.986   8.870  0.1352  0.2350 -0.2426
   52CHL1  H23A 6314   1.252   2.023   8.858 -0.2725 -1.1581 -1.1894
   52CHL1  H23B 6315   1.424   2.074   8.860  1.1857 -0.6057 -0.6990
   52CHL1   C24 6316   1.391   1.889   8.753  0.1374 -0.8455 -0.2456
   52CHL1  H24A 6317   1.498   1.861   8.758  0.4922  0.1159 -1.8640
   52CHL1  H24B 6318   1.338   1.791   8.756  1.0408 -1.4156 -1.6074
   52CHL1   C25 6319   1.362   1.950   8.620  0.1306  0.3869  0.6870
   52CHL1   H25 6320   1.435   2.030   8.595  1.1555 -0.9353 -0.7453
   52CHL1   C26 6321   1.345   1.835   8.518 -0.8693 -0.2359  0.0666
   52CHL1  H26A 6322   1.334   1.888   8.421  2.1738  0.9296  0.2382
   52CHL1  H26B 6323   1.434   1.768   8.517  1.6507  2.8449 -1.2159
   52CHL1  H26C 6324   1.258   1.774   8.549  0.3708 -1.8162  0.5355
   52CHL1   C27 6325   1.219   2.026   8.602 -0.2034 -0.3994 -0.1612
   52CHL1  H27A 6326   1.196   2.071   8.503 -0.6197  4.8880  2.0287
   52CHL1  H27B 6327   1.140   1.950   8.621  1.1637 -1.2040  2.9885
   52CHL1  H27C 6328   1.198   2.111   8.670 -0.6498 -1.0185  0.4835
   53CHL1    C3 6329   2.748   1.579  10.198 -0.1155 -0.1913  0.3485
   53CHL1    H3 6330   2.650   1.625  10.176  2.1264  5.1193 -0.1917
   53CHL1    O3 6331   2.780   1.598  10.332  0.7989  0.4397 -0.2758
   53CHL1   H3' 6332   2.875   1.608  10.331  0.7236  1.1876 -0.8436
   53CHL1    C4 6333   2.756   1.435  10.160  0.0437 -0.1945 -0.1696
   53CHL1   H4A 6334   2.862   1.402  10.168 -0.2343 -1.0659 -0.0550
   53CHL1   H4B 6335   2.694   1.368  10.223 -2.0021  1.4085 -0.3761
   53CHL1    C5 6336   2.726   1.426  10.009  0.5143  0.3430  0.2352
   53CHL1    C6 6337   2.626   1.346   9.966  0.4013 -0.3401 -0.0237
   53CHL1    H6 6338   2.572   1.281  10.036 -1.8552  1.0421 -0.3804
   53CHL1    C7 6339   2.586   1.319   9.826  0.6603 -0.5478 -0.0337
   53CHL1   H7A 6340   2.564   1.213   9.800  0.6458  0.1189 -3.1758
   53CHL1   H7B 6341   2.488   1.368   9.804  1.3830  0.6429 -0.6602
   53CHL1    C8 6342   2.693   1.365   9.728  0.4155 -0.4962  0.3033
   53CHL1    H8 6343   2.774   1.290   9.715 -0.3957 -0.9895 -2.6335
   53CHL1   C14 6344   2.643   1.370   9.589  0.4009  0.0200 -0.3920
   53CHL1   H14 6345   2.563   1.446   9.581  1.6565  1.4846  0.3550
   53CHL1   C15 6346   2.577   1.245   9.534  0.2058  0.6103 -0.1667
   53CHL1  H15A 6347   2.647   1.161   9.553 -0.4154  0.1070 -0.0783
   53CHL1  H15B 6348   2.476   1.221   9.574  0.1943  0.4879 -0.2682
   53CHL1   C16 6349   2.577   1.265   9.383  0.1711 -0.7996  0.5940
   53CHL1  H16A 6350   2.622   1.179   9.329 -0.4409  0.7447 -2.5832
   53CHL1  H16B 6351   2.474   1.274   9.343  0.9396  1.4733 -1.0656
   53CHL1   C17 6352   2.649   1.395   9.348  0.5002 -0.3717 -0.4738
   53CHL1   H17 6353   2.573   1.475   9.345  1.3039  0.3895 -1.6583
   53CHL1   C13 6354   2.737   1.412   9.476 -0.5827  0.4276 -0.7620
   53CHL1   C18 6355   2.867   1.322   9.467  0.1756  0.1058 -0.3133
   53CHL1  H18A 6356   2.927   1.319   9.560 -1.4364  0.3578  0.7670
   53CHL1  H18B 6357   2.848   1.215   9.442 -0.9480 -0.3411  2.1806
   53CHL1  H18C 6358   2.919   1.368   9.380 -1.6008 -0.1839 -1.5849
   53CHL1   C12 6359   2.770   1.558   9.518  0.6501 -0.2113 -0.2950
   53CHL1  H12A 6360   2.843   1.604   9.448  0.3675 -1.3992 -1.4162
   53CHL1  H12B 6361   2.682   1.625   9.514  0.8816  0.1292  0.2659
   53CHL1   C11 6362   2.835   1.575   9.656 -0.0807  0.6630 -0.2787
   53CHL1  H11A 6363   2.936   1.530   9.659  0.1060  1.0880  0.0684
   53CHL1  H11B 6364   2.845   1.685   9.672 -2.7432  0.7616  1.4965
   53CHL1    C9 6365   2.756   1.506   9.769  0.4468  0.0093 -0.0248
   53CHL1    H9 6366   2.662   1.565   9.766 -1.8992 -3.4284 -1.8516
   53CHL1   C10 6367   2.816   1.512   9.912 -0.0407  0.1970  0.0138
   53CHL1   C19 6368   2.957   1.454   9.917 -0.9998  0.3478  0.0776
   53CHL1  H19A 6369   2.960   1.352   9.873 -0.3634  0.9424 -1.2967
   53CHL1  H19B 6370   3.026   1.516   9.856 -1.7998  1.5113  0.3186
   53CHL1  H19C 6371   3.002   1.457  10.019  2.5256  1.3551 -1.3605
   53CHL1    C1 6372   2.814   1.661   9.955 -0.7362  0.7082 -0.7909
   53CHL1   H1A 6373   2.886   1.723   9.898  1.5393 -0.0209  1.1255
   53CHL1   H1B 6374   2.710   1.693   9.931 -1.4127 -1.5122 -0.9710
   53CHL1    C2 6375   2.846   1.668  10.110  0.1098 -0.1660  0.4154
   53CHL1   H2A 6376   2.830   1.774  10.140  3.0811 -0.2425  2.6939
   53CHL1   H2B 6377   2.952   1.646  10.137  0.2580 -0.8200 -0.6506
   53CHL1   C20 6378   2.713   1.395   9.202  0.3363 -0.3753  0.3381
   53CHL1   H20 6379   2.800   1.326   9.199  0.6541 -0.0030  0.9399
   53CHL1   C21 6380   2.746   1.542   9.170  0.1938 -1.3712 -0.1802
   53CHL1  H21A 6381   2.816   1.534   9.085 -0.9372 -0.8597 -1.1839
   53CHL1  H21B 6382   2.808   1.594   9.247  0.3514  0.7627 -1.6715
   53CHL1  H21C 6383   2.661   1.608   9.145  1.0014 -0.8664 -1.6829
   53CHL1   C22 6384   2.610   1.337   9.098 -0.6009  1.0275  0.5179
   53CHL1  H22A 6385   2.560   1.241   9.122  1.8310 -0.5795 -0.3839
   53CHL1  H22B 6386   2.527   1.405   9.069 -2.3937 -1.2199  0.1683
   53CHL1   C23 6387   2.691   1.301   8.968  0.1437 -0.7035  0.3344
   53CHL1  H23A 6388   2.745   1.389   8.928  0.9751 -0.8547  1.1006
   53CHL1  H23B 6389   2.765   1.232   9.014  1.0476  0.5010  0.7393
   53CHL1   C24 6390   2.604   1.241   8.863  0.2678 -0.0526 -0.7368
   53CHL1  H24A 6391   2.569   1.147   8.910 -2.0630  0.9925 -0.2275
   53CHL1  H24B 6392   2.508   1.297   8.859  0.1275 -0.3619 -2.0895
   53CHL1   C25 6393   2.673   1.206   8.733  0.2026  0.7280 -0.1870
   53CHL1   H25 6394   2.705   1.290   8.669 -0.5530  0.5871 -0.7517
   53CHL1   C26 6395   2.801   1.119   8.759 -0.6831  0.0043  0.3556
   53CHL1  H26A 6396   2.884   1.168   8.704  0.4979 -2.2758 -0.0065
   53CHL1  H26B 6397   2.831   1.111   8.866  2.5333  0.9974 -0.3545
   53CHL1  H26C 6398   2.789   1.016   8.720 -0.5280  0.9086 -2.3257
   53CHL1   C27 6399   2.564   1.125   8.647  0.0970  0.7096 -0.2365
   53CHL1  H27A 6400   2.476   1.191   8.639 -1.7990 -1.2653  2.5053
   53CHL1  H27B 6401   2.601   1.102   8.545  0.0285 -2.7735  0.4040
   53CHL1  H27C 6402   2.529   1.031   8.695  1.8975 -0.8213 -1.7509
   54CHL1    C3 6403   0.853   1.979  10.122 -0.1939 -0.1856 -0.2340
   54CHL1    H3 6404   0.942   1.940  10.069 -1.9838  1.4305 -4.9622
   54CHL1    O3 6405   0.873   1.979  10.266  0.1552 -0.1692  0.3382
   54CHL1   H3' 6406   0.815   1.907  10.295  0.6455 -1.0150 -0.7014
   54CHL1    C4 6407   0.820   2.114  10.069 -0.7886  0.0595 -0.6451
   54CHL1   H4A 6408   0.730   2.149  10.124  0.2601  1.0197  0.4925
   54CHL1   H4B 6409   0.891   2.192  10.104 -1.0666 -0.3182  0.8021
   54CHL1    C5 6410   0.787   2.119   9.926 -1.4036  1.2100 -0.4649
   54CHL1    C6 6411   0.855   2.198   9.839  0.2937  0.2964  0.4850
   54CHL1    H6 6412   0.933   2.267   9.876  0.5446  0.8183 -0.9466
   54CHL1    C7 6413   0.838   2.206   9.690 -0.8853 -1.0270  0.4873
   54CHL1   H7A 6414   0.812   2.310   9.658 -0.4028 -0.8495  0.6611
   54CHL1   H7B 6415   0.932   2.183   9.634  0.0942  1.0289  1.1643
   54CHL1    C8 6416   0.724   2.116   9.630 -0.1253 -0.2302  0.1765
   54CHL1    H8 6417   0.625   2.166   9.641 -0.2692 -0.7144  1.2873
   54CHL1   C14 6418   0.766   2.093   9.484 -0.3396 -0.0258  0.0655
   54CHL1   H14 6419   0.866   2.046   9.487  0.0250  0.3389 -3.0894
   54CHL1   C15 6420   0.803   2.210   9.393  0.3269  0.7561  0.3514
   54CHL1  H15A 6421   0.718   2.282   9.398  2.8342  4.1048 -0.8117
   54CHL1  H15B 6422   0.897   2.258   9.427  0.6154 -0.7104  1.7313
   54CHL1   C16 6423   0.813   2.145   9.256  0.4227 -0.3341  0.2367
   54CHL1  H16A 6424   0.758   2.204   9.180  0.3533 -1.2438 -0.4313
   54CHL1  H16B 6425   0.908   2.130   9.200 -2.2966 -2.0598 -4.4105
   54CHL1   C17 6426   0.740   2.004   9.272  0.3776 -0.2382 -0.0107
   54CHL1   H17 6427   0.821   1.930   9.291 -0.0847 -0.3394  1.7530
   54CHL1   C13 6428   0.673   2.002   9.412  0.0779  0.3665  0.3139
   54CHL1   C18 6429   0.532   2.064   9.398 -0.3118  0.4399 -0.4443
   54CHL1  H18A 6430   0.466   2.004   9.331 -0.5521 -0.4055  0.5265
   54CHL1  H18B 6431   0.477   2.068   9.494 -0.5106 -1.7292 -0.4090
   54CHL1  H18C 6432   0.527   2.163   9.348 -2.6769  0.5480 -0.0917
   54CHL1   C12 6433   0.670   1.861   9.493 -0.1997  1.1118 -0.5195
   54CHL1  H12A 6434   0.594   1.792   9.451 -1.9031  1.4067  1.8602
   54CHL1  H12B 6435   0.771   1.815   9.488 -0.4409  0.6179 -0.8667
   54CHL1   C11 6436   0.632   1.889   9.639 -1.0502 -0.9002 -0.2609
   54CHL1  H11A 6437   0.534   1.941   9.636  0.8966  3.1407 -0.9564
   54CHL1  H11B 6438   0.619   1.796   9.698 -1.8234  0.4740  1.8361
   54CHL1    C9 6439   0.723   1.984   9.717 -0.5650 -0.3011  0.5615
   54CHL1    H9 6440   0.829   1.951   9.716  0.0637  1.5529 -0.6634
   54CHL1   C10 6441   0.694   2.009   9.873  0.2148 -0.4509 -0.0652
   54CHL1   C19 6442   0.540   2.042   9.891 -0.1630  0.1087 -0.3282
   54CHL1  H19A 6443   0.474   1.956   9.865 -3.4889  3.1119 -2.8202
   54CHL1  H19B 6444   0.525   2.062   9.999  0.4934  2.0424 -0.5536
   54CHL1  H19C 6445   0.510   2.137   9.841 -0.3610  0.9543  1.3312
   54CHL1    C1 6446   0.716   1.878   9.942  0.5059  0.3119 -0.7807
   54CHL1   H1A 6447   0.642   1.801   9.911  2.8380 -2.9260  1.1342
   54CHL1   H1B 6448   0.817   1.835   9.930  1.0485  0.5432  2.3177
   54CHL1    C2 6449   0.727   1.887  10.087  0.7821  0.6087  0.1767
   54CHL1   H2A 6450   0.747   1.787  10.132  0.7753  0.8939  0.8334
   54CHL1   H2B 6451   0.631   1.921  10.131 -1.0081  0.4365 -3.2521
   54CHL1   C20 6452   0.674   1.960   9.145  1.0256 -0.7631  0.9333
   54CHL1   H20 6453   0.588   2.030   9.131  2.0595  0.6086  1.2458
   54CHL1   C21 6454   0.614   1.814   9.162  0.3217 -0.6159 -0.5650
   54CHL1  H21A 6455   0.691   1.739   9.188 -0.2238 -0.6317  1.0986
   54CHL1  H21B 6456   0.564   1.766   9.075 -0.4207  1.5782 -1.4315
   54CHL1  H21C 6457   0.539   1.817   9.244 -2.1563 -0.0391 -2.7200
   54CHL1   C22 6458   0.745   1.976   9.008 -0.3306  0.8888  0.4483
   54CHL1  H22A 6459   0.670   1.926   8.943  0.5812  1.1703 -0.8607
   54CHL1  H22B 6460   0.742   2.078   8.964  1.0142 -0.0708 -2.0743
   54CHL1   C23 6461   0.879   1.914   8.989  0.2894  0.0120 -0.7955
   54CHL1  H23A 6462   0.959   1.983   9.021  1.6286 -2.2343  0.9875
   54CHL1  H23B 6463   0.884   1.829   9.061  0.0379  2.1636  1.9153
   54CHL1   C24 6464   0.921   1.863   8.851  0.4566  0.5674  0.4025
   54CHL1  H24A 6465   0.911   1.942   8.773  0.9013  1.2698  1.0555
   54CHL1  H24B 6466   1.027   1.834   8.840 -0.2653 -1.3687 -3.2037
   54CHL1   C25 6467   0.834   1.742   8.801 -0.5323  0.4734 -0.0333
   54CHL1   H25 6468   0.732   1.758   8.841 -1.0213  3.2037 -2.1607
   54CHL1   C26 6469   0.813   1.736   8.648 -0.0790  0.4531 -0.0358
   54CHL1  H26A 6470   0.781   1.837   8.613 -0.0700 -0.0115 -1.4410
   54CHL1  H26B 6471   0.904   1.713   8.589 -0.4439  1.1895 -0.9225
   54CHL1  H26C 6472   0.747   1.651   8.621  0.7052  0.2499 -1.3913
   54CHL1   C27 6473   0.903   1.612   8.839 -0.7106  0.4725  0.2389
   54CHL1  H27A 6474   0.889   1.590   8.947 -0.0323  2.7632  0.8447
   54CHL1  H27B 6475   0.856   1.528   8.783  3.7497 -1.1455 -1.5831
   54CHL1  H27C 6476   1.013   1.605   8.820 -0.9157  1.0553 -1.3130
   55CHL1    C3 6477   3.023   6.004  10.000 -0.4533  0.2376  0.9527
   55CHL1    H3 6478   2.916   5.975  10.003 -0.1234 -1.4314 -0.8657
   55CHL1    O3 6479   3.086   6.014  10.122  0.2653  0.0515  0.0174
   55CHL1   H3' 6480   3.172   6.054  10.107  0.6531 -1.1811 -1.3226
   55CHL1    C4 6481   3.100   5.898   9.917 -0.4200 -0.1283  0.2679
   55CHL1   H4A 6482   3.203   5.940   9.910  0.2476 -1.6009  0.8809
   55CHL1   H4B 6483   3.117   5.806   9.976  1.0164 -1.7809 -2.4785
   55CHL1    C5 6484   3.055   5.889   9.775  0.6161  0.3426  0.4894
   55CHL1    C6 6485   3.018   5.768   9.728  0.4426  0.1340  0.1310
   55CHL1    H6 6486   3.038   5.681   9.791 -0.0499 -0.9972 -1.2259
   55CHL1    C7 6487   2.976   5.735   9.589  0.3670 -0.1715  0.3830
   55CHL1   H7A 6488   3.032   5.650   9.543 -1.6388 -1.0076 -0.6439
   55CHL1   H7B 6489   2.872   5.698   9.592 -0.4487  1.9075 -0.6778
   55CHL1    C8 6490   2.976   5.865   9.488  0.1497  0.1783  0.0529
   55CHL1    H8 6491   3.082   5.859   9.456  0.5729 -2.1362  1.6202
   55CHL1   C14 6492   2.880   5.834   9.372  0.4061  0.2446 -0.7168
   55CHL1   H14 6493   2.778   5.831   9.416  1.5638  0.5364  2.2208
   55CHL1   C15 6494   2.886   5.696   9.305  0.2531 -0.4308  0.0362
   55CHL1  H15A 6495   2.988   5.658   9.283  0.4000 -0.2304  0.3632
   55CHL1  H15B 6496   2.826   5.621   9.362 -1.3657 -0.1944 -1.2890
   55CHL1   C16 6497   2.823   5.721   9.169  0.1315  0.3214 -0.5674
   55CHL1  H16A 6498   2.890   5.701   9.082 -2.2291 -2.1067 -1.9824
   55CHL1  H16B 6499   2.732   5.661   9.148 -2.0661  2.7139  1.4359
   55CHL1   C17 6500   2.785   5.875   9.167 -0.1634 -0.0938  0.2607
   55CHL1   H17 6501   2.684   5.897   9.207 -1.0685  2.9001 -3.1762
   55CHL1   C13 6502   2.882   5.940   9.265  0.6229 -0.6098  0.6703
   55CHL1   C18 6503   3.018   5.953   9.199 -1.0594  0.3939 -0.3058
   55CHL1  H18A 6504   3.017   6.005   9.101 -0.2230 -0.4350 -0.7653
   55CHL1  H18B 6505   3.093   5.993   9.271 -0.8227 -0.3792 -0.1145
   55CHL1  H18C 6506   3.067   5.854   9.185  2.3013  1.9085 -0.2769
   55CHL1   C12 6507   2.837   6.074   9.332 -0.9083  0.2175 -0.1016
   55CHL1  H12A 6508   2.848   6.156   9.258 -0.6484 -1.3926 -1.9087
   55CHL1  H12B 6509   2.735   6.081   9.376 -0.8589 -0.4581  0.1333
   55CHL1   C11 6510   2.935   6.109   9.450 -0.2986  0.3777 -0.9217
   55CHL1  H11A 6511   3.029   6.150   9.409  0.1577 -1.5072 -1.8893
   55CHL1  H11B 6512   2.875   6.187   9.502  0.6957 -0.1570  1.1289
   55CHL1    C9 6513   2.948   5.992   9.555 -0.4100 -0.2808 -0.0120
   55CHL1    H9 6514   2.847   5.987   9.602  0.2974  3.1704  2.2664
   55CHL1   C10 6515   3.026   6.018   9.684 -0.4183  0.0124 -0.1120
   55CHL1   C19 6516   3.165   6.077   9.640 -0.3472 -0.6251  0.2628
   55CHL1  H19A 6517   3.154   6.173   9.584  2.3442 -1.1965 -1.4656
   55CHL1  H19B 6518   3.233   6.094   9.726 -0.2511  1.8354 -0.2049
   55CHL1  H19C 6519   3.208   6.007   9.565 -0.9427  0.0827 -0.7652
   55CHL1    C1 6520   2.957   6.126   9.776 -0.5897  1.3885  0.1497
   55CHL1   H1A 6521   2.959   6.229   9.735  0.9956  0.8771 -1.1694
   55CHL1   H1B 6522   2.853   6.091   9.796  0.0844 -1.4807 -0.9099
   55CHL1    C2 6523   3.020   6.140   9.919  0.5236 -0.3337  0.0910
   55CHL1   H2A 6524   2.964   6.214   9.980 -0.6161  0.3501 -1.6734
   55CHL1   H2B 6525   3.126   6.173   9.923  0.2794  0.3017  2.0113
   55CHL1   C20 6526   2.784   5.921   9.021  0.0436 -0.0674  0.3014
   55CHL1   H20 6527   2.878   5.898   8.966  0.0180  0.8430 -0.1432
   55CHL1   C21 6528   2.748   6.074   9.008 -0.2708  0.3856  0.4922
   55CHL1  H21A 6529   2.726   6.107   8.904  0.5142 -3.0598 -0.9233
   55CHL1  H21B 6530   2.825   6.134   9.061 -0.4802 -0.6082  1.9935
   55CHL1  H21C 6531   2.653   6.093   9.062 -1.4544  2.5048 -2.1072
   55CHL1   C22 6532   2.686   5.837   8.927 -0.3700 -0.1577 -0.3840
   55CHL1  H22A 6533   2.695   5.888   8.829 -2.1220  0.5269 -0.2255
   55CHL1  H22B 6534   2.711   5.729   8.917  0.3002 -0.1825  1.1840
   55CHL1   C23 6535   2.535   5.852   8.955  1.0716 -0.3030 -0.3535
   55CHL1  H23A 6536   2.509   5.787   9.041 -1.3001  1.9349  0.7850
   55CHL1  H23B 6537   2.510   5.950   9.003  0.8335 -0.2074 -0.6680
   55CHL1   C24 6538   2.438   5.819   8.841 -0.0992  0.1468  0.0038
   55CHL1  H24A 6539   2.448   5.874   8.745  1.7433 -1.8147 -0.9956
   55CHL1  H24B 6540   2.450   5.716   8.802  0.5487 -0.1871  1.0363
   55CHL1   C25 6541   2.285   5.852   8.871  0.2711  0.6402 -0.2816
   55CHL1   H25 6542   2.276   5.937   8.942 -0.7108  0.8971 -0.6865
   55CHL1   C26 6543   2.208   5.908   8.756  0.0155  0.6201  0.0939
   55CHL1  H26A 6544   2.183   5.824   8.687 -0.0936  0.1422  0.7015
   55CHL1  H26B 6545   2.107   5.936   8.794  0.0395 -1.1565  1.6637
   55CHL1  H26C 6546   2.269   5.990   8.713 -0.2167  0.5599 -0.3558
   55CHL1   C27 6547   2.214   5.736   8.941 -0.1024  0.4164 -0.3845
   55CHL1  H27A 6548   2.257   5.707   9.040  0.1634  1.3573 -0.2196
   55CHL1  H27B 6549   2.106   5.761   8.948 -0.4857 -0.6447 -1.9542
   55CHL1  H27C 6550   2.220   5.641   8.883  0.2210  0.5564 -0.5827
   56CHL1    C3 6551   6.242   2.715  10.243  0.1275 -0.1555 -0.4212
   56CHL1    H3 6552   6.168   2.798  10.250 -1.1084 -1.3418  1.4404
   56CHL1    O3 6553   6.269   2.662  10.369  0.4450 -0.0379 -0.0882
   56CHL1   H3' 6554   6.286   2.569  10.359  3.4762  0.4537 -0.4165
   56CHL1    C4 6555   6.181   2.616  10.142 -0.6683 -0.6878  0.3607
   56CHL1   H4A 6556   6.236   2.520  10.128  1.3767  0.8181 -3.4148
   56CHL1   H4B 6557   6.085   2.598  10.195 -0.1562 -0.1950  1.4754
   56CHL1    C5 6558   6.171   2.682  10.005  0.5848 -0.9230  0.0603
   56CHL1    C6 6559   6.047   2.697   9.950 -0.0769  0.2114  0.3679
   56CHL1    H6 6560   5.959   2.670  10.011 -0.2869 -1.4735 -0.6118
   56CHL1    C7 6561   6.028   2.755   9.816  0.0049 -0.6524  0.8357
   56CHL1   H7A 6562   5.950   2.698   9.761  0.2287 -0.3370  0.1850
   56CHL1   H7B 6563   5.999   2.862   9.825  0.9376 -0.2972 -0.1157
   56CHL1    C8 6564   6.163   2.767   9.738 -0.0290 -0.3193 -0.0600
   56CHL1    H8 6565   6.183   2.659   9.720 -0.1497 -0.0832 -1.8642
   56CHL1   C14 6566   6.150   2.845   9.605  0.2217  0.2870  0.5329
   56CHL1   H14 6567   6.122   2.949   9.636 -2.0105 -0.4243  1.0929
   56CHL1   C15 6568   6.049   2.801   9.498  0.7984  0.0749 -0.0851
   56CHL1  H15A 6569   6.073   2.693   9.486 -0.0308  0.1479 -3.3598
   56CHL1  H15B 6570   5.948   2.819   9.539  0.8684  1.5103 -0.5162
   56CHL1   C16 6571   6.082   2.882   9.376 -0.1796  0.3717 -0.3426
   56CHL1  H16A 6572   6.073   2.812   9.291 -0.8950  2.4614 -2.0549
   56CHL1  H16B 6573   6.004   2.961   9.368 -0.5357  0.0928  0.2542
   56CHL1   C17 6574   6.223   2.934   9.406  0.3208  0.0832 -0.0657
   56CHL1   H17 6575   6.222   3.039   9.444  4.7219  0.1419  0.4333
   56CHL1   C13 6576   6.278   2.859   9.526  0.0083 -0.1829 -0.3560
   56CHL1   C18 6577   6.343   2.726   9.478 -0.2390  0.3678  0.0907
   56CHL1  H18A 6578   6.341   2.652   9.560 -0.5287 -1.8190 -1.8096
   56CHL1  H18B 6579   6.285   2.681   9.394  1.3519 -2.1289  0.2459
   56CHL1  H18C 6580   6.450   2.743   9.455 -0.0811 -0.3660  0.2710
   56CHL1   C12 6581   6.385   2.934   9.614 -0.4251  0.1082 -0.3984
   56CHL1  H12A 6582   6.481   2.943   9.559  0.1519  2.0778  0.8109
   56CHL1  H12B 6583   6.345   3.035   9.639 -2.9786 -0.8204 -0.4629
   56CHL1   C11 6584   6.405   2.862   9.745  0.3042  0.1346 -0.4781
   56CHL1  H11A 6585   6.469   2.774   9.721  2.7864  1.2627  1.5698
   56CHL1  H11B 6586   6.457   2.940   9.805 -0.5818  0.6270 -0.3359
   56CHL1    C9 6587   6.275   2.829   9.821 -0.3957 -0.6027  0.1813
   56CHL1    H9 6588   6.240   2.928   9.859 -2.0396 -1.0423 -0.1282
   56CHL1   C10 6589   6.300   2.733   9.942  0.5524  0.6565  0.1061
   56CHL1   C19 6590   6.379   2.605   9.908  0.1583 -0.0865 -0.1159
   56CHL1  H19A 6591   6.335   2.549   9.823 -4.3049  1.5773  0.8333
   56CHL1  H19B 6592   6.484   2.637   9.888  0.4706  0.6946  2.3911
   56CHL1  H19C 6593   6.386   2.535   9.994  1.6290  1.3418  1.0147
   56CHL1    C1 6594   6.377   2.813  10.053 -0.4889 -0.6310  0.2050
   56CHL1   H1A 6595   6.479   2.841  10.019 -0.0929  2.7934  3.5526
   56CHL1   H1B 6596   6.329   2.912  10.063  0.4019 -0.3557  2.1654
   56CHL1    C2 6597   6.380   2.758  10.189 -0.7010  0.1188  0.0385
   56CHL1   H2A 6598   6.413   2.837  10.260  2.2970  0.1123 -1.2212
   56CHL1   H2B 6599   6.450   2.672  10.196 -0.9083 -0.0020  0.7033
   56CHL1   C20 6600   6.309   2.942   9.276  0.3330 -1.5709 -0.0552
   56CHL1   H20 6601   6.367   2.853   9.245  4.0733 -0.0145  1.8624
   56CHL1   C21 6602   6.405   3.064   9.292  0.0252 -0.0019 -0.6369
   56CHL1  H21A 6603   6.463   3.051   9.386  1.0666  4.4453 -0.4433
   56CHL1  H21B 6604   6.358   3.163   9.306  0.8609  0.3145  0.0222
   56CHL1  H21C 6605   6.485   3.069   9.215  2.9741 -1.1192  2.1178
   56CHL1   C22 6606   6.220   2.965   9.154 -0.0126 -0.4970  0.1932
   56CHL1  H22A 6607   6.149   2.881   9.137  0.5185 -0.9024 -0.0351
   56CHL1  H22B 6608   6.159   3.058   9.162  0.9041  0.1009  0.4028
   56CHL1   C23 6609   6.301   2.969   9.025 -0.0199  0.4212  0.3274
   56CHL1  H23A 6610   6.367   3.059   9.021 -2.2182  2.0647 -2.3135
   56CHL1  H23B 6611   6.374   2.885   9.024  1.2116  1.4577 -1.1558
   56CHL1   C24 6612   6.209   2.987   8.905  0.1770 -0.0576 -0.1628
   56CHL1  H24A 6613   6.126   2.914   8.913 -1.1534  1.5560  1.6908
   56CHL1  H24B 6614   6.165   3.087   8.929  0.3939 -0.1735  0.7538
   56CHL1   C25 6615   6.281   2.994   8.761  0.5345  0.0320  0.1079
   56CHL1   H25 6616   6.376   3.050   8.774  0.4017  0.3173 -0.1625
   56CHL1   C26 6617   6.319   2.856   8.718 -0.3435  0.0499  0.2465
   56CHL1  H26A 6618   6.233   2.786   8.714  0.1756 -0.5560 -0.8318
   56CHL1  H26B 6619   6.369   2.859   8.619  1.9341 -1.9930  1.2253
   56CHL1  H26C 6620   6.402   2.815   8.779  0.9478  0.2672 -1.2871
   56CHL1   C27 6621   6.191   3.064   8.664 -0.2180 -0.2379  0.6696
   56CHL1  H27A 6622   6.167   3.169   8.690 -0.2212  0.4863 -2.0148
   56CHL1  H27B 6623   6.252   3.071   8.572 -0.7343 -1.0317  0.2568
   56CHL1  H27C 6624   6.097   3.009   8.642  0.4295 -0.3864 -2.1075
   57CHL1    C3 6625   3.659   0.561  10.014  0.5599  0.2215 -0.0262
   57CHL1    H3 6626   3.638   0.452  10.008 -4.5044  0.9260  0.1142
   57CHL1    O3 6627   3.687   0.595  10.148  0.6001 -0.1259  0.2967
   57CHL1   H3' 6628   3.633   0.539  10.203 -0.4221 -1.4343 -1.9201
   57CHL1    C4 6629   3.782   0.587   9.921  0.0715 -0.3910  1.4383
   57CHL1   H4A 6630   3.821   0.688   9.946  0.3276 -0.1195  0.0172
   57CHL1   H4B 6631   3.866   0.521   9.953 -0.4520 -2.6211 -1.3725
   57CHL1    C5 6632   3.732   0.567   9.773  0.1088  0.4112  0.0935
   57CHL1    C6 6633   3.799   0.474   9.702  0.1060  0.1426 -0.1767
   57CHL1    H6 6634   3.879   0.419   9.755 -1.4777 -0.5545  1.6241
   57CHL1    C7 6635   3.766   0.426   9.567 -0.4641  0.7111  0.3436
   57CHL1   H7A 6636   3.854   0.400   9.505 -0.3221  1.2611  0.3035
   57CHL1   H7B 6637   3.717   0.328   9.585  1.1998  0.2763  3.1816
   57CHL1    C8 6638   3.672   0.519   9.488  0.0275  0.0066 -0.0806
   57CHL1    H8 6639   3.728   0.607   9.451 -0.2292  0.5767  0.8540
   57CHL1   C14 6640   3.597   0.444   9.379 -0.1328 -0.3481  0.2612
   57CHL1   H14 6641   3.538   0.366   9.430  0.8006 -1.6392 -0.5818
   57CHL1   C15 6642   3.681   0.369   9.270  0.0501 -0.0539 -1.0778
   57CHL1  H15A 6643   3.772   0.428   9.247  0.6911 -1.2456 -1.6918
   57CHL1  H15B 6644   3.705   0.270   9.313 -2.6034 -0.5419 -0.5478
   57CHL1   C16 6645   3.589   0.369   9.146 -0.7676 -0.2287  0.4829
   57CHL1  H16A 6646   3.626   0.441   9.070  0.1005 -0.3564  0.7745
   57CHL1  H16B 6647   3.594   0.277   9.084  0.1598  2.4902 -3.8931
   57CHL1   C17 6648   3.452   0.412   9.192  0.4538  1.0737  0.1908
   57CHL1   H17 6649   3.402   0.326   9.240  1.7792 -0.4302 -1.0183
   57CHL1   C13 6650   3.490   0.526   9.298  0.1919  0.7071 -0.3086
   57CHL1   C18 6651   3.554   0.645   9.222  0.9934 -0.9548  0.0434
   57CHL1  H18A 6652   3.647   0.619   9.167  1.6550 -0.6562  1.0051
   57CHL1  H18B 6653   3.479   0.694   9.156 -0.2013 -2.7167  0.0277
   57CHL1  H18C 6654   3.583   0.721   9.297 -0.8319  1.1941 -1.2932
   57CHL1   C12 6655   3.384   0.563   9.401 -0.0566 -0.5223 -0.3373
   57CHL1  H12A 6656   3.324   0.640   9.347 -0.1746  0.0034  0.5195
   57CHL1  H12B 6657   3.332   0.475   9.444  1.7860 -1.8728 -0.7932
   57CHL1   C11 6658   3.450   0.643   9.515  0.0536  0.1215 -0.2389
   57CHL1  H11A 6659   3.496   0.740   9.485  0.2522  0.6360  1.6087
   57CHL1  H11B 6660   3.372   0.671   9.588  1.5667  3.7844  0.1927
   57CHL1    C9 6661   3.565   0.569   9.588 -0.3886  0.1171  0.2235
   57CHL1    H9 6662   3.511   0.477   9.619 -0.8924  0.3214 -0.0262
   57CHL1   C10 6663   3.612   0.634   9.718  0.1501  0.0980  0.2524
   57CHL1   C19 6664   3.649   0.783   9.693 -0.3322 -0.0134  0.1949
   57CHL1  H19A 6665   3.686   0.828   9.788 -0.1687  0.0386  0.1051
   57CHL1  H19B 6666   3.734   0.789   9.622 -0.4918 -0.8069 -0.0736
   57CHL1  H19C 6667   3.566   0.847   9.658  0.5276  2.6733  2.6314
   57CHL1    C1 6668   3.493   0.630   9.822 -0.1631 -0.4606  0.9545
   57CHL1   H1A 6669   3.419   0.708   9.794 -1.9621 -1.8547  1.6610
   57CHL1   H1B 6670   3.440   0.533   9.823 -2.0540  0.3697 -2.8704
   57CHL1    C2 6671   3.543   0.639   9.963 -0.2918 -0.0268  0.3517
   57CHL1   H2A 6672   3.455   0.637  10.031 -2.6649 -0.1745 -2.5376
   57CHL1   H2B 6673   3.585   0.742   9.975 -0.4025 -0.0966  1.4639
   57CHL1   C20 6674   3.351   0.446   9.078 -0.3327 -0.1963  0.4018
   57CHL1   H20 6675   3.392   0.542   9.040 -0.5885 -0.4987 -0.6627
   57CHL1   C21 6676   3.210   0.477   9.128  1.1191  0.0525 -0.3225
   57CHL1  H21A 6677   3.167   0.563   9.071  0.2355  1.1239  1.8533
   57CHL1  H21B 6678   3.213   0.489   9.238 -0.9947 -0.6879 -0.1303
   57CHL1  H21C 6679   3.137   0.394   9.112  0.6302  0.4162 -0.0183
   57CHL1   C22 6680   3.346   0.342   8.959 -0.7419 -0.2079  0.3669
   57CHL1  H22A 6681   3.446   0.330   8.911 -0.4176 -1.4711  1.3047
   57CHL1  H22B 6682   3.310   0.241   8.988 -1.0862 -0.2138 -0.0655
   57CHL1   C23 6683   3.252   0.392   8.843 -0.7224 -0.0836 -0.2805
   57CHL1  H23A 6684   3.145   0.384   8.873 -0.9767 -0.5843 -1.3007
   57CHL1  H23B 6685   3.276   0.496   8.811  1.1744 -0.1007  0.9209
   57CHL1   C24 6686   3.263   0.304   8.719 -0.0100 -0.1418 -0.4796
   57CHL1  H24A 6687   3.205   0.214   8.748  0.0714  0.1311  0.5630
   57CHL1  H24B 6688   3.206   0.360   8.642 -1.7708 -2.7068 -1.1706
   57CHL1   C25 6689   3.401   0.268   8.668 -0.2491 -0.1242  0.7099
   57CHL1   H25 6690   3.458   0.214   8.747 -0.3225  0.9924  1.5595
   57CHL1   C26 6691   3.403   0.169   8.554 -0.1647  0.1578  1.4000
   57CHL1  H26A 6692   3.376   0.221   8.459  2.8719  0.1847  0.4309
   57CHL1  H26B 6693   3.501   0.120   8.537 -0.0695  1.1625 -1.5318
   57CHL1  H26C 6694   3.333   0.085   8.570  0.3718 -0.5365  0.1781
   57CHL1   C27 6695   3.489   0.391   8.627 -0.8152  0.7773 -0.2016
   57CHL1  H27A 6696   3.520   0.454   8.713  0.0366  0.3167 -0.1491
   57CHL1  H27B 6697   3.577   0.352   8.571  0.5803 -0.3688  2.5553
   57CHL1  H27C 6698   3.421   0.460   8.573 -0.6603  0.9050 -0.2330
   58CHL1    C3 6699   4.994   5.875   9.900 -0.1832  0.0971 -0.0061
   58CHL1    H3 6700   5.088   5.835   9.857 -0.2916  1.0034 -1.1247
   58CHL1    O3 6701   4.966   5.831  10.033  0.5192  0.3170  0.1463
   58CHL1   H3' 6702   4.873   5.811  10.027  0.8394 -0.7976 -2.6289
   58CHL1    C4 6703   5.009   6.026   9.895 -0.2946 -0.3239  0.8076
   58CHL1   H4A 6704   4.918   6.074   9.936 -1.4229 -0.7412 -1.1165
   58CHL1   H4B 6705   5.093   6.054   9.963  0.7234 -2.7066  0.6348
   58CHL1    C5 6706   5.044   6.074   9.748  0.3857 -0.2427 -0.7490
   58CHL1    C6 6707   5.157   6.143   9.719 -1.0197  0.5234  0.2295
   58CHL1    H6 6708   5.220   6.160   9.808  0.8156 -0.0605 -0.8887
   58CHL1    C7 6709   5.192   6.186   9.575 -0.3022 -0.3536 -0.5187
   58CHL1   H7A 6710   5.212   6.295   9.580 -0.2520 -0.2941 -1.8272
   58CHL1   H7B 6711   5.282   6.132   9.538  0.5648  0.8397 -0.1943
   58CHL1    C8 6712   5.073   6.176   9.478  0.1804 -0.3827 -0.9658
   58CHL1    H8 6713   4.999   6.253   9.508  0.5143 -0.5201  0.3076
   58CHL1   C14 6714   5.123   6.186   9.340  0.0729 -0.6968 -0.2555
   58CHL1   H14 6715   5.183   6.095   9.315 -1.2512 -1.9118  0.8218
   58CHL1   C15 6716   5.207   6.308   9.300 -0.4449  0.1763 -0.6847
   58CHL1  H15A 6717   5.174   6.392   9.364  2.1782 -0.9658  2.4728
   58CHL1  H15B 6718   5.315   6.301   9.325 -0.5654  1.7580  0.4371
   58CHL1   C16 6719   5.189   6.318   9.151  0.1085 -0.5648  0.4237
   58CHL1  H16A 6720   5.154   6.420   9.128 -0.6833 -0.8663  0.2515
   58CHL1  H16B 6721   5.280   6.290   9.093  1.0290  0.9314  1.0853
   58CHL1   C17 6722   5.085   6.215   9.108  0.0815  0.8020  0.4468
   58CHL1   H17 6723   5.145   6.121   9.099  0.8669  1.3759 -0.5632
   58CHL1   C13 6724   5.009   6.187   9.236 -0.2112  0.1003  0.5384
   58CHL1   C18 6725   4.901   6.303   9.263  0.3135  0.0317  0.4320
   58CHL1  H18A 6726   4.936   6.404   9.231  0.7677  0.6391  2.6671
   58CHL1  H18B 6727   4.825   6.280   9.186  2.1617 -1.2518 -1.1313
   58CHL1  H18C 6728   4.864   6.300   9.367  0.4422  1.8738  0.5745
   58CHL1   C12 6729   4.940   6.051   9.242  0.3506 -0.2784 -0.4613
   58CHL1  H12A 6730   4.843   6.049   9.189  0.6553 -0.7364 -1.0085
   58CHL1  H12B 6731   5.016   5.976   9.211  0.9863 -0.2282  0.8721
   58CHL1   C11 6732   4.899   6.017   9.394 -0.1091  0.0472  0.0748
   58CHL1  H11A 6733   4.803   6.072   9.403 -0.6689 -0.7467 -0.8953
   58CHL1  H11B 6734   4.875   5.909   9.385  2.1080 -0.6127  1.3101
   58CHL1    C9 6735   5.004   6.042   9.502  0.0765  0.3410  0.9737
   58CHL1    H9 6736   5.087   5.968   9.490  0.2140  0.6213  0.1146
   58CHL1   C10 6737   4.941   6.023   9.644 -0.8444  0.2492  0.0592
   58CHL1   C19 6738   4.822   6.112   9.670 -0.3958 -0.4281 -0.2091
   58CHL1  H19A 6739   4.745   6.109   9.590 -0.6592 -2.1154  0.0695
   58CHL1  H19B 6740   4.768   6.091   9.765 -2.3243  2.2686 -0.5768
   58CHL1  H19C 6741   4.856   6.218   9.676  1.5684 -1.0339 -0.2558
   58CHL1    C1 6742   4.897   5.875   9.665 -0.3634 -0.2892 -0.2976
   58CHL1   H1A 6743   4.808   5.852   9.601  1.1559 -2.2199 -1.8387
   58CHL1   H1B 6744   4.979   5.820   9.615 -0.4846 -0.0190 -0.8006
   58CHL1    C2 6745   4.871   5.840   9.811  0.3165  0.1850  0.1276
   58CHL1   H2A 6746   4.841   5.733   9.823  1.9685 -0.1729  1.4034
   58CHL1   H2B 6747   4.792   5.896   9.867  1.2162  0.7752  0.8359
   58CHL1   C20 6748   5.001   6.234   8.980  0.0806  1.1624  0.1502
   58CHL1   H20 6749   4.899   6.273   9.003 -0.5913 -0.0879 -0.5976
   58CHL1   C21 6750   4.981   6.095   8.914  0.1702 -0.1231  0.2003
   58CHL1  H21A 6751   4.924   6.096   8.818 -0.3976  2.0607  0.5058
   58CHL1  H21B 6752   4.940   6.019   8.983  0.4777 -0.9905 -0.5516
   58CHL1  H21C 6753   5.085   6.061   8.892  1.0652  0.8246  2.6891
   58CHL1   C22 6754   5.061   6.337   8.878  0.1426 -0.3303 -0.2455
   58CHL1  H22A 6755   5.088   6.434   8.925  1.5831 -0.3610 -0.9572
   58CHL1  H22B 6756   5.160   6.294   8.850  0.8358  1.2069 -0.2716
   58CHL1   C23 6757   4.985   6.356   8.750  0.7597  0.2744 -0.2820
   58CHL1  H23A 6758   4.959   6.260   8.699 -1.0164  0.4906  0.1621
   58CHL1  H23B 6759   4.888   6.402   8.776 -0.3586 -1.8454 -0.4302
   58CHL1   C24 6760   5.051   6.442   8.645  0.1464 -0.2714  0.2427
   58CHL1  H24A 6761   5.071   6.534   8.705 -1.5462 -0.0959  0.5723
   58CHL1  H24B 6762   5.155   6.411   8.622  0.0305 -0.2060 -0.3973
   58CHL1   C25 6763   4.975   6.460   8.515  0.6468 -0.9125  0.5753
   58CHL1   H25 6764   4.944   6.362   8.473  1.1668 -0.8721  0.0887
   58CHL1   C26 6765   4.849   6.542   8.534  0.4540 -0.2547 -0.1263
   58CHL1  H26A 6766   4.771   6.484   8.587  1.5213  0.1680  1.9951
   58CHL1  H26B 6767   4.885   6.637   8.579  0.5165  0.7227 -2.1368
   58CHL1  H26C 6768   4.808   6.571   8.435 -0.1441 -2.3108 -0.5425
   58CHL1   C27 6769   5.058   6.537   8.404  0.6387 -0.2875 -0.5926
   58CHL1  H27A 6770   5.075   6.639   8.445 -1.7300  0.7714 -1.9927
   58CHL1  H27B 6771   5.158   6.501   8.374  1.6217  0.3908  1.6383
   58CHL1  H27C 6772   4.998   6.558   8.313 -0.3921  0.9499  0.3357
   59CHL1    C3 6773   5.801   4.687  10.212  0.2539 -0.0731 -0.5213
   59CHL1    H3 6774   5.797   4.798  10.209  1.5914  0.0026 -0.2068
   59CHL1    O3 6775   5.827   4.653  10.344  0.6617  0.1629  0.0872
   59CHL1   H3' 6776   5.837   4.559  10.331 -1.1955  0.0532 -0.9077
   59CHL1    C4 6777   5.666   4.621  10.160  0.7049 -0.0642 -0.1624
   59CHL1   H4A 6778   5.678   4.511  10.173  0.7066 -0.3055 -1.8925
   59CHL1   H4B 6779   5.584   4.649  10.228  0.6131 -0.0161 -0.2920
   59CHL1    C5 6780   5.645   4.662  10.020 -0.7740 -0.2494  0.6413
   59CHL1    C6 6781   5.537   4.723   9.973 -0.5620  0.1119  0.6234
   59CHL1    H6 6782   5.456   4.737  10.045 -0.1865  1.8294  0.7556
   59CHL1    C7 6783   5.514   4.751   9.827  0.1484 -1.3371 -0.1865
   59CHL1   H7A 6784   5.412   4.716   9.804 -0.8123  0.8822  0.3958
   59CHL1   H7B 6785   5.520   4.859   9.804  0.1143 -1.2533  0.1842
   59CHL1    C8 6786   5.615   4.670   9.738  0.3345 -0.8115  0.2958
   59CHL1    H8 6787   5.591   4.562   9.742  1.4640 -1.0672  0.4661
   59CHL1   C14 6788   5.594   4.730   9.598 -0.2728 -0.1161  0.3541
   59CHL1   H14 6789   5.615   4.839   9.602  0.9082 -0.3384  0.7014
   59CHL1   C15 6790   5.444   4.733   9.541 -1.0768  0.9379  0.2304
   59CHL1  H15A 6791   5.387   4.637   9.545 -1.0196  0.9377  1.2412
   59CHL1  H15B 6792   5.393   4.815   9.595  2.0414  1.5382  2.5545
   59CHL1   C16 6793   5.479   4.762   9.386  0.6763  1.1308 -0.1959
   59CHL1  H16A 6794   5.413   4.702   9.320 -1.5175  1.1135  1.8696
   59CHL1  H16B 6795   5.439   4.864   9.369 -1.8514  0.1549 -0.4240
   59CHL1   C17 6796   5.633   4.757   9.366  0.0136 -0.5541  0.0587
   59CHL1   H17 6797   5.674   4.861   9.368 -1.8033  0.2590 -1.4718
   59CHL1   C13 6798   5.683   4.676   9.487 -0.0713 -0.3166 -0.3269
   59CHL1   C18 6799   5.656   4.526   9.480 -0.4006  0.0587  0.4898
   59CHL1  H18A 6800   5.744   4.487   9.423  2.0969  1.5980  3.0038
   59CHL1  H18B 6801   5.661   4.481   9.582  1.9400  2.5417  1.6070
   59CHL1  H18C 6802   5.558   4.511   9.432  0.5790 -0.1580 -1.5355
   59CHL1   C12 6803   5.828   4.700   9.530 -0.6329  0.0396  0.1378
   59CHL1  H12A 6804   5.900   4.647   9.463 -1.9948 -2.7132  0.7425
   59CHL1  H12B 6805   5.848   4.808   9.516  2.1472 -0.4940 -0.7317
   59CHL1   C11 6806   5.857   4.669   9.679  0.3346 -0.5165 -0.4967
   59CHL1  H11A 6807   5.868   4.558   9.684  0.0243 -0.6800 -2.4533
   59CHL1  H11B 6808   5.955   4.713   9.708  0.5819 -1.6702  0.5083
   59CHL1    C9 6809   5.752   4.709   9.781 -0.3717  0.4291  0.5443
   59CHL1    H9 6810   5.761   4.818   9.802 -0.6157  0.7513 -0.9311
   59CHL1   C10 6811   5.769   4.638   9.922 -0.1482 -0.1081 -0.9295
   59CHL1   C19 6812   5.789   4.485   9.919  0.8503  0.0929 -0.1305
   59CHL1  H19A 6813   5.887   4.471   9.868  1.2367  1.5759  0.1664
   59CHL1  H19B 6814   5.789   4.447  10.023 -1.1027  1.3906  0.3816
   59CHL1  H19C 6815   5.708   4.428   9.868  0.8575 -0.8448  0.8642
   59CHL1    C1 6816   5.898   4.692   9.989 -0.1552 -0.3320  0.1819
   59CHL1   H1A 6817   5.984   4.659   9.926  0.3514  0.1528  0.6070
   59CHL1   H1B 6818   5.893   4.802   9.991  3.0452 -0.0683 -0.1299
   59CHL1    C2 6819   5.924   4.646  10.131  0.0340 -0.7431 -0.3317
   59CHL1   H2A 6820   6.019   4.690  10.170  1.3501 -2.7552 -1.1079
   59CHL1   H2B 6821   5.944   4.537  10.135 -0.5565 -0.8321  0.7290
   59CHL1   C20 6822   5.659   4.713   9.220 -0.0259 -0.2691 -0.8367
   59CHL1   H20 6823   5.635   4.605   9.213  2.0259 -1.0869  2.5354
   59CHL1   C21 6824   5.809   4.728   9.186 -0.0279  0.0647 -0.7077
   59CHL1  H21A 6825   5.842   4.834   9.193 -2.2261  0.7259  0.5819
   59CHL1  H21B 6826   5.828   4.702   9.080  2.1842  0.6294 -0.4967
   59CHL1  H21C 6827   5.870   4.653   9.240  0.7842 -0.9794 -2.9635
   59CHL1   C22 6828   5.579   4.788   9.113  0.3899  0.4424  0.0280
   59CHL1  H22A 6829   5.468   4.788   9.123  0.0850  1.7671 -2.4801
   59CHL1  H22B 6830   5.601   4.896   9.126 -0.7456  1.3610 -4.2414
   59CHL1   C23 6831   5.612   4.738   8.966  0.5131 -0.4378  0.5690
   59CHL1  H23A 6832   5.717   4.764   8.944  0.0852  1.2557  0.4173
   59CHL1  H23B 6833   5.611   4.627   8.977 -1.3929 -0.6220 -0.8670
   59CHL1   C24 6834   5.508   4.783   8.863 -0.0558  0.5321 -0.9031
   59CHL1  H24A 6835   5.405   4.772   8.903 -0.1214  2.0674 -0.5808
   59CHL1  H24B 6836   5.521   4.894   8.855 -0.3863  0.5186 -1.7593
   59CHL1   C25 6837   5.524   4.741   8.713  0.0118  0.5755  0.4707
   59CHL1   H25 6838   5.444   4.805   8.670  1.9748  0.1850 -4.3111
   59CHL1   C26 6839   5.659   4.783   8.667 -0.1083  0.3467  0.6454
   59CHL1  H26A 6840   5.672   4.893   8.676 -0.6721  0.2983  2.2953
   59CHL1  H26B 6841   5.746   4.734   8.714 -0.2127  0.4133  0.9078
   59CHL1  H26C 6842   5.669   4.756   8.560 -1.3849 -0.8415  0.7891
   59CHL1   C27 6843   5.499   4.582   8.692  0.1477  0.1556 -0.4144
   59CHL1  H27A 6844   5.572   4.531   8.758  0.7897 -0.5649 -1.6375
   59CHL1  H27B 6845   5.398   4.559   8.732 -0.1912  0.7866 -0.8894
   59CHL1  H27C 6846   5.517   4.565   8.584  0.7173  2.4360 -0.7422
   60CHL1    C3 6847   3.638   3.890  10.275  0.2335  0.2484  0.2624
   60CHL1    H3 6848   3.748   3.892  10.257  0.1730  0.1892 -0.1432
   60CHL1    O3 6849   3.616   3.947  10.402  0.0671  0.0228  0.3003
   60CHL1   H3' 6850   3.532   3.993  10.395 -0.1992 -0.4650  0.2505
   60CHL1    C4 6851   3.566   3.978  10.168 -0.0268  0.6807 -0.0861
   60CHL1   H4A 6852   3.457   3.977  10.187 -0.4141  0.2255 -2.0383
   60CHL1   H4B 6853   3.595   4.083  10.192  0.3532  0.4265  0.5870
   60CHL1    C5 6854   3.609   3.928  10.034 -0.3671 -0.4344 -0.0411
   60CHL1    C6 6855   3.676   4.003   9.949  0.4990  0.5251  0.2021
   60CHL1    H6 6856   3.699   4.109   9.966 -0.6921  0.7569  0.4738
   60CHL1    C7 6857   3.711   3.954   9.812 -0.4711 -0.3042  0.3227
   60CHL1   H7A 6858   3.708   4.026   9.728  0.8878 -0.4556  0.1297
   60CHL1   H7B 6859   3.814   3.914   9.818 -0.0790  0.8799  2.1297
   60CHL1    C8 6860   3.629   3.833   9.766  0.0698  0.8584  0.2711
   60CHL1    H8 6861   3.531   3.882   9.748 -0.2799  1.8381  3.9057
   60CHL1   C14 6862   3.681   3.772   9.636  0.4547  0.1148 -0.6104
   60CHL1   H14 6863   3.786   3.737   9.649 -0.1309 -0.7543  2.4917
   60CHL1   C15 6864   3.692   3.864   9.512  0.2480 -0.2002  0.5076
   60CHL1  H15A 6865   3.595   3.916   9.501 -0.2392 -0.7457  2.0715
   60CHL1  H15B 6866   3.774   3.939   9.515 -0.5061  0.6037  1.1743
   60CHL1   C16 6867   3.719   3.755   9.409 -0.4305 -0.0155  0.6078
   60CHL1  H16A 6868   3.676   3.791   9.313  0.8347 -0.8650 -0.3148
   60CHL1  H16B 6869   3.830   3.750   9.403 -0.5224 -1.7376 -0.5401
   60CHL1   C17 6870   3.680   3.614   9.459 -0.4478 -0.7904  0.4850
   60CHL1   H17 6871   3.773   3.559   9.485  0.8540  1.8723  1.8585
   60CHL1   C13 6872   3.613   3.641   9.593 -0.1128  0.4245 -0.5679
   60CHL1   C18 6873   3.464   3.659   9.561  0.1163  0.1379 -0.1987
   60CHL1  H18A 6874   3.427   3.557   9.536  2.7762 -0.8091 -0.6234
   60CHL1  H18B 6875   3.409   3.705   9.646 -0.0557  1.0781 -0.8078
   60CHL1  H18C 6876   3.450   3.728   9.475  1.9637 -0.2346 -0.8456
   60CHL1   C12 6877   3.641   3.537   9.705  0.5044  0.1273  0.3512
   60CHL1  H12A 6878   3.602   3.439   9.668  0.6690  0.7745 -1.6567
   60CHL1  H12B 6879   3.751   3.537   9.722  0.4773 -0.9300  0.5959
   60CHL1   C11 6880   3.574   3.586   9.833 -0.0871  0.2967 -0.0228
   60CHL1  H11A 6881   3.467   3.581   9.805 -0.2863  0.5897  0.6634
   60CHL1  H11B 6882   3.591   3.514   9.916 -1.0408  1.4822  1.2439
   60CHL1    C9 6883   3.629   3.732   9.880 -0.0205  0.9878 -0.8018
   60CHL1    H9 6884   3.737   3.716   9.900 -0.1397  0.6797 -0.4004
   60CHL1   C10 6885   3.562   3.783  10.013  0.3659  0.2449  0.1397
   60CHL1   C19 6886   3.408   3.773   9.996 -0.9214 -0.4358  0.6441
   60CHL1  H19A 6887   3.381   3.853   9.923  1.1443 -0.8224 -0.6217
   60CHL1  H19B 6888   3.361   3.678   9.962 -0.4764  0.1588 -1.8485
   60CHL1  H19C 6889   3.349   3.797  10.087  0.6458 -0.9008  1.8161
   60CHL1    C1 6890   3.600   3.687  10.129 -0.1887 -0.3406  0.1113
   60CHL1   H1A 6891   3.534   3.598  10.122 -0.0154 -0.4076 -0.9093
   60CHL1   H1B 6892   3.707   3.655  10.122 -0.3542 -0.9661  0.3313
   60CHL1    C2 6893   3.587   3.743  10.272 -0.6277 -0.3001  0.1824
   60CHL1   H2A 6894   3.635   3.688  10.355 -1.0272 -0.0537  0.5829
   60CHL1   H2B 6895   3.481   3.743  10.305 -0.4470  1.3548  0.8771
   60CHL1   C20 6896   3.618   3.537   9.341 -0.2348 -0.1763  0.6577
   60CHL1   H20 6897   3.530   3.593   9.304  1.3485  2.0973  0.0845
   60CHL1   C21 6898   3.584   3.391   9.383 -0.5144 -0.1505  0.1713
   60CHL1  H21A 6899   3.682   3.347   9.411 -0.8554 -2.4586 -1.9385
   60CHL1  H21B 6900   3.539   3.343   9.294  0.5489  0.9457 -0.9975
   60CHL1  H21C 6901   3.513   3.389   9.469 -1.8398  1.4808 -0.8246
   60CHL1   C22 6902   3.706   3.533   9.214  0.7322  0.2451  0.4238
   60CHL1  H22A 6903   3.757   3.631   9.197 -0.8979  1.6719  3.0933
   60CHL1  H22B 6904   3.795   3.467   9.228  0.5437 -0.3074 -0.8933
   60CHL1   C23 6905   3.633   3.503   9.081  0.6871  0.7041 -0.5552
   60CHL1  H23A 6906   3.702   3.477   8.998 -0.4603 -0.2068 -1.2530
   60CHL1  H23B 6907   3.575   3.409   9.096 -1.3839  2.1829  1.3313
   60CHL1   C24 6908   3.546   3.617   9.035  0.0490  0.2837 -0.0673
   60CHL1  H24A 6909   3.456   3.623   9.100 -0.2144  1.2099 -0.5026
   60CHL1  H24B 6910   3.606   3.711   9.047  1.5887 -0.5802 -0.6858
   60CHL1   C25 6911   3.498   3.595   8.889 -0.1446 -0.2257 -0.1493
   60CHL1   H25 6912   3.539   3.494   8.869  0.5652  0.3743 -1.8447
   60CHL1   C26 6913   3.344   3.600   8.870 -0.0053 -0.1162 -0.1786
   60CHL1  H26A 6914   3.310   3.561   8.772  0.3720  3.2273 -1.7765
   60CHL1  H26B 6915   3.301   3.542   8.954  1.5387  2.0049  2.2369
   60CHL1  H26C 6916   3.314   3.705   8.889  0.5366 -0.4092  2.8684
   60CHL1   C27 6917   3.568   3.699   8.790  0.0325 -0.4948 -0.1129
   60CHL1  H27A 6918   3.550   3.804   8.821 -0.3531  0.0357 -2.0079
   60CHL1  H27B 6919   3.678   3.683   8.791  0.2853  0.9436  1.6125
   60CHL1  H27C 6920   3.514   3.692   8.693 -1.5152 -0.6201  0.7237
   61CHL1    C3 6921   1.129   3.509   9.941  0.0589 -0.2655  0.0045
   61CHL1    H3 6922   1.060   3.427   9.911 -0.8341  1.1013 -1.9152
   61CHL1    O3 6923   1.136   3.519  10.082 -0.3825  0.2676  0.3070
   61CHL1   H3' 6924   1.219   3.477  10.105 -0.8876 -1.2201 -0.4114
   61CHL1    C4 6925   1.270   3.476   9.877 -0.2030 -0.3526 -0.3620
   61CHL1   H4A 6926   1.332   3.556   9.922 -0.6155 -0.4195  0.3535
   61CHL1   H4B 6927   1.313   3.379   9.910  1.3352  0.8570  1.3585
   61CHL1    C5 6928   1.280   3.485   9.727  0.7598  0.2622  0.0009
   61CHL1    C6 6929   1.334   3.385   9.654 -0.2483  0.6621  0.1555
   61CHL1    H6 6930   1.369   3.292   9.702 -1.2511  0.1452 -0.0909
   61CHL1    C7 6931   1.347   3.379   9.504 -0.3331 -0.2930 -0.7047
   61CHL1   H7A 6932   1.444   3.339   9.468  0.3668  3.3647 -3.4837
   61CHL1   H7B 6933   1.265   3.312   9.469 -0.2004 -0.2026 -1.1962
   61CHL1    C8 6934   1.313   3.516   9.444  0.3160  0.6747  0.0752
   61CHL1    H8 6935   1.404   3.580   9.456  1.3074 -0.9828  1.8281
   61CHL1   C14 6936   1.293   3.496   9.293 -0.2855  0.2484 -0.4692
   61CHL1   H14 6937   1.206   3.429   9.279 -0.0071  0.2885 -2.7771
   61CHL1   C15 6938   1.408   3.437   9.200 -0.4294  0.0080 -0.0112
   61CHL1  H15A 6939   1.496   3.489   9.243  0.8458 -1.3523 -0.8679
   61CHL1  H15B 6940   1.426   3.327   9.207 -0.9434 -0.2252 -1.7968
   61CHL1   C16 6941   1.353   3.467   9.063  1.2190  0.1552  0.2375
   61CHL1  H16A 6942   1.438   3.514   9.009  1.7181 -0.7688  0.2025
   61CHL1  H16B 6943   1.324   3.376   9.007  1.4575  0.6663 -0.7369
   61CHL1   C17 6944   1.251   3.577   9.079  0.3818 -0.7657 -0.0041
   61CHL1   H17 6945   1.157   3.518   9.069  0.1028 -0.2947 -0.2100
   61CHL1   C13 6946   1.257   3.626   9.222 -1.1414  0.5057 -0.2636
   61CHL1   C18 6947   1.373   3.728   9.236 -0.2549 -0.3566  0.5055
   61CHL1  H18A 6948   1.329   3.825   9.203 -1.7631 -1.6924 -1.6967
   61CHL1  H18B 6949   1.407   3.746   9.340  1.1768  2.2124 -0.3017
   61CHL1  H18C 6950   1.465   3.708   9.178 -1.6587 -1.3325 -1.5239
   61CHL1   C12 6951   1.130   3.676   9.278  0.0358 -0.1319 -0.6265
   61CHL1  H12A 6952   1.097   3.765   9.220  1.9776  0.3827 -0.9989
   61CHL1  H12B 6953   1.054   3.595   9.275 -0.9778  0.6272  1.8340
   61CHL1   C11 6954   1.138   3.704   9.430  0.3534  0.3833  0.0775
   61CHL1  H11A 6955   1.199   3.794   9.450 -1.9900  1.7879  1.3184
   61CHL1  H11B 6956   1.037   3.718   9.474  0.1849  2.9157 -0.9545
   61CHL1    C9 6957   1.193   3.584   9.511  0.4992  0.7136  0.3411
   61CHL1    H9 6958   1.117   3.505   9.495 -0.5731  1.7987 -0.0804
   61CHL1   C10 6959   1.213   3.602   9.662  0.0084 -0.6685  0.1356
   61CHL1   C19 6960   1.299   3.722   9.695 -0.3511 -0.4780 -0.6193
   61CHL1  H19A 6961   1.251   3.814   9.655 -1.4648 -1.5968 -1.9560
   61CHL1  H19B 6962   1.306   3.726   9.806 -0.2186 -0.5647 -0.6238
   61CHL1  H19C 6963   1.398   3.710   9.646 -0.6423  0.8271 -1.5773
   61CHL1    C1 6964   1.072   3.637   9.725 -0.5586 -0.4249 -0.0479
   61CHL1   H1A 6965   1.052   3.743   9.697  1.6977  0.2255  0.5170
   61CHL1   H1B 6966   0.997   3.568   9.681  0.1953 -0.2328 -1.7192
   61CHL1    C2 6967   1.074   3.636   9.874 -0.1828  0.2680  0.3908
   61CHL1   H2A 6968   0.970   3.649   9.911 -0.2463  1.7634 -0.2266
   61CHL1   H2B 6969   1.125   3.724   9.919  0.1351  0.4001 -0.2147
   61CHL1   C20 6970   1.238   3.684   8.969  0.4398 -0.2361 -0.1969
   61CHL1   H20 6971   1.259   3.782   9.017  0.3228  0.8620 -2.2748
   61CHL1   C21 6972   1.089   3.700   8.937  0.3236 -0.0863 -0.1062
   61CHL1  H21A 6973   1.044   3.629   8.864  0.6810 -0.0625 -0.3533
   61CHL1  H21B 6974   1.065   3.800   8.896  0.4612  0.6168  1.4679
   61CHL1  H21C 6975   1.034   3.679   9.031  0.5241  0.1880  0.0730
   61CHL1   C22 6976   1.329   3.668   8.846 -0.2953  0.1802  0.5279
   61CHL1  H22A 6977   1.435   3.676   8.875 -0.0454 -0.3580 -0.2072
   61CHL1  H22B 6978   1.308   3.568   8.801 -2.0837  1.6077 -2.0550
   61CHL1   C23 6979   1.302   3.777   8.741 -0.0031  0.6015  0.9933
   61CHL1  H23A 6980   1.380   3.764   8.662 -2.6765 -2.6833 -1.3820
   61CHL1  H23B 6981   1.201   3.756   8.702  0.3736  0.3453  0.1377
   61CHL1   C24 6982   1.289   3.929   8.789 -0.5896 -0.3870 -0.0527
   61CHL1  H24A 6983   1.246   3.929   8.892 -0.6721  2.2042 -0.0220
   61CHL1  H24B 6984   1.392   3.969   8.795 -0.7780  0.5746 -2.4197
   61CHL1   C25 6985   1.215   4.029   8.700 -0.1538  0.1751 -0.2958
   61CHL1   H25 6986   1.107   4.004   8.697 -0.1631  0.2590 -0.7423
   61CHL1   C26 6987   1.243   4.176   8.750 -0.4132  1.1068 -0.1616
   61CHL1  H26A 6988   1.348   4.209   8.740 -0.0433  0.0379  0.0046
   61CHL1  H26B 6989   1.167   4.243   8.705 -1.5686  0.5931  0.9609
   61CHL1  H26C 6990   1.223   4.180   8.859 -1.2636  1.7477 -0.3281
   61CHL1   C27 6991   1.243   4.016   8.553  0.4608  0.5674  0.2655
   61CHL1  H27A 6992   1.254   3.911   8.518  0.2740  0.6316  0.0170
   61CHL1  H27B 6993   1.158   4.053   8.493  0.9597  4.9269  1.9126
   61CHL1  H27C 6994   1.335   4.066   8.516 -0.7654  1.9517 -1.0491
   62CHL1    C3 6995   3.324   1.023   9.934 -0.0692  0.1938 -0.3228
   62CHL1    H3 6996   3.384   0.930   9.919 -0.5939 -0.4515  1.3349
   62CHL1    O3 6997   3.330   1.060  10.073 -0.8170 -0.5081  0.4159
   62CHL1   H3' 6998   3.314   1.155  10.076  0.1058 -0.3476  0.6276
   62CHL1    C4 6999   3.367   1.138   9.841 -0.1844 -0.1735  0.6182
   62CHL1   H4A 7000   3.305   1.227   9.866  2.1608  1.5707  0.6169
   62CHL1   H4B 7001   3.475   1.150   9.863 -0.0345  1.1868 -0.6787
   62CHL1    C5 7002   3.359   1.103   9.691  0.9398 -0.0992  0.1105
   62CHL1    C6 7003   3.464   1.106   9.606  0.2720 -0.2924 -0.1693
   62CHL1    H6 7004   3.563   1.148   9.631 -0.6661  1.8370  0.1474
   62CHL1    C7 7005   3.449   1.083   9.457  0.0542  0.3836 -0.6170
   62CHL1   H7A 7006   3.514   1.151   9.397  3.8290 -2.0888  0.3450
   62CHL1   H7B 7007   3.501   0.988   9.436  2.2677  1.5276 -0.6606
   62CHL1    C8 7008   3.301   1.086   9.412  0.5627 -0.1546  0.0549
   62CHL1    H8 7009   3.267   1.191   9.419  0.0560 -0.4352  2.8213
   62CHL1   C14 7010   3.288   1.037   9.268 -0.0281 -0.4975  0.4172
   62CHL1   H14 7011   3.322   0.931   9.270 -0.3067 -0.6450 -1.1583
   62CHL1   C15 7012   3.377   1.108   9.163 -0.1430 -0.1320  0.3331
   62CHL1  H15A 7013   3.379   1.215   9.191 -0.0436 -0.9740  4.0474
   62CHL1  H15B 7014   3.478   1.065   9.182 -0.6982 -0.2077  3.6966
   62CHL1   C16 7015   3.305   1.087   9.030  0.4334  0.0951  0.1376
   62CHL1  H16A 7016   3.281   1.184   8.980 -2.7981 -0.1885  0.9208
   62CHL1  H16B 7017   3.374   1.030   8.964 -0.2554 -2.1477  1.2622
   62CHL1   C17 7018   3.179   1.000   9.066  0.0291 -0.4657  0.3756
   62CHL1   H17 7019   3.220   0.898   9.077 -1.8386 -1.4735 -1.3454
   62CHL1   C13 7020   3.143   1.031   9.217  0.2543 -0.1605  0.2952
   62CHL1   C18 7021   3.075   1.172   9.218 -0.0976 -0.1021  0.3874
   62CHL1  H18A 7022   3.064   1.212   9.321 -1.4542  2.0152 -0.5148
   62CHL1  H18B 7023   3.142   1.245   9.170 -0.8620 -0.5175 -1.3924
   62CHL1  H18C 7024   2.972   1.180   9.175  0.4580  1.2507 -0.7711
   62CHL1   C12 7025   3.074   0.920   9.302  0.2780 -0.0424  0.4580
   62CHL1  H12A 7026   2.967   0.906   9.277  1.0285 -0.9433 -2.6833
   62CHL1  H12B 7027   3.138   0.829   9.292  0.0600  0.0526 -2.4444
   62CHL1   C11 7028   3.066   0.974   9.453  0.2587 -0.4214  0.8144
   62CHL1  H11A 7029   3.000   1.063   9.451 -1.7063 -1.7113  2.7980
   62CHL1  H11B 7030   3.030   0.885   9.510  2.2603 -0.4276  2.1675
   62CHL1    C9 7031   3.215   0.997   9.505  0.3551 -0.5109 -0.3080
   62CHL1    H9 7032   3.253   0.894   9.514  0.9075 -0.3309 -0.5295
   62CHL1   C10 7033   3.220   1.055   9.650  0.2378 -0.1501 -0.6576
   62CHL1   C19 7034   3.125   1.178   9.667 -0.2516 -0.0413 -0.3747
   62CHL1  H19A 7035   3.024   1.157   9.626 -0.5605  0.7278 -0.0206
   62CHL1  H19B 7036   3.102   1.206   9.772 -0.5115 -2.3776  0.2503
   62CHL1  H19C 7037   3.175   1.262   9.613  0.7872 -1.2633 -1.3986
   62CHL1    C1 7038   3.175   0.945   9.752 -1.0708  0.5802  0.3869
   62CHL1   H1A 7039   3.075   0.915   9.712 -0.6692  1.2758 -1.2545
   62CHL1   H1B 7040   3.237   0.854   9.736 -0.6752  1.0780 -1.0870
   62CHL1    C2 7041   3.180   0.977   9.903  0.7015 -0.1081 -0.1866
   62CHL1   H2A 7042   3.147   0.885   9.957  1.2024  0.1878  0.6404
   62CHL1   H2B 7043   3.100   1.050   9.926  1.7922  1.0265  0.0742
   62CHL1   C20 7044   3.071   1.002   8.965 -0.0061 -0.9507  0.4349
   62CHL1   H20 7045   3.025   1.103   8.960 -1.2459 -1.5358 -0.8079
   62CHL1   C21 7046   2.947   0.911   9.007 -0.2378 -0.4795  0.1028
   62CHL1  H21A 7047   2.979   0.807   9.028 -0.0275  0.3006  4.8600
   62CHL1  H21B 7048   2.885   0.902   8.915 -1.0910  1.8243  0.3843
   62CHL1  H21C 7049   2.887   0.952   9.091  3.4838  0.6218  2.4720
   62CHL1   C22 7050   3.123   0.968   8.828 -0.0932 -0.7858  0.3273
   62CHL1  H22A 7051   3.040   0.979   8.755 -0.4653  0.6653  0.9283
   62CHL1  H22B 7052   3.193   1.050   8.799 -0.2892 -0.5267  0.5876
   62CHL1   C23 7053   3.188   0.831   8.818 -0.4779 -0.4804  0.4226
   62CHL1  H23A 7054   3.278   0.813   8.881  0.3391 -2.2054 -1.1337
   62CHL1  H23B 7055   3.116   0.764   8.870 -1.3753  2.4695  3.2715
   62CHL1   C24 7056   3.206   0.790   8.671  0.4174  0.7243  0.9372
   62CHL1  H24A 7057   3.231   0.683   8.662  2.0937  1.1563  0.1388
   62CHL1  H24B 7058   3.115   0.808   8.609  2.0096 -1.4913 -2.3166
   62CHL1   C25 7059   3.330   0.863   8.610  0.7877 -0.5343  1.0101
   62CHL1   H25 7060   3.334   0.973   8.628  3.6348 -0.3669 -0.0870
   62CHL1   C26 7061   3.454   0.808   8.660 -0.2260  0.3099  0.0511
   62CHL1  H26A 7062   3.502   0.722   8.607 -1.3965 -1.1065  1.2086
   62CHL1  H26B 7063   3.529   0.890   8.662 -0.4110  0.5502 -1.3103
   62CHL1  H26C 7064   3.451   0.777   8.766  0.3572  0.2409  0.0523
   62CHL1   C27 7065   3.332   0.854   8.457 -0.5298 -0.3513 -0.7548
   62CHL1  H27A 7066   3.418   0.911   8.416  0.0002 -0.9992 -0.5627
   62CHL1  H27B 7067   3.334   0.746   8.432  0.1937 -1.0755  2.0646
   62CHL1  H27C 7068   3.241   0.897   8.410 -1.3838  0.1537  1.2386
   63CHL1    C3 7069   4.913   1.287  10.127 -0.6676 -0.3981  0.5801
   63CHL1    H3 7070   4.974   1.196  10.109 -0.7973 -0.2092 -0.9479
   63CHL1    O3 7071   4.921   1.324  10.270  0.3167 -0.0152  0.3525
   63CHL1   H3' 7072   4.845   1.384  10.271 -0.9342 -1.5360  0.7989
   63CHL1    C4 7073   4.976   1.406  10.049  0.0394  0.6969 -0.3244
   63CHL1   H4A 7074   4.938   1.507  10.078 -1.6891 -0.0062 -0.0676
   63CHL1   H4B 7075   5.086   1.403  10.068  0.1900  1.8207 -0.9088
   63CHL1    C5 7076   4.954   1.390   9.902  0.0781 -0.1493 -0.3481
   63CHL1    C6 7077   5.061   1.368   9.819  0.4643 -0.3105 -0.0581
   63CHL1    H6 7078   5.165   1.356   9.853  0.2995 -1.3613  0.1023
   63CHL1    C7 7079   5.045   1.350   9.666  0.3861 -0.2621 -0.1808
   63CHL1   H7A 7080   5.130   1.395   9.611 -1.2265  1.1846 -1.6282
   63CHL1   H7B 7081   5.051   1.241   9.645  1.4156 -0.6020  1.6762
   63CHL1    C8 7082   4.917   1.408   9.605 -0.5389  0.0351 -0.0967
   63CHL1    H8 7083   4.921   1.519   9.613 -3.1581  0.3004 -1.5168
   63CHL1   C14 7084   4.898   1.369   9.460 -0.6964  0.7443  0.9087
   63CHL1   H14 7085   4.916   1.259   9.460 -2.4273  0.4391 -0.1691
   63CHL1   C15 7086   5.016   1.406   9.363 -0.8776 -0.6829  0.0975
   63CHL1  H15A 7087   5.018   1.517   9.369 -0.1189 -0.7023  0.2501
   63CHL1  H15B 7088   5.114   1.357   9.379  0.8741  1.8406 -2.0636
   63CHL1   C16 7089   4.960   1.372   9.222  0.1563 -0.0016  0.2141
   63CHL1  H16A 7090   4.973   1.471   9.172  0.3184  0.6702  1.5167
   63CHL1  H16B 7091   5.013   1.302   9.155  1.0243  0.5973  0.2499
   63CHL1   C17 7092   4.815   1.333   9.245  0.0196  0.1977  0.6607
   63CHL1   H17 7093   4.807   1.224   9.266 -0.2210  0.6227  3.0755
   63CHL1   C13 7094   4.768   1.387   9.387 -0.4954 -0.2044  0.5994
   63CHL1   C18 7095   4.746   1.547   9.380 -0.6290  0.0807  0.3113
   63CHL1  H18A 7096   4.735   1.595   9.479 -0.6930  0.5506  0.0798
   63CHL1  H18B 7097   4.828   1.586   9.315  0.1009 -0.6140  0.7981
   63CHL1  H18C 7098   4.651   1.579   9.333 -0.1895  0.9095 -0.0522
   63CHL1   C12 7099   4.666   1.313   9.477  0.0362 -0.3773 -0.0808
   63CHL1  H12A 7100   4.566   1.332   9.433  0.3007 -1.0663 -0.9875
   63CHL1  H12B 7101   4.671   1.203   9.463 -0.7504 -0.2809 -1.2041
   63CHL1   C11 7102   4.665   1.350   9.630 -0.3089  0.2026  0.1764
   63CHL1  H11A 7103   4.667   1.461   9.631  1.1975  0.2079  1.3758
   63CHL1  H11B 7104   4.581   1.310   9.690 -0.5382  0.7745  0.2432
   63CHL1    C9 7105   4.807   1.338   9.693 -0.1383 -0.2743  0.2023
   63CHL1    H9 7106   4.833   1.230   9.686 -2.7133 -0.9148 -0.5412
   63CHL1   C10 7107   4.809   1.374   9.848  0.8267 -0.3253 -0.5763
   63CHL1   C19 7108   4.738   1.512   9.883 -0.3448  0.1296 -0.4469
   63CHL1  H19A 7109   4.786   1.586   9.815 -1.0770 -1.8713 -3.2879
   63CHL1  H19B 7110   4.630   1.515   9.861 -0.2288  0.2908 -1.0165
   63CHL1  H19C 7111   4.744   1.550   9.988 -0.7395 -0.1748 -0.3115
   63CHL1    C1 7112   4.744   1.260   9.930 -0.3404 -0.0927  0.8811
   63CHL1   H1A 7113   4.638   1.250   9.897 -0.4208  0.2253  1.0382
   63CHL1   H1B 7114   4.783   1.162   9.898 -2.6855 -1.0151  0.5921
   63CHL1    C2 7115   4.769   1.264  10.080 -0.6645  0.1158  0.1837
   63CHL1   H2A 7116   4.730   1.174  10.132 -2.3733  0.1912 -0.9102
   63CHL1   H2B 7117   4.706   1.343  10.125  0.7180  0.3771  1.7847
   63CHL1   C20 7118   4.721   1.373   9.129 -0.1180 -0.1832  0.6127
   63CHL1   H20 7119   4.716   1.484   9.127 -0.2784 -0.1645  1.4204
   63CHL1   C21 7120   4.582   1.318   9.164 -0.5363  0.5608 -0.1583
   63CHL1  H21A 7121   4.583   1.212   9.199  0.0675 -0.0968 -2.0442
   63CHL1  H21B 7122   4.515   1.314   9.076  0.0132 -1.0592 -0.5473
   63CHL1  H21C 7123   4.528   1.388   9.231 -0.1999  1.0329 -0.3813
   63CHL1   C22 7124   4.769   1.328   8.993  0.6719  0.0486  0.5596
   63CHL1  H22A 7125   4.859   1.385   8.962  0.4345  0.6340  0.9408
   63CHL1  H22B 7126   4.799   1.221   8.995 -0.5598 -0.3474 -0.7307
   63CHL1   C23 7127   4.676   1.339   8.870  0.1978  0.1901 -0.7325
   63CHL1  H23A 7128   4.609   1.251   8.879 -0.6073  0.8650  0.1447
   63CHL1  H23B 7129   4.621   1.434   8.888 -0.8083  0.0301 -2.7088
   63CHL1   C24 7130   4.747   1.356   8.731  0.1345  0.4042 -0.1145
   63CHL1  H24A 7131   4.800   1.452   8.712  0.3228  0.0733 -1.3533
   63CHL1  H24B 7132   4.823   1.275   8.722 -0.9920 -0.7606  0.5440
   63CHL1   C25 7133   4.646   1.347   8.619  0.3549 -0.3762  0.1509
   63CHL1   H25 7134   4.579   1.263   8.648 -0.3765  0.3027  0.4409
   63CHL1   C26 7135   4.567   1.475   8.602  0.5948  0.1872  1.0710
   63CHL1  H26A 7136   4.476   1.457   8.540  1.2755 -2.0234  0.6207
   63CHL1  H26B 7137   4.535   1.514   8.701  2.1445  1.6163  1.0718
   63CHL1  H26C 7138   4.628   1.555   8.555 -2.7766  2.5310  0.3222
   63CHL1   C27 7139   4.713   1.315   8.491 -0.3234  0.0115 -0.2845
   63CHL1  H27A 7140   4.788   1.235   8.508  0.9311  1.3331  0.5964
   63CHL1  H27B 7141   4.637   1.262   8.429 -1.6867  0.5473  0.8719
   63CHL1  H27C 7142   4.765   1.404   8.449 -1.4410  1.1458  0.6487
   64CHL1    C3 7143   4.185   1.609   9.761 -0.2003  0.2388 -0.5580
   64CHL1    H3 7144   4.276   1.551   9.738 -0.1059  0.5670 -1.0091
   64CHL1    O3 7145   4.186   1.636   9.896 -0.5090 -0.1609  0.0921
   64CHL1   H3' 7146   4.093   1.652   9.913 -1.7504 -0.3795 -4.9010
   64CHL1    C4 7147   4.193   1.734   9.678  0.0817  0.2160  0.1842
   64CHL1   H4A 7148   4.103   1.798   9.689  1.1395  1.7883  0.1189
   64CHL1   H4B 7149   4.278   1.792   9.721 -2.0364  2.2586  1.9343
   64CHL1    C5 7150   4.204   1.690   9.531  0.8849 -0.1103  0.2179
   64CHL1    C6 7151   4.307   1.726   9.451  0.1184  1.1692 -0.3169
   64CHL1    H6 7152   4.390   1.777   9.502  1.8426 -1.5267 -0.2275
   64CHL1    C7 7153   4.335   1.687   9.311 -0.1057 -0.4751  0.7733
   64CHL1   H7A 7154   4.364   1.766   9.239 -2.2396 -1.5340 -1.3850
   64CHL1   H7B 7155   4.419   1.614   9.304  1.6215  1.3239  1.6696
   64CHL1    C8 7156   4.199   1.643   9.242 -0.2152  0.3578 -0.5142
   64CHL1    H8 7157   4.140   1.737   9.227 -1.3901 -0.2232  0.2806
   64CHL1   C14 7158   4.235   1.575   9.108 -0.1095 -0.2555  0.4632
   64CHL1   H14 7159   4.303   1.494   9.144 -1.2403  0.0458  3.6039
   64CHL1   C15 7160   4.331   1.645   9.001  0.0710 -0.6902 -0.5040
   64CHL1  H15A 7161   4.295   1.750   8.990  0.4409 -0.7355 -2.5066
   64CHL1  H15B 7162   4.431   1.652   9.048  0.7157 -0.0857 -1.9131
   64CHL1   C16 7163   4.318   1.554   8.884 -0.2119  0.2977  0.0755
   64CHL1  H16A 7164   4.310   1.613   8.790 -0.4861 -0.0345 -0.1088
   64CHL1  H16B 7165   4.418   1.508   8.867  0.6410  1.8403  0.6607
   64CHL1   C17 7166   4.209   1.444   8.915  0.0532 -0.0671  0.0744
   64CHL1   H17 7167   4.270   1.360   8.952  1.6522  0.7459 -0.6406
   64CHL1   C13 7168   4.121   1.502   9.028  0.3365 -1.0690  1.4689
   64CHL1   C18 7169   4.014   1.602   8.972 -0.4198 -0.6212 -0.3160
   64CHL1  H18A 7170   3.967   1.664   9.051  0.8602  0.1369 -0.1237
   64CHL1  H18B 7171   4.048   1.670   8.891  1.2984  0.8265  1.5422
   64CHL1  H18C 7172   3.935   1.538   8.926 -0.9197 -0.3554  0.1537
   64CHL1   C12 7173   4.044   1.405   9.121 -0.1323 -0.1469  0.1392
   64CHL1  H12A 7174   3.957   1.351   9.078 -0.1629 -1.8204  2.1738
   64CHL1  H12B 7175   4.119   1.329   9.150  0.6418  0.1698 -0.9570
   64CHL1   C11 7176   4.001   1.466   9.258  0.2474 -0.2481  0.0613
   64CHL1  H11A 7177   3.906   1.522   9.244 -1.3341 -2.6932  0.2946
   64CHL1  H11B 7178   3.961   1.383   9.320  0.6201 -0.1048  0.4968
   64CHL1    C9 7179   4.115   1.551   9.327 -0.3848  0.5599 -0.3551
   64CHL1    H9 7180   4.180   1.466   9.359  1.8841  2.8970  1.7373
   64CHL1   C10 7181   4.090   1.604   9.469  0.2233  0.7727 -0.0471
   64CHL1   C19 7182   3.966   1.691   9.454 -0.4870 -0.1049  0.7044
   64CHL1  H19A 7183   3.941   1.746   9.547  0.1616  1.0520  0.2106
   64CHL1  H19B 7184   3.972   1.758   9.366 -1.0759 -1.1950 -0.2009
   64CHL1  H19C 7185   3.876   1.626   9.449 -2.0297  1.7664  2.3322
   64CHL1    C1 7186   4.056   1.494   9.575  0.5994 -0.3864  0.3014
   64CHL1   H1A 7187   3.957   1.446   9.557  0.1477  0.2668  0.9704
   64CHL1   H1B 7188   4.130   1.414   9.558  1.1417  0.3119 -0.7452
   64CHL1    C2 7189   4.060   1.530   9.723 -0.3120  0.1786 -0.3087
   64CHL1   H2A 7190   4.040   1.439   9.783 -1.9522  0.9912  0.4362
   64CHL1   H2B 7191   3.967   1.590   9.735 -0.4878  0.2053 -1.6244
   64CHL1   C20 7192   4.130   1.389   8.789  0.6562  0.5264 -0.2101
   64CHL1   H20 7193   4.066   1.472   8.751 -1.2356 -0.4755  0.6511
   64CHL1   C21 7194   4.043   1.273   8.824 -0.3231  0.0256 -0.1030
   64CHL1  H21A 7195   4.018   1.203   8.741 -1.6565 -0.3183  0.5527
   64CHL1  H21B 7196   3.944   1.311   8.857 -0.4784  2.3140 -2.7912
   64CHL1  H21C 7197   4.078   1.209   8.907 -1.3982 -0.9919 -0.4104
   64CHL1   C22 7198   4.240   1.345   8.682  0.3479  0.0640 -0.6574
   64CHL1  H22A 7199   4.313   1.428   8.670  3.8692 -2.3038  2.2381
   64CHL1  H22B 7200   4.304   1.265   8.724 -0.9237 -0.2337  0.8145
   64CHL1   C23 7201   4.182   1.287   8.550 -0.0840  0.1867 -0.0478
   64CHL1  H23A 7202   4.140   1.189   8.580  2.0901 -0.9841 -0.6627
   64CHL1  H23B 7203   4.108   1.353   8.499  0.2167  0.3869 -0.2274
   64CHL1   C24 7204   4.284   1.237   8.443 -0.1575  0.1788 -0.1496
   64CHL1  H24A 7205   4.345   1.324   8.410  0.1545 -0.0496 -0.1831
   64CHL1  H24B 7206   4.352   1.160   8.484 -0.3334 -0.6343 -1.3203
   64CHL1   C25 7207   4.223   1.157   8.320  0.1383 -0.7862 -1.3850
   64CHL1   H25 7208   4.148   1.223   8.271 -0.6686  2.2585  3.2135
   64CHL1   C26 7209   4.332   1.114   8.226 -0.3508  0.2151  0.3498
   64CHL1  H26A 7210   4.388   1.038   8.285  2.5395  2.6316  0.9564
   64CHL1  H26B 7211   4.279   1.067   8.141 -1.9853  2.8094 -0.1805
   64CHL1  H26C 7212   4.387   1.202   8.185 -1.7407  0.1655 -1.7912
   64CHL1   C27 7213   4.151   1.027   8.362 -0.0083 -0.0872  0.0157
   64CHL1  H27A 7214   4.209   0.945   8.411 -1.3344 -0.5634  0.8362
   64CHL1  H27B 7215   4.064   1.059   8.423 -0.0673  2.9700 -1.5199
   64CHL1  H27C 7216   4.105   0.978   8.274  0.2595 -1.2451  0.4946
   65CHL1    C3 7217   0.160   5.412  10.240 -0.4939  0.2453 -0.0196
   65CHL1    H3 7218   0.185   5.521  10.232  0.5266 -0.0187 -0.6455
   65CHL1    O3 7219   0.151   5.389  10.376  0.0984 -0.0600  0.0038
   65CHL1   H3' 7220   0.225   5.412  10.432  0.0385 -1.8966  0.9231
   65CHL1    C4 7221   0.037   5.379  10.162  0.2369  0.2546 -0.8463
   65CHL1   H4A 7222   0.006   5.279  10.200 -0.9849  0.7087 -0.6022
   65CHL1   H4B 7223  -0.030   5.459  10.201  0.6287  0.5754 -0.8274
   65CHL1    C5 7224   0.038   5.373  10.012  1.1832  0.9171  0.1295
   65CHL1    C6 7225  -0.057   5.437   9.940  0.9449  0.3086 -0.3253
   65CHL1    H6 7226  -0.138   5.476  10.002  2.4850 -0.0793  2.0732
   65CHL1    C7 7227  -0.067   5.445   9.789 -0.1984  0.3071  0.0855
   65CHL1   H7A 7228  -0.169   5.418   9.756 -0.5559  0.1533  1.2614
   65CHL1   H7B 7229  -0.055   5.553   9.764 -0.7571  0.7920  1.7667
   65CHL1    C8 7230   0.046   5.365   9.726 -0.2540 -0.5005 -0.6571
   65CHL1    H8 7231   0.015   5.259   9.725  1.2544 -0.9657 -0.6494
   65CHL1   C14 7232   0.061   5.400   9.577 -0.8078 -0.1816 -0.1218
   65CHL1   H14 7233   0.098   5.504   9.572 -0.1236 -0.3472  1.2355
   65CHL1   C15 7234  -0.065   5.410   9.482 -0.3963 -0.3134  0.4537
   65CHL1  H15A 7235  -0.145   5.338   9.511 -0.3631 -0.5210  0.0476
   65CHL1  H15B 7236  -0.111   5.510   9.485 -0.8553 -0.5221  0.4901
   65CHL1   C16 7237   0.002   5.405   9.344  0.5636  0.8289  0.4195
   65CHL1  H16A 7238  -0.043   5.322   9.284 -1.2353  0.4887  2.1413
   65CHL1  H16B 7239  -0.019   5.496   9.285  0.7961  2.1666  2.3294
   65CHL1   C17 7240   0.158   5.385   9.355 -0.4731  0.6741 -0.3059
   65CHL1   H17 7241   0.209   5.484   9.353  0.8534  0.0290 -2.6328
   65CHL1   C13 7242   0.172   5.326   9.505  0.6927 -0.2212 -0.0420
   65CHL1   C18 7243   0.126   5.169   9.504  0.1997  0.0326  0.9521
   65CHL1  H18A 7244   0.029   5.151   9.453  0.6792  0.5958 -0.1996
   65CHL1  H18B 7245   0.203   5.111   9.448 -1.5626 -1.4747  0.0028
   65CHL1  H18C 7246   0.123   5.125   9.606 -1.9454  0.0323  0.9370
   65CHL1   C12 7247   0.300   5.363   9.576 -0.5817 -0.0801 -0.3928
   65CHL1  H12A 7248   0.388   5.310   9.533 -1.2497 -1.8697  0.3411
   65CHL1  H12B 7249   0.331   5.469   9.578  1.1589 -0.5267 -1.3133
   65CHL1   C11 7250   0.296   5.318   9.726  0.2949  0.9177 -0.1881
   65CHL1  H11A 7251   0.289   5.207   9.723 -1.2445  0.8349  2.8238
   65CHL1  H11B 7252   0.385   5.352   9.783 -0.3241 -0.0492  1.4097
   65CHL1    C9 7253   0.182   5.375   9.807 -0.5748  0.6219  0.3656
   65CHL1    H9 7254   0.197   5.485   9.807  0.4930  0.4922  0.1737
   65CHL1   C10 7255   0.170   5.317   9.953 -0.0734  0.1943  0.2867
   65CHL1   C19 7256   0.170   5.161   9.941 -0.3372  0.1981 -0.5584
   65CHL1  H19A 7257   0.261   5.119   9.894 -0.1453 -1.9138  1.5047
   65CHL1  H19B 7258   0.174   5.113  10.042  1.5798 -0.2769 -0.8087
   65CHL1  H19C 7259   0.087   5.120   9.880  0.4725  0.4163 -1.8430
   65CHL1    C1 7260   0.297   5.355  10.037  0.1006  0.5170  0.1136
   65CHL1   H1A 7261   0.384   5.304   9.989 -0.5890  0.8279 -1.5473
   65CHL1   H1B 7262   0.310   5.465  10.033 -0.0192  0.6092  1.7064
   65CHL1    C2 7263   0.278   5.323  10.192  0.3383  0.3490  0.6846
   65CHL1   H2A 7264   0.377   5.352  10.233  0.3349 -0.0289  0.9709
   65CHL1   H2B 7265   0.263   5.214  10.211  0.0828 -0.0960 -1.7394
   65CHL1   C20 7266   0.208   5.299   9.240  0.1763 -0.5004  0.2174
   65CHL1   H20 7267   0.172   5.194   9.243  0.3722 -0.5654  0.3450
   65CHL1   C21 7268   0.366   5.304   9.240 -0.1506  0.5748  0.4027
   65CHL1  H21A 7269   0.407   5.250   9.328 -0.6265  0.2691  0.4373
   65CHL1  H21B 7270   0.415   5.404   9.240  3.6447 -1.0458 -1.3779
   65CHL1  H21C 7271   0.413   5.252   9.153 -0.3126  1.8215 -0.4479
   65CHL1   C22 7272   0.169   5.356   9.097  0.6201  0.0574 -0.0053
   65CHL1  H22A 7273   0.209   5.288   9.019 -1.1310 -1.8074  0.6627
   65CHL1  H22B 7274   0.059   5.344   9.088  0.5822  0.0460  0.4749
   65CHL1   C23 7275   0.214   5.504   9.069 -0.0011  0.9166  0.3522
   65CHL1  H23A 7276   0.172   5.571   9.147 -1.5180  2.6963 -1.8789
   65CHL1  H23B 7277   0.325   5.515   9.067  0.0638  0.2478  0.2481
   65CHL1   C24 7278   0.152   5.565   8.935  0.6077  0.2164 -0.2816
   65CHL1  H24A 7279   0.042   5.565   8.943  0.6135 -2.2257  0.6179
   65CHL1  H24B 7280   0.198   5.665   8.915  1.1513 -0.1708 -1.0221
   65CHL1   C25 7281   0.189   5.495   8.805 -0.3561  0.6905 -0.7060
   65CHL1   H25 7282   0.144   5.394   8.814  0.3523  0.4672  0.5607
   65CHL1   C26 7283   0.138   5.576   8.688  0.0627 -0.0539  0.0498
   65CHL1  H26A 7284   0.028   5.571   8.678  0.1148 -1.8736  0.0548
   65CHL1  H26B 7285   0.184   5.677   8.687  0.1112 -0.0770 -0.1447
   65CHL1  H26C 7286   0.180   5.532   8.595  1.5072  0.8785  0.2205
   65CHL1   C27 7287   0.341   5.481   8.791 -0.3341  0.2483 -0.3621
   65CHL1  H27A 7288   0.374   5.587   8.796  0.4270 -0.0407  1.5053
   65CHL1  H27B 7289   0.390   5.428   8.875 -2.3805 -1.4597 -0.1642
   65CHL1  H27C 7290   0.366   5.425   8.698  0.0371 -1.2530  0.6223
   66CHL1    C3 7291   3.085   2.454  10.089  0.7809 -0.4144 -0.9167
   66CHL1    H3 7292   3.089   2.565  10.092  0.5775 -0.4063  2.2507
   66CHL1    O3 7293   3.107   2.409  10.227 -0.0816  0.1023  0.5254
   66CHL1   H3' 7294   3.147   2.322  10.215 -0.0106  0.1566  0.3537
   66CHL1    C4 7295   2.950   2.394  10.035 -0.4997 -0.0052  0.3184
   66CHL1   H4A 7296   2.948   2.284  10.052 -3.5245 -0.0142  0.3750
   66CHL1   H4B 7297   2.868   2.433  10.099  0.7609  1.0159  1.3608
   66CHL1    C5 7298   2.944   2.411   9.884  0.0988 -0.5491 -0.2286
   66CHL1    C6 7299   2.833   2.461   9.829 -0.3253 -0.0600 -0.0000
   66CHL1    H6 7300   2.747   2.484   9.894 -0.3990  3.2725 -1.0893
   66CHL1    C7 7301   2.816   2.475   9.682 -0.0926  0.1780  0.0789
   66CHL1   H7A 7302   2.716   2.433   9.662  1.1265 -2.4067 -1.0690
   66CHL1   H7B 7303   2.821   2.585   9.666  1.2548  0.0220 -0.7450
   66CHL1    C8 7304   2.926   2.404   9.601  0.6399 -0.0323  0.6241
   66CHL1    H8 7305   2.898   2.297   9.597 -1.5875  0.5304 -0.2004
   66CHL1   C14 7306   2.918   2.452   9.457  0.2407 -0.2505 -0.3840
   66CHL1   H14 7307   2.941   2.561   9.459 -0.0057 -0.2077  1.0970
   66CHL1   C15 7308   2.787   2.433   9.380 -0.5511  0.1655 -0.3791
   66CHL1  H15A 7309   2.750   2.328   9.387 -1.3041  0.4444 -0.0063
   66CHL1  H15B 7310   2.710   2.503   9.419  0.2826  1.2240 -0.6025
   66CHL1   C16 7311   2.818   2.464   9.234 -0.0801  0.1128  0.1885
   66CHL1  H16A 7312   2.769   2.380   9.181  2.1373 -0.7593 -0.6256
   66CHL1  H16B 7313   2.775   2.566   9.219 -1.9619 -0.7517 -0.5022
   66CHL1   C17 7314   2.975   2.454   9.227  0.2217 -0.6108  0.6677
   66CHL1   H17 7315   3.012   2.558   9.222 -1.3688 -0.0689 -1.6720
   66CHL1   C13 7316   3.023   2.396   9.363  0.4360  0.3980 -0.1061
   66CHL1   C18 7317   3.004   2.240   9.353  0.5375 -0.4169 -0.4281
   66CHL1  H18A 7318   2.908   2.209   9.306 -0.1941  2.2552 -0.8317
   66CHL1  H18B 7319   3.089   2.210   9.289  0.9996  0.2704 -0.1454
   66CHL1  H18C 7320   3.014   2.193   9.453  0.8180  1.0211  0.2440
   66CHL1   C12 7321   3.160   2.436   9.419  0.4941  0.2244 -0.0605
   66CHL1  H12A 7322   3.242   2.401   9.353 -0.2869  2.0673 -2.1373
   66CHL1  H12B 7323   3.173   2.546   9.419 -0.1351  0.3019 -0.0317
   66CHL1   C11 7324   3.179   2.382   9.556  0.8842  0.2641 -0.7132
   66CHL1  H11A 7325   3.168   2.271   9.557  1.8963  0.1393  1.4529
   66CHL1  H11B 7326   3.280   2.406   9.597  1.2910 -1.8074 -0.3685
   66CHL1    C9 7327   3.069   2.437   9.653  1.0340 -0.0970  0.0203
   66CHL1    H9 7328   3.080   2.548   9.657 -2.1779  0.3136  3.8657
   66CHL1   C10 7329   3.073   2.384   9.798  0.0615  0.0609 -0.2044
   66CHL1   C19 7330   3.082   2.235   9.804  0.1457  0.0552 -0.0473
   66CHL1  H19A 7331   3.174   2.210   9.746 -0.5095  0.5174 -1.3172
   66CHL1  H19B 7332   3.096   2.192   9.905  2.8844  0.4048 -0.1946
   66CHL1  H19C 7333   2.999   2.183   9.752 -0.7672  2.8925 -1.6123
   66CHL1    C1 7334   3.196   2.444   9.865 -0.0606  0.4078  0.2605
   66CHL1   H1A 7335   3.286   2.416   9.807 -0.0919 -0.1300  0.4713
   66CHL1   H1B 7336   3.190   2.555   9.863  4.2276  0.8050 -3.3912
   66CHL1    C2 7337   3.214   2.408  10.015 -0.3655 -0.3812 -0.2279
   66CHL1   H2A 7338   3.294   2.473  10.057 -2.0882  1.3288  0.5867
   66CHL1   H2B 7339   3.234   2.302  10.040 -0.0844 -0.2230  0.2377
   66CHL1   C20 7340   3.026   2.382   9.099  0.3861 -0.3708 -0.3275
   66CHL1   H20 7341   2.986   2.279   9.096 -0.9247  0.1182 -0.4432
   66CHL1   C21 7342   3.181   2.401   9.089  0.7544  0.0659  0.2192
   66CHL1  H21A 7343   3.229   2.324   9.154  0.4145  0.0733  0.4780
   66CHL1  H21B 7344   3.207   2.498   9.137 -1.9001  1.4296 -0.9089
   66CHL1  H21C 7345   3.223   2.375   8.990 -0.0853 -2.3756  0.4326
   66CHL1   C22 7346   2.967   2.448   8.968 -0.2506  0.4926 -0.0387
   66CHL1  H22A 7347   2.870   2.503   8.967 -0.8598 -0.5689 -0.9177
   66CHL1  H22B 7348   3.029   2.536   8.940  0.1758 -0.1159 -1.0230
   66CHL1   C23 7349   2.976   2.359   8.847  0.0764  0.5857 -0.1754
   66CHL1  H23A 7350   3.078   2.318   8.832  1.6721  3.6324  1.5825
   66CHL1  H23B 7351   2.907   2.273   8.860  3.4387 -1.9372  2.7946
   66CHL1   C24 7352   2.962   2.441   8.717 -0.6204 -0.4481 -0.0078
   66CHL1  H24A 7353   2.857   2.477   8.714 -0.5962 -0.4554 -2.5097
   66CHL1  H24B 7354   3.025   2.533   8.722 -0.8688 -0.2569 -0.4311
   66CHL1   C25 7355   2.983   2.355   8.594  0.1983  0.9235  0.0028
   66CHL1   H25 7356   3.085   2.315   8.615  0.6196  2.3156  0.7057
   66CHL1   C26 7357   2.898   2.230   8.576 -0.0002 -0.6385 -0.2899
   66CHL1  H26A 7358   2.792   2.263   8.573  0.6175  1.3825 -1.2070
   66CHL1  H26B 7359   2.907   2.181   8.476 -2.1590 -2.1748  0.1717
   66CHL1  H26C 7360   2.933   2.153   8.649 -0.0516 -0.7855 -0.4190
   66CHL1   C27 7361   2.985   2.434   8.458 -0.6676  0.1956 -0.2695
   66CHL1  H27A 7362   3.004   2.366   8.373  2.6430 -0.5424  0.9302
   66CHL1  H27B 7363   2.883   2.477   8.443 -0.4468 -0.2030 -3.7067
   66CHL1  H27C 7364   3.063   2.513   8.453  0.5347 -0.7907  1.7633
   67CHL1    C3 7365   0.599   2.466  10.223 -0.6581 -0.3279  0.6201
   67CHL1    H3 7366   0.700   2.428  10.197 -1.5512 -1.6711 -1.0462
   67CHL1    O3 7367   0.571   2.461  10.364  0.0085 -0.0731 -0.3295
   67CHL1   H3' 7368   0.646   2.418  10.405  0.0495  0.6473  0.3952
   67CHL1    C4 7369   0.571   2.602  10.173  0.5218 -0.2957 -0.6984
   67CHL1   H4A 7370   0.470   2.635  10.208  1.2749  1.2146  0.1364
   67CHL1   H4B 7371   0.631   2.678  10.227 -2.1999  2.0846 -0.7842
   67CHL1    C5 7372   0.582   2.623  10.019 -0.6191 -0.4246 -0.3224
   67CHL1    C6 7373   0.660   2.713   9.957 -0.1281  0.0221  0.3381
   67CHL1    H6 7374   0.717   2.785  10.019 -0.8601  0.6890  0.2535
   67CHL1    C7 7375   0.668   2.727   9.807  0.2492  0.2121  0.4372
   67CHL1   H7A 7376   0.664   2.834   9.774  1.9246 -0.1045 -0.9764
   67CHL1   H7B 7377   0.753   2.674   9.758  1.6042  1.5949  1.2032
   67CHL1    C8 7378   0.550   2.661   9.733 -0.2019  0.1303 -0.2958
   67CHL1    H8 7379   0.467   2.734   9.741 -0.7448 -0.5066 -0.0691
   67CHL1   C14 7380   0.591   2.644   9.582  0.6408  0.6821  0.3072
   67CHL1   H14 7381   0.675   2.571   9.575 -0.8090 -0.9451 -1.1786
   67CHL1   C15 7382   0.629   2.772   9.505 -0.9638  0.6790  0.8469
   67CHL1  H15A 7383   0.548   2.846   9.518 -0.8590  0.9741 -0.0877
   67CHL1  H15B 7384   0.722   2.817   9.547  0.0898  1.0354 -1.6754
   67CHL1   C16 7385   0.635   2.711   9.363  0.6191 -0.5006 -0.1255
   67CHL1  H16A 7386   0.607   2.793   9.294 -0.0590  0.3273  1.0965
   67CHL1  H16B 7387   0.740   2.683   9.338  1.5936  1.9614  0.8847
   67CHL1   C17 7388   0.552   2.582   9.363 -0.3951  0.3377  0.8212
   67CHL1   H17 7389   0.614   2.491   9.373 -0.2982  0.5854  3.1527
   67CHL1   C13 7390   0.479   2.576   9.496 -0.2910 -0.4020  0.2141
   67CHL1   C18 7391   0.344   2.653   9.495 -0.0221 -0.3063 -0.2674
   67CHL1  H18A 7392   0.345   2.748   9.438  2.2631  0.2449  0.5816
   67CHL1  H18B 7393   0.263   2.582   9.468  1.0439 -1.4688 -0.5112
   67CHL1  H18C 7394   0.327   2.687   9.599  0.8829  1.4099 -0.6551
   67CHL1   C12 7395   0.466   2.437   9.560  0.7799  1.0714 -0.2112
   67CHL1  H12A 7396   0.376   2.385   9.519  0.4323  1.4344  0.0846
   67CHL1  H12B 7397   0.555   2.372   9.552  1.0990  1.4593  0.1619
   67CHL1   C11 7398   0.419   2.447   9.707 -0.9403 -0.1070  0.6960
   67CHL1  H11A 7399   0.326   2.508   9.709 -0.4198  0.6848  1.6086
   67CHL1  H11B 7400   0.403   2.342   9.739  0.9950 -1.2528 -1.7314
   67CHL1    C9 7401   0.517   2.523   9.793  1.0077  0.8014  0.0376
   67CHL1    H9 7402   0.609   2.462   9.783  0.5461  0.3306 -1.5526
   67CHL1   C10 7403   0.483   2.526   9.946  0.6485  0.4681  0.2840
   67CHL1   C19 7404   0.332   2.563   9.970 -0.0140 -0.3354 -0.0038
   67CHL1  H19A 7405   0.305   2.571  10.078  0.9785  0.5870  0.1914
   67CHL1  H19B 7406   0.309   2.656   9.914  0.6391 -0.5687 -0.6764
   67CHL1  H19C 7407   0.266   2.484   9.927 -0.4137 -0.1020  0.1701
   67CHL1    C1 7408   0.512   2.384   9.996  0.4098 -0.2683  0.2949
   67CHL1   H1A 7409   0.429   2.320   9.959 -0.7598  1.2318  0.2275
   67CHL1   H1B 7410   0.606   2.341   9.955 -0.1484 -1.8824  0.6298
   67CHL1    C2 7411   0.508   2.368  10.152  0.3954 -0.0534 -0.1139
   67CHL1   H2A 7412   0.536   2.267  10.188  0.4531  0.6803  2.0442
   67CHL1   H2B 7413   0.405   2.380  10.193  0.3900 -1.0682  0.2023
   67CHL1   C20 7414   0.469   2.558   9.232 -0.5285  0.5585  0.1469
   67CHL1   H20 7415   0.382   2.627   9.227  0.5013  1.7925 -1.8391
   67CHL1   C21 7416   0.413   2.420   9.228  0.1892  0.1660  0.0797
   67CHL1  H21A 7417   0.336   2.407   9.148  2.6954  1.3303 -2.7425
   67CHL1  H21B 7418   0.356   2.401   9.321 -2.0477  1.1991 -1.0023
   67CHL1  H21C 7419   0.493   2.343   9.228 -0.4606 -0.5378 -0.7216
   67CHL1   C22 7420   0.551   2.574   9.100  0.1527 -0.1983 -0.0531
   67CHL1  H22A 7421   0.621   2.660   9.104 -0.1515  0.0267  0.7922
   67CHL1  H22B 7422   0.612   2.484   9.078 -1.0376 -0.7362 -1.3221
   67CHL1   C23 7423   0.459   2.605   8.979 -1.1498  0.8923 -0.5272
   67CHL1  H23A 7424   0.418   2.507   8.946 -1.1116  1.3803 -2.0934
   67CHL1  H23B 7425   0.378   2.671   9.017 -0.0397  3.1160 -1.7781
   67CHL1   C24 7426   0.524   2.674   8.855  0.2884  0.0578 -0.6041
   67CHL1  H24A 7427   0.558   2.772   8.894 -0.9699 -0.3034  1.5227
   67CHL1  H24B 7428   0.611   2.611   8.828 -0.3236 -1.5085  0.8940
   67CHL1   C25 7429   0.420   2.695   8.748 -0.5713 -0.2046  0.1958
   67CHL1   H25 7430   0.481   2.705   8.656  1.5075 -1.4500  1.3566
   67CHL1   C26 7431   0.329   2.575   8.714  0.3072 -0.2058 -0.4595
   67CHL1  H26A 7432   0.374   2.476   8.692 -0.1961 -0.1664 -1.8063
   67CHL1  H26B 7433   0.258   2.554   8.796  1.0985 -1.6745 -0.1156
   67CHL1  H26C 7434   0.272   2.600   8.621 -4.7798 -0.4715  2.2379
   67CHL1   C27 7435   0.335   2.815   8.777  0.4884  0.2413  0.1002
   67CHL1  H27A 7436   0.263   2.792   8.858 -0.4527  1.3665 -0.3819
   67CHL1  H27B 7437   0.407   2.892   8.813 -2.0339  1.4652  2.9559
   67CHL1  H27C 7438   0.275   2.857   8.694  0.8087  0.5246  0.0070
   68CHL1    C3 7439   5.484   5.342   9.994 -0.2376 -0.9917  0.0584
   68CHL1    H3 7440   5.408   5.289   9.933 -1.3868  0.0745  0.5210
   68CHL1    O3 7441   5.436   5.341  10.126  0.2493 -0.8618  0.1188
   68CHL1   H3' 7442   5.500   5.394  10.175 -0.5036  1.6198 -1.3595
   68CHL1    C4 7443   5.613   5.259   9.989 -0.1266 -0.4352  0.6639
   68CHL1   H4A 7444   5.699   5.306  10.040 -0.4475 -0.1133  0.9126
   68CHL1   H4B 7445   5.598   5.156  10.028  0.1184 -1.1141 -0.9261
   68CHL1    C5 7446   5.664   5.255   9.844  0.1787  0.2379 -0.1957
   68CHL1    C6 7447   5.681   5.136   9.785  0.7084  0.0671 -0.2084
   68CHL1    H6 7448   5.654   5.042   9.837  2.0690 -0.1180  0.2049
   68CHL1    C7 7449   5.725   5.123   9.643 -0.1836 -0.4287 -0.3066
   68CHL1   H7A 7450   5.804   5.045   9.649  3.9722  3.1546 -3.0338
   68CHL1   H7B 7451   5.641   5.084   9.581  0.5044 -1.3493 -0.6789
   68CHL1    C8 7452   5.779   5.259   9.577 -0.3326 -0.0400 -0.1045
   68CHL1    H8 7453   5.876   5.273   9.629 -0.4395 -0.2504  0.1556
   68CHL1   C14 7454   5.791   5.236   9.425 -0.0433  0.2101 -1.1972
   68CHL1   H14 7455   5.694   5.202   9.383 -0.1559 -0.7924 -0.1924
   68CHL1   C15 7456   5.885   5.124   9.367 -0.4644 -0.2750 -0.3823
   68CHL1  H15A 7457   5.979   5.124   9.426 -0.0720 -1.7942 -0.9416
   68CHL1  H15B 7458   5.835   5.027   9.387  1.3223 -1.2347 -0.4163
   68CHL1   C16 7459   5.903   5.167   9.226  0.5456 -0.2814  0.5314
   68CHL1  H16A 7460   6.014   5.169   9.215  0.6577 -1.7630  1.0833
   68CHL1  H16B 7461   5.850   5.092   9.163  1.3220  0.1648 -0.6761
   68CHL1   C17 7462   5.836   5.305   9.214 -0.2494 -0.7742  0.0387
   68CHL1   H17 7463   5.726   5.300   9.201 -0.7069 -0.0902  2.8517
   68CHL1   C13 7464   5.830   5.362   9.358  0.4354 -0.5655 -0.0272
   68CHL1   C18 7465   5.975   5.406   9.401  0.3454  0.6372  0.0680
   68CHL1  H18A 7466   5.987   5.415   9.511  2.6909  1.6068 -0.2051
   68CHL1  H18B 7467   6.051   5.336   9.361  0.3262  0.4099  0.4196
   68CHL1  H18C 7468   5.980   5.508   9.357 -1.3721  0.8728  0.3632
   68CHL1   C12 7469   5.727   5.475   9.387 -0.0870  0.3439 -0.5293
   68CHL1  H12A 7470   5.748   5.570   9.333  0.8258  0.7194  0.4504
   68CHL1  H12B 7471   5.628   5.440   9.350  0.4560  0.9713 -2.7369
   68CHL1   C11 7472   5.709   5.496   9.540  0.4752 -0.3270 -0.2767
   68CHL1  H11A 7473   5.797   5.553   9.579 -1.8881  3.0421  0.5325
   68CHL1  H11B 7474   5.618   5.559   9.550  1.5018  1.4081 -1.3190
   68CHL1    C9 7475   5.684   5.370   9.615  0.2340 -0.8023  0.1817
   68CHL1    H9 7476   5.588   5.324   9.584  0.3314 -1.0642  0.2559
   68CHL1   C10 7477   5.681   5.393   9.767  0.0627 -0.2087  0.3609
   68CHL1   C19 7478   5.813   5.455   9.818 -0.1541  0.1752  0.0512
   68CHL1  H19A 7479   5.847   5.548   9.768  0.2228 -0.7774 -1.5452
   68CHL1  H19B 7480   5.800   5.470   9.927  0.0777  2.5310 -0.2003
   68CHL1  H19C 7481   5.904   5.392   9.811 -1.4708 -2.1117  1.9089
   68CHL1    C1 7482   5.559   5.481   9.795  0.1361 -0.0799 -0.4013
   68CHL1   H1A 7483   5.590   5.587   9.780  1.0730 -0.2576  0.1841
   68CHL1   H1B 7484   5.477   5.465   9.722  0.9690  0.4709 -1.4859
   68CHL1    C2 7485   5.511   5.487   9.947 -0.4273  0.7735 -0.1379
   68CHL1   H2A 7486   5.420   5.551   9.950 -2.5127 -1.9264 -1.1347
   68CHL1   H2B 7487   5.589   5.538  10.007 -0.3102 -0.3496  0.6881
   68CHL1   C20 7488   5.906   5.390   9.108 -0.0455  0.4755  0.3269
   68CHL1   H20 7489   6.009   5.420   9.135  1.4236  1.0107 -4.8693
   68CHL1   C21 7490   5.829   5.518   9.073  0.0209 -0.5756  0.4994
   68CHL1  H21A 7491   5.878   5.566   8.986  0.0863 -0.1873  0.7492
   68CHL1  H21B 7492   5.818   5.593   9.154 -2.6539 -1.2789  0.8533
   68CHL1  H21C 7493   5.723   5.499   9.049 -0.0714  1.6958 -1.1991
   68CHL1   C22 7494   5.923   5.318   8.975 -0.2944 -0.1848 -0.0888
   68CHL1  H22A 7495   5.959   5.405   8.916  0.7848 -0.1907  0.5262
   68CHL1  H22B 7496   5.995   5.233   8.980 -1.3859 -1.0510  1.5230
   68CHL1   C23 7497   5.802   5.267   8.900 -0.0438  0.5450  0.5460
   68CHL1  H23A 7498   5.786   5.167   8.946 -2.1361 -1.1802 -3.4510
   68CHL1  H23B 7499   5.707   5.321   8.920 -1.4783 -1.6233  0.0743
   68CHL1   C24 7500   5.840   5.236   8.759 -0.3763  0.1924  0.3925
   68CHL1  H24A 7501   5.929   5.170   8.749 -0.5031  0.1770 -0.8015
   68CHL1  H24B 7502   5.765   5.171   8.709  0.4599  0.4987 -1.3436
   68CHL1   C25 7503   5.855   5.354   8.664  0.4590 -0.3139 -0.3728
   68CHL1   H25 7504   5.955   5.393   8.694  0.2035 -0.6902  1.0653
   68CHL1   C26 7505   5.877   5.301   8.522 -0.1400  0.0072 -0.1772
   68CHL1  H26A 7506   5.960   5.228   8.510 -0.3139  0.2435 -3.7364
   68CHL1  H26B 7507   5.781   5.256   8.491  0.1100 -0.9570  0.3851
   68CHL1  H26C 7508   5.888   5.385   8.451 -1.6752  0.8640  0.5624
   68CHL1   C27 7509   5.750   5.471   8.677 -0.2336  0.1168 -0.2747
   68CHL1  H27A 7510   5.782   5.543   8.599  2.0098 -1.6746 -1.1246
   68CHL1  H27B 7511   5.647   5.434   8.661 -0.8350  1.8295 -0.5784
   68CHL1  H27C 7512   5.746   5.518   8.778 -1.8559 -0.9725  0.2121
   69CHL1    C3 7513   0.251   1.623   6.756 -0.3750 -0.4736 -0.0620
   69CHL1    H3 7514   0.317   1.537   6.731  1.4634  0.4757  1.3297
   69CHL1    O3 7515   0.252   1.699   6.638  0.1709 -0.9282 -0.4240
   69CHL1   H3' 7516   0.191   1.774   6.649  2.0645  0.7467 -0.7848
   69CHL1    C4 7517   0.108   1.597   6.778 -0.3224  0.4518 -0.2218
   69CHL1   H4A 7518   0.049   1.689   6.757 -0.6834 -0.1971 -2.3070
   69CHL1   H4B 7519   0.072   1.526   6.700  1.4028  0.2550 -0.8711
   69CHL1    C5 7520   0.074   1.527   6.909 -0.3613  0.1269  0.1116
   69CHL1    C6 7521   0.012   1.407   6.923 -0.1522  0.0499  0.3077
   69CHL1    H6 7522  -0.030   1.353   6.837 -0.8649 -1.2017  1.4052
   69CHL1    C7 7523  -0.021   1.339   7.058 -0.2611 -0.6622 -0.0783
   69CHL1   H7A 7524  -0.115   1.281   7.066  0.0788 -1.0049  2.1316
   69CHL1   H7B 7525   0.056   1.261   7.076  2.0634  0.5980 -3.5083
   69CHL1    C8 7526   0.000   1.441   7.177 -0.6126  0.3163 -0.1430
   69CHL1    H8 7527  -0.088   1.509   7.172 -0.9931 -0.2353 -1.5985
   69CHL1   C14 7528  -0.000   1.354   7.307 -0.9051 -0.1903  0.2737
   69CHL1   H14 7529   0.080   1.277   7.304 -1.5564 -0.8910  0.5636
   69CHL1   C15 7530  -0.116   1.254   7.327 -0.0283  0.0474  0.1551
   69CHL1  H15A 7531  -0.213   1.292   7.287  0.2287 -0.0935 -0.6338
   69CHL1  H15B 7532  -0.090   1.154   7.286  0.9323 -0.7552  2.5296
   69CHL1   C16 7533  -0.109   1.243   7.475  0.1024 -0.1486  0.7510
   69CHL1  H16A 7534  -0.204   1.284   7.516  1.4982  2.0486  1.9688
   69CHL1  H16B 7535  -0.107   1.134   7.497  0.3106 -0.2175  0.4101
   69CHL1   C17 7536   0.006   1.326   7.533  0.5236 -0.4471 -0.4382
   69CHL1   H17 7537   0.101   1.267   7.533  2.0534  1.8322  1.0930
   69CHL1   C13 7538   0.024   1.437   7.433 -0.6111  0.5722  0.3293
   69CHL1   C18 7539  -0.067   1.554   7.452 -0.6581 -0.0060 -0.6241
   69CHL1  H18A 7540  -0.170   1.514   7.442 -0.5679  0.0935 -2.1792
   69CHL1  H18B 7541  -0.052   1.609   7.547 -0.5606 -0.3573 -0.4335
   69CHL1  H18C 7542  -0.058   1.622   7.365  1.3404 -0.6759 -1.0107
   69CHL1   C12 7543   0.170   1.491   7.415  0.1021 -0.3999  0.2094
   69CHL1  H12A 7544   0.227   1.553   7.488  0.5582 -0.6133  0.0385
   69CHL1  H12B 7545   0.229   1.397   7.416  1.4152  0.3941  1.5067
   69CHL1   C11 7546   0.193   1.573   7.289  0.1328 -0.0910 -0.1668
   69CHL1  H11A 7547   0.158   1.678   7.302  1.1189  0.8350 -3.8941
   69CHL1  H11B 7548   0.304   1.572   7.285  0.3536  3.0313  1.6135
   69CHL1    C9 7549   0.129   1.516   7.162  0.7430  0.3479  0.1424
   69CHL1    H9 7550   0.197   1.431   7.138 -0.0626 -0.4480  0.6047
   69CHL1   C10 7551   0.137   1.603   7.032 -0.0802 -0.0824 -0.6829
   69CHL1   C19 7552   0.069   1.742   7.058  0.1840 -0.4415  0.0707
   69CHL1  H19A 7553   0.044   1.787   6.960 -0.5358 -0.8910  0.0369
   69CHL1  H19B 7554  -0.028   1.733   7.113  0.3345 -1.0747  0.2442
   69CHL1  H19C 7555   0.136   1.814   7.110 -0.4312 -1.7801  2.9518
   69CHL1    C1 7556   0.283   1.636   7.002  0.0373  0.0904 -0.4820
   69CHL1   H1A 7557   0.324   1.687   7.092 -1.1651  1.2922 -0.5951
   69CHL1   H1B 7558   0.330   1.535   6.999 -4.1880 -2.0809 -2.4778
   69CHL1    C2 7559   0.311   1.701   6.868 -0.1008  0.2358  0.0282
   69CHL1   H2A 7560   0.420   1.707   6.848  0.0043 -0.7342  0.2225
   69CHL1   H2B 7561   0.271   1.804   6.875 -0.4064  0.2755 -1.8387
   69CHL1   C20 7562  -0.017   1.354   7.685  0.1611  1.1403  0.9757
   69CHL1   H20 7563  -0.086   1.440   7.700  0.3754  1.5672 -0.4043
   69CHL1   C21 7564   0.111   1.403   7.751  0.3249 -0.9351 -0.8378
   69CHL1  H21A 7565   0.193   1.329   7.761  0.1542 -0.9534  0.5176
   69CHL1  H21B 7566   0.097   1.440   7.854  2.0772  2.1134 -1.5731
   69CHL1  H21C 7567   0.156   1.483   7.687  2.6600 -1.0141  0.5726
   69CHL1   C22 7568  -0.072   1.231   7.762 -0.3749  0.3925 -0.2908
   69CHL1  H22A 7569  -0.179   1.218   7.735  0.2505 -1.7141 -1.9863
   69CHL1  H22B 7570  -0.023   1.135   7.738 -1.2630 -0.2671  0.4418
   69CHL1   C23 7571  -0.070   1.249   7.919  0.1386 -0.3366  0.1193
   69CHL1  H23A 7572   0.033   1.231   7.955 -0.4850 -0.2346  2.0692
   69CHL1  H23B 7573  -0.098   1.356   7.932  2.7310  0.3777  0.4478
   69CHL1   C24 7574  -0.161   1.155   8.006  0.1426  0.3321 -0.3121
   69CHL1  H24A 7575  -0.158   1.055   7.957 -0.5880  0.0681  0.1749
   69CHL1  H24B 7576  -0.120   1.161   8.109  1.4656  0.6363 -0.8268
   69CHL1   C25 7577  -0.314   1.199   8.017 -0.4347 -0.0095  0.4451
   69CHL1   H25 7578  -0.350   1.211   7.913  2.5201  2.1594 -0.4756
   69CHL1   C26 7579  -0.388   1.082   8.090  0.4986 -0.4482 -0.2469
   69CHL1  H26A 7580  -0.496   1.104   8.097  0.5315 -0.2397 -0.3809
   69CHL1  H26B 7581  -0.367   0.983   8.045 -1.0098 -1.2543  0.7721
   69CHL1  H26C 7582  -0.334   1.087   8.187 -2.8829  2.0167  1.7103
   69CHL1   C27 7583  -0.338   1.327   8.103  0.2334  0.3167  0.4422
   69CHL1  H27A 7584  -0.271   1.409   8.067 -0.4254 -0.6026 -3.3503
   69CHL1  H27B 7585  -0.436   1.378   8.096 -0.4619 -0.9732  0.6341
   69CHL1  H27C 7586  -0.308   1.315   8.209  2.7332  0.9771 -0.1073
   70CHL1    C3 7587   5.958   6.455   6.629  0.7853  0.1913 -0.8124
   70CHL1    H3 7588   6.030   6.523   6.681 -0.0945 -0.1925  1.0125
   70CHL1    O3 7589   6.002   6.431   6.498 -0.0630 -0.6288 -0.3706
   70CHL1   H3' 7590   5.928   6.386   6.457 -0.5150 -0.3554  0.1284
   70CHL1    C4 7591   5.956   6.310   6.695 -0.0402  0.3074 -0.3270
   70CHL1   H4A 7592   5.901   6.235   6.634  1.3711 -0.1597 -1.0544
   70CHL1   H4B 7593   6.053   6.257   6.690 -1.1560 -1.9924  0.7750
   70CHL1    C5 7594   5.888   6.308   6.833 -0.4231 -0.5839 -0.0220
   70CHL1    C6 7595   5.949   6.257   6.942 -0.3470  1.0750  0.5703
   70CHL1    H6 7596   6.044   6.214   6.908 -1.4554  0.6891 -2.3008
   70CHL1    C7 7597   5.897   6.252   7.082  0.7420 -0.2835 -0.1861
   70CHL1   H7A 7598   5.936   6.164   7.138  1.4858 -0.0292 -0.2925
   70CHL1   H7B 7599   5.952   6.335   7.130 -0.2029 -0.1239  0.6515
   70CHL1    C8 7600   5.747   6.294   7.082 -0.8389 -0.0249 -0.5338
   70CHL1    H8 7601   5.683   6.216   7.036  0.1754 -0.3819 -1.3982
   70CHL1   C14 7602   5.699   6.321   7.229 -0.4589  0.4396 -0.0373
   70CHL1   H14 7603   5.754   6.413   7.255 -2.6491  1.5732  0.8429
   70CHL1   C15 7604   5.734   6.224   7.340 -0.8087 -0.4293 -0.3413
   70CHL1  H15A 7605   5.713   6.115   7.328 -0.1826 -0.5670 -0.2170
   70CHL1  H15B 7606   5.844   6.227   7.356 -0.5708  0.0415 -1.8589
   70CHL1   C16 7607   5.656   6.273   7.458  0.0741 -0.3162  0.5451
   70CHL1  H16A 7608   5.605   6.177   7.480  1.9600 -1.6854 -0.7142
   70CHL1  H16B 7609   5.720   6.305   7.544  0.0158  0.5855  0.2677
   70CHL1   C17 7610   5.557   6.384   7.403 -0.4074  0.4089  0.3533
   70CHL1   H17 7611   5.600   6.485   7.417 -2.4352  1.1237  2.0859
   70CHL1   C13 7612   5.557   6.362   7.248  1.1413 -0.5385 -0.4332
   70CHL1   C18 7613   5.460   6.237   7.218 -0.0275  0.3212 -0.3510
   70CHL1  H18A 7614   5.476   6.152   7.287  2.0768 -0.5359 -1.7925
   70CHL1  H18B 7615   5.350   6.253   7.204 -0.0117  1.6894  0.8584
   70CHL1  H18C 7616   5.489   6.193   7.120 -1.9397  0.1357 -0.8775
   70CHL1   C12 7617   5.533   6.483   7.159  0.0639 -0.9657 -0.0579
   70CHL1  H12A 7618   5.435   6.535   7.162  1.3573  1.7298 -1.3519
   70CHL1  H12B 7619   5.610   6.556   7.190 -1.7408  1.6507 -1.3694
   70CHL1   C11 7620   5.566   6.453   7.006  0.0021 -0.5195 -0.2133
   70CHL1  H11A 7621   5.499   6.374   6.967  1.0282 -0.5849 -1.9416
   70CHL1  H11B 7622   5.541   6.547   6.952 -0.4329  1.0198  2.4717
   70CHL1    C9 7623   5.711   6.411   6.987  0.2186 -0.4962  0.7333
   70CHL1    H9 7624   5.770   6.496   7.028 -0.9706 -0.1267  1.7427
   70CHL1   C10 7625   5.762   6.386   6.838  0.4211 -0.0805  0.0037
   70CHL1   C19 7626   5.655   6.307   6.766 -0.6456  0.6262  0.5824
   70CHL1  H19A 7627   5.562   6.368   6.774 -2.7051 -2.3609  0.8600
   70CHL1  H19B 7628   5.668   6.287   6.658  0.8934 -1.4580  1.1038
   70CHL1  H19C 7629   5.626   6.212   6.816 -0.3215 -0.5526 -1.3772
   70CHL1    C1 7630   5.768   6.524   6.770 -0.3610 -0.3064  0.0145
   70CHL1   H1A 7631   5.671   6.577   6.769  0.5548  1.4621  0.1041
   70CHL1   H1B 7632   5.846   6.586   6.820 -0.8998  2.3804 -2.1947
   70CHL1    C2 7633   5.822   6.516   6.623  0.3520  0.6199  0.5516
   70CHL1   H2A 7634   5.837   6.611   6.569  1.2591 -0.0832 -0.4782
   70CHL1   H2B 7635   5.746   6.455   6.569  0.2890 -0.3925  1.7431
   70CHL1   C20 7636   5.421   6.376   7.481  0.5126  0.1386 -0.1098
   70CHL1   H20 7637   5.385   6.274   7.456 -0.6150  1.2679 -3.7365
   70CHL1   C21 7638   5.327   6.489   7.435  0.5239 -0.1171  0.4977
   70CHL1  H21A 7639   5.234   6.497   7.495 -0.0685 -3.3796  0.1996
   70CHL1  H21B 7640   5.285   6.470   7.333  0.4666 -0.6364  0.6135
   70CHL1  H21C 7641   5.383   6.584   7.439  0.7712 -0.2944  1.3506
   70CHL1   C22 7642   5.440   6.396   7.632  0.1158  0.7462  0.8321
   70CHL1  H22A 7643   5.516   6.328   7.676 -0.8522  0.5645  2.2692
   70CHL1  H22B 7644   5.459   6.500   7.665 -2.6097  2.4250 -2.1748
   70CHL1   C23 7645   5.318   6.372   7.712 -0.5222  0.0752 -0.3619
   70CHL1  H23A 7646   5.246   6.457   7.715  2.2900  2.6371  2.7275
   70CHL1  H23B 7647   5.264   6.280   7.682  0.4750 -0.4974 -0.4389
   70CHL1   C24 7648   5.360   6.357   7.861  0.4837  0.4799 -0.3610
   70CHL1  H24A 7649   5.415   6.261   7.871  0.3763  0.0923 -2.7938
   70CHL1  H24B 7650   5.437   6.433   7.889  1.1786 -0.5676  0.6784
   70CHL1   C25 7651   5.238   6.373   7.956  0.0005 -0.4550 -0.3930
   70CHL1   H25 7652   5.202   6.475   7.931  0.6135 -0.6876 -2.3891
   70CHL1   C26 7653   5.146   6.265   7.923 -0.3247 -0.1533  0.6069
   70CHL1  H26A 7654   5.103   6.280   7.821  1.2014 -1.4378 -0.2806
   70CHL1  H26B 7655   5.201   6.169   7.918 -2.4070 -1.4891  1.6569
   70CHL1  H26C 7656   5.059   6.252   7.991 -0.6709 -1.0350  0.0280
   70CHL1   C27 7657   5.275   6.365   8.106  0.5539 -0.6231  0.1345
   70CHL1  H27A 7658   5.327   6.458   8.136  3.6156 -1.9585 -0.6283
   70CHL1  H27B 7659   5.188   6.347   8.172  1.9014 -3.2931  1.3449
   70CHL1  H27C 7660   5.338   6.275   8.125  4.0553  1.9488  1.7838
   71CHL1    C3 7661   4.481   1.896   7.051  0.3974 -0.2224 -0.2729
   71CHL1    H3 7662   4.400   1.945   7.109 -0.7633 -1.8048 -0.4916
   71CHL1    O3 7663   4.452   1.900   6.913 -0.5436  0.3196 -0.0470
   71CHL1   H3' 7664   4.519   1.842   6.875  0.8797  2.3983 -0.8755
   71CHL1    C4 7665   4.617   1.968   7.076  0.3449  0.8109  0.3831
   71CHL1   H4A 7666   4.699   1.910   7.029 -0.5507 -1.7942  1.8245
   71CHL1   H4B 7667   4.615   2.069   7.030  2.1209  0.1477 -1.2749
   71CHL1    C5 7668   4.641   1.981   7.219 -0.0439  0.3274 -0.3142
   71CHL1    C6 7669   4.643   2.097   7.288  0.4879  0.0967  0.2977
   71CHL1    H6 7670   4.629   2.194   7.239 -1.5531  0.3187  1.2268
   71CHL1    C7 7671   4.658   2.115   7.437 -0.1693 -1.2151  0.1514
   71CHL1   H7A 7672   4.720   2.205   7.458 -2.0110 -0.3205  2.0920
   71CHL1   H7B 7673   4.557   2.141   7.476 -0.2041  0.7504 -1.0896
   71CHL1    C8 7674   4.723   1.989   7.499  0.5242 -0.2850  0.0283
   71CHL1    H8 7675   4.826   1.980   7.458 -0.0440 -1.5693 -1.1961
   71CHL1   C14 7676   4.707   2.005   7.653  0.8393  0.1745 -0.2315
   71CHL1   H14 7677   4.599   2.001   7.678  0.6446  3.0690 -0.2285
   71CHL1   C15 7678   4.754   2.138   7.730  0.6992 -0.2641 -0.6770
   71CHL1  H15A 7679   4.830   2.201   7.679  0.0561  0.0021 -1.3253
   71CHL1  H15B 7680   4.663   2.199   7.746  0.6907 -0.9383  2.3111
   71CHL1   C16 7681   4.801   2.086   7.865 -0.1183 -0.1120 -1.0830
   71CHL1  H16A 7682   4.910   2.094   7.882 -0.5532  3.5177  1.0133
   71CHL1  H16B 7683   4.752   2.143   7.947 -1.7288 -0.9922 -1.3907
   71CHL1   C17 7684   4.758   1.941   7.874 -0.4116 -0.4523  0.1602
   71CHL1   H17 7685   4.649   1.942   7.897 -0.9927  0.9130 -2.2940
   71CHL1   C13 7686   4.773   1.890   7.727 -0.5589  1.1115  0.0654
   71CHL1   C18 7687   4.927   1.884   7.691  0.3486  0.2950  0.3179
   71CHL1  H18A 7688   4.982   1.979   7.706  2.5997 -1.0336  1.0470
   71CHL1  H18B 7689   4.975   1.807   7.756  0.9931  0.3942 -0.0279
   71CHL1  H18C 7690   4.940   1.842   7.588 -0.0971  1.0202 -0.0408
   71CHL1   C12 7691   4.705   1.756   7.681 -0.4640 -0.2118 -0.2394
   71CHL1  H12A 7692   4.761   1.665   7.713 -2.4962 -1.5470 -0.3443
   71CHL1  H12B 7693   4.613   1.758   7.743  1.0537 -1.3806  2.2071
   71CHL1   C11 7694   4.691   1.743   7.528  0.2296 -0.2104 -0.4052
   71CHL1  H11A 7695   4.793   1.716   7.493 -0.6188 -2.5060 -1.3228
   71CHL1  H11B 7696   4.624   1.656   7.509  0.1258 -0.6716  1.7581
   71CHL1    C9 7697   4.642   1.871   7.448  0.0759  0.2378  0.2834
   71CHL1    H9 7698   4.535   1.877   7.477  0.4520 -1.9074  2.4335
   71CHL1   C10 7699   4.653   1.846   7.293 -0.3207  0.4168 -0.1412
   71CHL1   C19 7700   4.777   1.764   7.254  0.2893 -0.4011  0.3442
   71CHL1  H19A 7701   4.771   1.664   7.301 -0.3852 -0.0085  1.1161
   71CHL1  H19B 7702   4.784   1.738   7.146 -0.0324 -1.0500  0.4793
   71CHL1  H19C 7703   4.870   1.822   7.273 -1.6294  2.5287  1.4910
   71CHL1    C1 7704   4.535   1.765   7.251 -0.1683  0.5809  0.5100
   71CHL1   H1A 7705   4.545   1.661   7.291  0.9603  0.8400  0.9464
   71CHL1   H1B 7706   4.447   1.803   7.306 -0.4630 -3.8194  3.6192
   71CHL1    C2 7707   4.493   1.754   7.102 -0.2136 -0.2843 -0.4350
   71CHL1   H2A 7708   4.404   1.689   7.086  0.1066 -1.0555  0.7892
   71CHL1   H2B 7709   4.572   1.704   7.043 -1.1176 -2.3089 -0.0353
   71CHL1   C20 7710   4.829   1.856   7.980 -0.2667  0.0780 -0.5175
   71CHL1   H20 7711   4.936   1.854   7.952  0.2767 -0.1722  1.4311
   71CHL1   C21 7712   4.773   1.711   7.989 -0.6688 -0.6644  0.6854
   71CHL1  H21A 7713   4.663   1.702   7.979 -0.8669  0.4402  1.6570
   71CHL1  H21B 7714   4.794   1.653   8.082  0.6070 -2.5635 -0.6903
   71CHL1  H21C 7715   4.811   1.650   7.904 -2.0931 -3.4767  1.9292
   71CHL1   C22 7716   4.840   1.924   8.125 -0.5156  0.9316  0.4486
   71CHL1  H22A 7717   4.903   1.856   8.186 -1.3573 -0.7410 -0.4723
   71CHL1  H22B 7718   4.912   2.008   8.117 -0.8368  1.0369 -2.6188
   71CHL1   C23 7719   4.706   1.961   8.186  0.4051 -0.6591  0.6489
   71CHL1  H23A 7720   4.656   2.045   8.133 -1.2208  0.1908  3.3013
   71CHL1  H23B 7721   4.632   1.877   8.187 -1.1076  0.6260  0.8373
   71CHL1   C24 7722   4.723   2.012   8.329 -0.4586 -0.0090  0.4892
   71CHL1  H24A 7723   4.737   1.921   8.391 -1.6502 -0.0424  0.7249
   71CHL1  H24B 7724   4.815   2.075   8.331  0.7126 -1.4796 -2.5137
   71CHL1   C25 7725   4.622   2.109   8.389 -0.1409 -0.3909  0.5296
   71CHL1   H25 7726   4.519   2.076   8.367 -0.2132 -0.1619  0.5205
   71CHL1   C26 7727   4.646   2.081   8.538 -0.3479 -0.4899  0.2281
   71CHL1  H26A 7728   4.615   1.978   8.564  1.8562 -0.7796  2.0494
   71CHL1  H26B 7729   4.754   2.082   8.565 -0.0466  0.4308 -0.9448
   71CHL1  H26C 7730   4.596   2.166   8.590 -1.7778 -1.2261  0.0839
   71CHL1   C27 7731   4.646   2.256   8.352  0.1885  0.2563 -0.5340
   71CHL1  H27A 7732   4.728   2.301   8.411 -1.8102 -1.1018  3.6932
   71CHL1  H27B 7733   4.669   2.279   8.246  0.5826 -1.3037 -0.8110
   71CHL1  H27C 7734   4.553   2.314   8.374  0.3642  1.1647 -2.0548
   72CHL1    C3 7735   0.028   6.691   6.482 -0.0274  0.2774  0.0284
   72CHL1    H3 7736  -0.076   6.721   6.456 -0.4327 -0.3110  0.9241
   72CHL1    O3 7737   0.107   6.710   6.369  0.0004  0.0435 -0.2858
   72CHL1   H3' 7738   0.198   6.685   6.384 -0.5975 -3.1489 -1.1515
   72CHL1    C4 7739   0.083   6.779   6.598  0.2023  0.2685  0.6720
   72CHL1   H4A 7740   0.192   6.765   6.616  0.8577  2.4897 -1.1307
   72CHL1   H4B 7741   0.067   6.882   6.560 -1.6606 -0.2108  0.0565
   72CHL1    C5 7742  -0.010   6.747   6.712  0.4323 -0.7016 -0.1888
   72CHL1    C6 7743  -0.077   6.852   6.778  0.8315  0.8564 -0.0712
   72CHL1    H6 7744  -0.068   6.956   6.744  0.3948  0.6739 -0.7516
   72CHL1    C7 7745  -0.145   6.834   6.905  0.3657  0.4563 -0.2656
   72CHL1   H7A 7746  -0.115   6.902   6.988 -0.5856 -1.0095  1.3594
   72CHL1   H7B 7747  -0.255   6.829   6.897  0.3485 -3.4053  0.4000
   72CHL1    C8 7748  -0.116   6.701   6.975 -0.2872 -0.0281  0.3655
   72CHL1    H8 7749  -0.011   6.709   7.008 -0.2174  0.1339  0.1020
   72CHL1   C14 7750  -0.203   6.681   7.096  0.2307  1.0970  0.3191
   72CHL1   H14 7751  -0.310   6.681   7.064  0.5744 -0.4841 -0.9674
   72CHL1   C15 7752  -0.204   6.791   7.209 -0.1427 -0.6259  0.1686
   72CHL1  H15A 7753  -0.101   6.814   7.242 -0.1712 -2.3139  1.5420
   72CHL1  H15B 7754  -0.248   6.889   7.181  0.9179 -0.3832 -0.7253
   72CHL1   C16 7755  -0.285   6.725   7.320 -0.8302  0.0372 -0.5688
   72CHL1  H16A 7756  -0.253   6.761   7.420  0.6169  0.1669 -1.0558
   72CHL1  H16B 7757  -0.394   6.748   7.318 -0.7662  0.5196  0.7822
   72CHL1   C17 7758  -0.281   6.574   7.297 -0.0920  0.3645  0.8804
   72CHL1   H17 7759  -0.383   6.557   7.255 -0.3544  2.9035  0.3125
   72CHL1   C13 7760  -0.175   6.553   7.183  0.4431  0.4442  0.2756
   72CHL1   C18 7761  -0.038   6.547   7.237  0.1748  0.8449 -0.5676
   72CHL1  H18A 7762  -0.020   6.628   7.311  2.4447 -1.2778  1.4046
   72CHL1  H18B 7763  -0.002   6.456   7.291  0.7906  1.2228 -0.3339
   72CHL1  H18C 7764   0.041   6.551   7.160 -0.3760 -2.5468 -1.4618
   72CHL1   C12 7765  -0.201   6.432   7.086 -0.1239  0.1500  0.1648
   72CHL1  H12A 7766  -0.173   6.335   7.133  1.5630 -0.4929 -1.9920
   72CHL1  H12B 7767  -0.311   6.427   7.069 -0.3178 -0.5757  1.4633
   72CHL1   C11 7768  -0.135   6.438   6.950 -0.4408 -0.5894  0.1229
   72CHL1  H11A 7769  -0.033   6.403   6.976 -0.3042  0.6878  1.4425
   72CHL1  H11B 7770  -0.184   6.369   6.878  0.1902  0.4223 -1.3245
   72CHL1    C9 7771  -0.121   6.584   6.876  0.7034  0.6656 -0.7244
   72CHL1    H9 7772  -0.221   6.604   6.832 -0.3147  1.4692  1.7409
   72CHL1   C10 7773  -0.018   6.598   6.761  0.4230 -0.6055  0.2635
   72CHL1   C19 7774   0.121   6.548   6.819  0.1271  0.7865  0.2849
   72CHL1  H19A 7775   0.131   6.439   6.803  1.9660  1.0430 -0.6017
   72CHL1  H19B 7776   0.204   6.587   6.755 -0.8908  0.3106 -1.3773
   72CHL1  H19C 7777   0.131   6.583   6.924  0.1219  2.5233 -0.2500
   72CHL1    C1 7778  -0.056   6.506   6.640  0.6473  0.1862  0.1736
   72CHL1   H1A 7779  -0.043   6.397   6.660 -1.9853 -0.1244  0.5475
   72CHL1   H1B 7780  -0.164   6.525   6.622  0.9075  1.6369  0.0546
   72CHL1    C2 7781   0.029   6.537   6.519  0.3881 -0.1606 -0.2076
   72CHL1   H2A 7782   0.002   6.474   6.432 -2.1102  0.5479 -0.0272
   72CHL1   H2B 7783   0.133   6.503   6.536 -0.1511 -1.2428  1.0844
   72CHL1   C20 7784  -0.277   6.492   7.431  0.1512 -0.3732  0.9137
   72CHL1   H20 7785  -0.183   6.531   7.477 -0.3077  0.4828  1.1348
   72CHL1   C21 7786  -0.261   6.338   7.395  0.1682 -0.1616 -0.4954
   72CHL1  H21A 7787  -0.165   6.312   7.346 -0.8998 -0.9505 -2.2351
   72CHL1  H21B 7788  -0.347   6.320   7.328 -0.4444 -3.1004  0.9376
   72CHL1  H21C 7789  -0.286   6.273   7.481 -2.4388 -3.4975 -3.4727
   72CHL1   C22 7790  -0.387   6.533   7.531  0.7214  0.1581  0.0951
   72CHL1  H22A 7791  -0.367   6.640   7.554  1.6826 -0.3806  1.9855
   72CHL1  H22B 7792  -0.491   6.520   7.497 -0.3458  0.5641  2.9261
   72CHL1   C23 7793  -0.389   6.476   7.675  0.5253 -0.1742 -0.1890
   72CHL1  H23A 7794  -0.414   6.369   7.687 -0.7911  0.0951 -0.3436
   72CHL1  H23B 7795  -0.285   6.483   7.714 -0.1192 -0.1207  1.6279
   72CHL1   C24 7796  -0.492   6.548   7.762 -0.2143 -0.1700 -0.4094
   72CHL1  H24A 7797  -0.475   6.657   7.749 -0.7204  0.1253  1.2515
   72CHL1  H24B 7798  -0.598   6.536   7.733  0.2916  0.0140 -2.4954
   72CHL1   C25 7799  -0.468   6.515   7.917 -0.4979  0.1324  0.2029
   72CHL1   H25 7800  -0.472   6.406   7.938 -0.8003 -0.1319 -1.1374
   72CHL1   C26 7801  -0.334   6.571   7.970 -0.6171 -0.0317  0.2451
   72CHL1  H26A 7802  -0.327   6.673   7.926 -1.5031  0.3267  0.8955
   72CHL1  H26B 7803  -0.330   6.577   8.081 -1.0837  1.6475  0.2057
   72CHL1  H26C 7804  -0.249   6.512   7.930  0.8072  0.3193  2.5487
   72CHL1   C27 7805  -0.577   6.585   8.002  0.0235 -0.6226  1.2273
   72CHL1  H27A 7806  -0.578   6.694   7.981 -0.1012 -0.8799 -0.1930
   72CHL1  H27B 7807  -0.674   6.545   7.965  0.3533 -1.3369  1.1181
   72CHL1  H27C 7808  -0.558   6.567   8.110 -1.1354  1.5138  1.8447
   73CHL1    C3 7809   6.336   3.519   6.693  1.3796 -0.1519  0.5044
   73CHL1    H3 7810   6.341   3.409   6.679  2.9563 -0.1280  0.6210
   73CHL1    O3 7811   6.332   3.576   6.562 -0.1674  0.1776  0.7644
   73CHL1   H3' 7812   6.320   3.671   6.560 -1.5704  0.0168 -1.0522
   73CHL1    C4 7813   6.206   3.558   6.759 -0.7932  0.3518  0.2441
   73CHL1   H4A 7814   6.181   3.667   6.755 -3.6736 -0.2110  0.6199
   73CHL1   H4B 7815   6.128   3.515   6.692 -0.0972  3.0065 -2.5512
   73CHL1    C5 7816   6.195   3.494   6.894  0.2355 -0.0201  0.1321
   73CHL1    C6 7817   6.105   3.403   6.933  0.1442  0.7988 -1.4596
   73CHL1    H6 7818   6.030   3.360   6.865  0.4900 -2.0531 -0.1543
   73CHL1    C7 7819   6.082   3.344   7.074  0.1455  0.4737 -0.0555
   73CHL1   H7A 7820   5.974   3.334   7.101  0.3234 -0.3409  0.4107
   73CHL1   H7B 7821   6.130   3.244   7.087  1.2157  1.2426  2.4690
   73CHL1    C8 7822   6.155   3.436   7.180  0.6326 -0.0042  0.1642
   73CHL1    H8 7823   6.110   3.538   7.177  2.2554  0.7307 -0.2049
   73CHL1   C14 7824   6.155   3.372   7.316 -0.3292 -0.1022  0.6525
   73CHL1   H14 7825   6.208   3.274   7.305 -1.6297 -1.0159  2.0348
   73CHL1   C15 7826   6.022   3.320   7.371 -0.3383 -0.5822 -0.0385
   73CHL1  H15A 7827   5.945   3.398   7.353  0.1239 -0.3030 -0.8274
   73CHL1  H15B 7828   6.006   3.218   7.329 -1.2761  0.0379 -1.2460
   73CHL1   C16 7829   6.046   3.314   7.524 -0.3558  0.1871  0.4972
   73CHL1  H16A 7830   5.984   3.380   7.588 -0.9260 -1.5571  1.8459
   73CHL1  H16B 7831   6.016   3.212   7.556  2.1527 -0.9245 -0.4434
   73CHL1   C17 7832   6.198   3.355   7.544  0.3310 -0.3923 -0.5701
   73CHL1   H17 7833   6.245   3.255   7.530  1.9096  0.1938  0.3989
   73CHL1   C13 7834   6.234   3.444   7.423 -0.1139  0.1792 -0.5145
   73CHL1   C18 7835   6.180   3.587   7.444  0.1182  0.3963 -0.5729
   73CHL1  H18A 7836   6.070   3.600   7.433  0.0508 -0.5255 -0.9870
   73CHL1  H18B 7837   6.224   3.638   7.533  1.3986 -0.1789 -0.8527
   73CHL1  H18C 7838   6.218   3.652   7.363  0.0074 -0.5123 -1.3631
   73CHL1   C12 7839   6.381   3.444   7.368  0.1684  0.1045 -0.2627
   73CHL1  H12A 7840   6.449   3.501   7.435 -0.0353  0.7520 -0.6016
   73CHL1  H12B 7841   6.425   3.342   7.365  0.4491  0.2003  0.4479
   73CHL1   C11 7842   6.394   3.516   7.232  0.4816 -1.1768 -0.3373
   73CHL1  H11A 7843   6.380   3.625   7.246  0.7021 -1.1797 -0.1078
   73CHL1  H11B 7844   6.497   3.513   7.192  0.6004 -0.2106 -0.1045
   73CHL1    C9 7845   6.298   3.460   7.123 -0.7309 -0.3205 -0.2694
   73CHL1    H9 7846   6.334   3.358   7.097  1.8529  0.2036  0.8922
   73CHL1   C10 7847   6.308   3.536   6.991 -0.0291 -0.0089 -0.2142
   73CHL1   C19 7848   6.307   3.693   7.005 -0.3445 -0.2917 -0.4177
   73CHL1  H19A 7849   6.411   3.720   7.033 -1.3047  1.0080  2.1692
   73CHL1  H19B 7850   6.281   3.748   6.912 -1.4024  0.3424  0.2313
   73CHL1  H19C 7851   6.241   3.720   7.090 -0.5575  0.7010 -0.8803
   73CHL1    C1 7852   6.437   3.498   6.915  0.4841 -0.7975 -0.6726
   73CHL1   H1A 7853   6.521   3.516   6.986 -1.0563 -0.4216  1.1381
   73CHL1   H1B 7854   6.448   3.388   6.911 -0.9270 -1.0393  0.9063
   73CHL1    C2 7855   6.452   3.563   6.776  0.1446  0.1829 -0.4012
   73CHL1   H2A 7856   6.544   3.523   6.727  1.2720  0.9349  1.0163
   73CHL1   H2B 7857   6.475   3.671   6.786 -0.5065  0.3354 -0.5195
   73CHL1   C20 7858   6.229   3.408   7.689  0.0849 -0.2337 -0.0028
   73CHL1   H20 7859   6.166   3.498   7.708 -2.4342 -1.1249 -3.2984
   73CHL1   C21 7860   6.380   3.452   7.695  1.2392  0.8966  0.7668
   73CHL1  H21A 7861   6.398   3.552   7.651  1.8164 -0.0735 -1.3842
   73CHL1  H21B 7862   6.444   3.369   7.656  0.1757 -0.3849  1.6427
   73CHL1  H21C 7863   6.424   3.457   7.796  1.2268  1.6367  0.7427
   73CHL1   C22 7864   6.200   3.307   7.799 -0.1630 -0.5274 -1.0387
   73CHL1  H22A 7865   6.110   3.245   7.782 -1.2080  0.4986  0.5035
   73CHL1  H22B 7866   6.289   3.242   7.808 -0.2551 -0.7483 -1.6553
   73CHL1   C23 7867   6.188   3.373   7.936  0.1229 -0.0613 -0.4210
   73CHL1  H23A 7868   6.282   3.426   7.962 -0.0551  1.2980 -2.3324
   73CHL1  H23B 7869   6.110   3.452   7.946  2.1543  1.8214  1.7848
   73CHL1   C24 7870   6.160   3.271   8.047 -0.4738 -0.1251  0.3055
   73CHL1  H24A 7871   6.088   3.199   8.004  0.4368 -0.1996 -1.1471
   73CHL1  H24B 7872   6.254   3.215   8.071  1.4362  2.1928 -1.3499
   73CHL1   C25 7873   6.100   3.324   8.180 -0.1648 -0.6129 -0.4039
   73CHL1   H25 7874   6.008   3.377   8.150  0.9749  1.2500 -0.7970
   73CHL1   C26 7875   6.056   3.219   8.282  0.1040 -0.1687  0.4663
   73CHL1  H26A 7876   5.998   3.261   8.367  1.3937 -0.2477  1.4108
   73CHL1  H26B 7877   5.998   3.144   8.225  0.6284 -0.0261 -0.2651
   73CHL1  H26C 7878   6.132   3.148   8.319 -1.1816 -2.1600 -0.5505
   73CHL1   C27 7879   6.202   3.415   8.244  0.1722 -0.3617  0.2713
   73CHL1  H27A 7880   6.157   3.473   8.328 -2.1837 -4.6684  2.2824
   73CHL1  H27B 7881   6.286   3.357   8.287  0.0692 -1.2540 -0.7031
   73CHL1  H27C 7882   6.252   3.485   8.173  0.0496  1.3860  1.8365
   74CHL1    C3 7883   5.442   3.192   7.056 -0.4441 -0.5213  0.5016
   74CHL1    H3 7884   5.345   3.246   7.069 -0.8626 -1.3545  0.9007
   74CHL1    O3 7885   5.455   3.158   6.920 -0.6499 -0.4814 -0.0237
   74CHL1   H3' 7886   5.440   3.249   6.892 -3.1483 -0.9195 -0.3263
   74CHL1    C4 7887   5.571   3.273   7.089  0.4311  0.3026 -0.6858
   74CHL1   H4A 7888   5.659   3.211   7.061  0.5852 -0.3521  1.0690
   74CHL1   H4B 7889   5.553   3.364   7.029 -0.8046  1.0940  0.8086
   74CHL1    C5 7890   5.581   3.301   7.240 -0.1998 -0.4872 -0.5458
   74CHL1    C6 7891   5.597   3.424   7.281 -0.1657  0.2479  0.1215
   74CHL1    H6 7892   5.603   3.502   7.204 -0.8627 -0.8987 -1.1262
   74CHL1    C7 7893   5.620   3.462   7.422 -0.1455  0.1870 -0.1183
   74CHL1   H7A 7894   5.710   3.527   7.436 -0.8147  1.7088 -2.3892
   74CHL1   H7B 7895   5.528   3.503   7.469 -0.3384 -1.2245  0.7950
   74CHL1    C8 7896   5.658   3.336   7.516  0.0060  0.0102 -0.6681
   74CHL1    H8 7897   5.765   3.314   7.499  0.2049  0.7017 -0.3374
   74CHL1   C14 7898   5.635   3.383   7.662 -0.7487 -0.1514 -0.2328
   74CHL1   H14 7899   5.530   3.417   7.677 -0.6811  0.0126 -0.1198
   74CHL1   C15 7900   5.719   3.503   7.703 -0.3442 -0.9403 -0.5657
   74CHL1  H15A 7901   5.822   3.489   7.664 -0.0627  2.5048 -1.3739
   74CHL1  H15B 7902   5.678   3.599   7.667 -0.5855 -1.0455 -0.5769
   74CHL1   C16 7903   5.717   3.501   7.861  0.1981 -0.8645  0.3207
   74CHL1  H16A 7904   5.823   3.507   7.895 -0.3514  3.9243  1.7910
   74CHL1  H16B 7905   5.673   3.592   7.907  3.8931  0.6640  1.2202
   74CHL1   C17 7906   5.654   3.360   7.895  0.4201  0.4956  0.1082
   74CHL1   H17 7907   5.545   3.377   7.910 -0.0410 -1.2368 -0.9562
   74CHL1   C13 7908   5.667   3.270   7.765  0.1749  0.2054 -0.2130
   74CHL1   C18 7909   5.816   3.222   7.752  0.4525 -0.2916 -0.4718
   74CHL1  H18A 7910   5.827   3.203   7.643 -0.9081 -0.0054 -0.6695
   74CHL1  H18B 7911   5.891   3.298   7.782 -2.2867  2.4247 -0.0765
   74CHL1  H18C 7912   5.818   3.126   7.808  1.6096  0.0633  0.1312
   74CHL1   C12 7913   5.569   3.151   7.743  0.6624 -0.4999  0.2146
   74CHL1  H12A 7914   5.605   3.059   7.795  2.6822 -0.0351 -0.2635
   74CHL1  H12B 7915   5.463   3.178   7.763  0.9402  1.0927 -0.3200
   74CHL1   C11 7916   5.579   3.102   7.595 -0.5865  0.0410 -0.1021
   74CHL1  H11A 7917   5.682   3.063   7.579 -0.0393  0.1522  2.6314
   74CHL1  H11B 7918   5.505   3.024   7.570 -1.0951  0.5300 -0.1557
   74CHL1    C9 7919   5.570   3.221   7.483 -0.3932  0.2207  0.5237
   74CHL1    H9 7920   5.468   3.256   7.507  0.3560  0.7957  3.2644
   74CHL1   C10 7921   5.582   3.179   7.334  0.3612  0.0241  0.1893
   74CHL1   C19 7922   5.714   3.102   7.319  0.2247 -0.1066 -0.6235
   74CHL1  H19A 7923   5.730   3.080   7.211  0.5804 -0.7837 -0.4370
   74CHL1  H19B 7924   5.794   3.165   7.363 -0.9130  0.6701  0.4046
   74CHL1  H19C 7925   5.723   3.010   7.380  3.8370  1.6531  1.8503
   74CHL1    C1 7926   5.455   3.097   7.294 -0.6717  0.1001  0.8125
   74CHL1   H1A 7927   5.480   3.000   7.342  0.6569  0.2354  0.4614
   74CHL1   H1B 7928   5.359   3.138   7.330 -1.2535  0.8292 -1.4265
   74CHL1    C2 7929   5.448   3.063   7.138 -0.5089 -0.1521  0.2834
   74CHL1   H2A 7930   5.359   3.000   7.122 -0.4752 -0.1302  0.0034
   74CHL1   H2B 7931   5.535   3.005   7.100  0.2117 -0.0934  1.7544
   74CHL1   C20 7932   5.706   3.298   8.025 -0.3260  0.2308  1.0323
   74CHL1   H20 7933   5.816   3.289   8.014 -0.4127 -0.4109  0.6379
   74CHL1   C21 7934   5.643   3.163   8.054 -0.2905  0.8749 -0.1394
   74CHL1  H21A 7935   5.671   3.088   7.976  0.5334  0.8072  0.2040
   74CHL1  H21B 7936   5.535   3.172   8.075 -0.4533 -1.3683  0.2527
   74CHL1  H21C 7937   5.691   3.130   8.149 -0.1333  0.9922 -0.1768
   74CHL1   C22 7938   5.690   3.388   8.156 -0.3619  0.4983  0.8279
   74CHL1  H22A 7939   5.740   3.346   8.246 -0.8901  1.7470  1.7272
   74CHL1  H22B 7940   5.737   3.483   8.125 -0.5709  0.4678  0.3997
   74CHL1   C23 7941   5.543   3.417   8.193 -0.1486 -0.7772  0.8014
   74CHL1  H23A 7942   5.502   3.487   8.117  1.6710  0.3820  0.8356
   74CHL1  H23B 7943   5.484   3.324   8.181  1.1444 -1.5179  0.0309
   74CHL1   C24 7944   5.529   3.471   8.331 -0.3491  0.4079 -0.1593
   74CHL1  H24A 7945   5.561   3.389   8.399 -1.8703  0.6650  0.9057
   74CHL1  H24B 7946   5.598   3.557   8.343 -1.3214  0.9122  2.0782
   74CHL1   C25 7947   5.389   3.497   8.381  0.1257 -0.2137 -0.6305
   74CHL1   H25 7948   5.339   3.398   8.374 -0.1263 -0.4112  2.6372
   74CHL1   C26 7949   5.397   3.540   8.523  0.1242 -0.6576 -0.0592
   74CHL1  H26A 7950   5.479   3.486   8.574  1.5319  2.3624  1.0888
   74CHL1  H26B 7951   5.436   3.644   8.523  2.0421 -1.3227 -1.6989
   74CHL1  H26C 7952   5.299   3.519   8.571  0.2137  0.0771  0.4510
   74CHL1   C27 7953   5.302   3.601   8.310  1.4059 -0.3075  0.0913
   74CHL1  H27A 7954   5.205   3.603   8.365  2.3800 -2.0336  2.0015
   74CHL1  H27B 7955   5.344   3.704   8.310 -2.4932  1.4800  1.0117
   74CHL1  H27C 7956   5.282   3.566   8.206 -3.0182  1.5586  0.0885
   75CHL1    C3 7957   0.543   2.423   6.700 -0.2478  0.1424  0.0279
   75CHL1    H3 7958   0.469   2.343   6.716 -1.1569  1.2681  1.7566
   75CHL1    O3 7959   0.547   2.461   6.563  0.6030  0.1938  0.5098
   75CHL1   H3' 7960   0.505   2.547   6.569  0.9423  0.4009 -0.0986
   75CHL1    C4 7961   0.500   2.549   6.774 -0.7823  0.8161  0.2152
   75CHL1   H4A 7962   0.575   2.627   6.748  3.1595 -2.3390  0.9970
   75CHL1   H4B 7963   0.399   2.570   6.735 -1.3236 -1.9543 -0.0533
   75CHL1    C5 7964   0.504   2.529   6.928 -0.1264 -0.2118 -0.0389
   75CHL1    C6 7965   0.405   2.557   7.014  0.1416 -0.2759  0.5429
   75CHL1    H6 7966   0.307   2.590   6.976 -0.9318 -2.0641  1.6466
   75CHL1    C7 7967   0.402   2.531   7.155  0.2870  0.4611 -0.7066
   75CHL1   H7A 7968   0.365   2.624   7.204  0.6590  1.2320 -1.8546
   75CHL1   H7B 7969   0.334   2.444   7.164  2.5841 -1.4416 -1.0094
   75CHL1    C8 7970   0.539   2.509   7.211  0.3975 -0.3638 -0.0332
   75CHL1    H8 7971   0.599   2.600   7.232  2.0412 -1.3408 -0.3068
   75CHL1   C14 7972   0.522   2.427   7.340  0.0456  0.3246  0.4531
   75CHL1   H14 7973   0.474   2.331   7.313  0.9037  0.4743 -1.7916
   75CHL1   C15 7974   0.425   2.488   7.442 -0.4638 -0.5567 -0.5204
   75CHL1  H15A 7975   0.445   2.595   7.463  1.2248 -0.5585 -1.9367
   75CHL1  H15B 7976   0.319   2.461   7.424 -1.3149  0.3394  2.4773
   75CHL1   C16 7977   0.466   2.410   7.568 -0.1488  0.2154 -0.1408
   75CHL1  H16A 7978   0.489   2.476   7.655 -1.5812 -0.6430  0.9436
   75CHL1  H16B 7979   0.390   2.336   7.601  1.3044 -0.6880  1.3156
   75CHL1   C17 7980   0.592   2.315   7.534 -0.7185 -0.2616  0.4465
   75CHL1   H17 7981   0.554   2.222   7.488  2.4407 -0.4125 -2.2600
   75CHL1   C13 7982   0.651   2.397   7.416 -0.1041 -1.0000 -0.4783
   75CHL1   C18 7983   0.730   2.528   7.461 -0.8092  0.4503  0.0332
   75CHL1  H18A 7984   0.753   2.583   7.367 -1.2257  0.2380 -0.1999
   75CHL1  H18B 7985   0.662   2.583   7.530 -1.0969 -1.8464  1.7141
   75CHL1  H18C 7986   0.831   2.514   7.503 -0.0960  1.3604 -1.2971
   75CHL1   C12 7987   0.734   2.309   7.323 -1.0227 -0.5590  0.0131
   75CHL1  H12A 7988   0.842   2.302   7.349 -0.6976 -3.1471 -1.6880
   75CHL1  H12B 7989   0.694   2.206   7.325 -0.2115 -0.9075 -1.0130
   75CHL1   C11 7990   0.750   2.376   7.189  0.5224  1.0943  0.0321
   75CHL1  H11A 7991   0.826   2.457   7.188 -1.4887  3.0555 -0.9397
   75CHL1  H11B 7992   0.795   2.300   7.121  1.1562  1.0454  0.4920
   75CHL1    C9 7993   0.617   2.416   7.117  0.5295  0.7287 -0.6751
   75CHL1    H9 7994   0.567   2.318   7.105 -0.1964  0.8879  0.8628
   75CHL1   C10 7995   0.643   2.476   6.978  0.4102  0.0142  0.2021
   75CHL1   C19 7996   0.740   2.596   6.980 -0.0942  0.5327  0.3890
   75CHL1  H19A 7997   0.846   2.567   6.997  0.9447  3.4485 -0.4729
   75CHL1  H19B 7998   0.741   2.648   6.881  0.0040 -1.8647 -0.9558
   75CHL1  H19C 7999   0.710   2.664   7.062  0.8172  1.8106 -0.2913
   75CHL1    C1 8000   0.693   2.358   6.883 -0.4407 -0.3656  0.4124
   75CHL1   H1A 8001   0.799   2.329   6.898 -0.9204 -2.4967 -0.0036
   75CHL1   H1B 8002   0.634   2.266   6.901  1.2513 -1.9078 -1.5224
   75CHL1    C2 8003   0.684   2.380   6.729  0.4575 -0.3617  0.0589
   75CHL1   H2A 8004   0.710   2.281   6.685  1.5522 -0.9432  1.8872
   75CHL1   H2B 8005   0.759   2.456   6.699 -0.2563 -0.2359 -1.5247
   75CHL1   C20 8006   0.678   2.284   7.653  0.1768 -0.9939 -0.2338
   75CHL1   H20 8007   0.733   2.372   7.692 -1.0203 -0.7137  0.8790
   75CHL1   C21 8008   0.794   2.183   7.613 -0.2526  0.3670  0.5712
   75CHL1  H21A 8009   0.859   2.163   7.701  2.0224 -0.7639 -1.2423
   75CHL1  H21B 8010   0.862   2.232   7.540 -0.8621  0.2257 -0.0990
   75CHL1  H21C 8011   0.748   2.087   7.582 -0.5736  0.6578  0.1434
   75CHL1   C22 8012   0.583   2.239   7.776 -0.2128 -0.4029  0.8532
   75CHL1  H22A 8013   0.524   2.321   7.822 -1.3409 -0.9400  0.3998
   75CHL1  H22B 8014   0.508   2.167   7.736 -0.0788  0.8031 -1.8099
   75CHL1   C23 8015   0.655   2.163   7.882 -0.1423 -0.1648 -0.2127
   75CHL1  H23A 8016   0.694   2.066   7.841  0.3709  0.3660 -1.0278
   75CHL1  H23B 8017   0.745   2.224   7.904 -0.0213 -0.4473  0.0773
   75CHL1   C24 8018   0.561   2.145   7.997  0.0959  0.3658 -0.4296
   75CHL1  H24A 8019   0.525   2.247   8.020 -0.4403  0.0245  0.2896
   75CHL1  H24B 8020   0.470   2.088   7.969 -0.6438  1.2329  0.1634
   75CHL1   C25 8021   0.618   2.080   8.124  0.4004  0.0698 -1.7018
   75CHL1   H25 8022   0.660   1.980   8.099 -2.5831 -2.0006  0.8309
   75CHL1   C26 8023   0.731   2.167   8.187  0.4614  0.3945  0.4542
   75CHL1  H26A 8024   0.829   2.148   8.136  0.9283 -1.9345  2.0400
   75CHL1  H26B 8025   0.699   2.273   8.191 -1.2141 -0.1346  2.2218
   75CHL1  H26C 8026   0.755   2.132   8.290  1.0610 -1.4654 -0.2615
   75CHL1   C27 8027   0.505   2.081   8.231  0.0145 -0.0055  0.1749
   75CHL1  H27A 8028   0.406   2.039   8.202 -1.6615  2.2712  2.1141
   75CHL1  H27B 8029   0.540   2.027   8.321  1.9327  0.6660 -0.1331
   75CHL1  H27C 8030   0.491   2.187   8.264  1.6485 -0.4684  2.6644
   76CHL1    C3 8031   5.712   4.564   6.495  0.2025 -0.2088 -0.1948
   76CHL1    H3 8032   5.632   4.641   6.504  0.6462  0.0008  2.8359
   76CHL1    O3 8033   5.704   4.527   6.354 -0.2620 -0.2528 -0.4642
   76CHL1   H3' 8034   5.712   4.608   6.303 -2.1639  1.0751  1.2228
   76CHL1    C4 8035   5.846   4.629   6.525 -0.6555  0.0527  0.1943
   76CHL1   H4A 8036   5.922   4.549   6.514 -1.0976 -0.3117 -0.2170
   76CHL1   H4B 8037   5.872   4.709   6.452 -1.2144 -1.7673 -2.0843
   76CHL1    C5 8038   5.854   4.673   6.673 -0.4571 -0.7932 -0.3361
   76CHL1    C6 8039   5.872   4.804   6.694 -0.0158 -0.5390  0.4034
   76CHL1    H6 8040   5.893   4.871   6.609  0.7554 -2.8585 -1.3359
   76CHL1    C7 8041   5.870   4.862   6.832  0.2033  0.2291 -0.3954
   76CHL1   H7A 8042   5.956   4.933   6.834  1.8986 -1.7075 -0.3065
   76CHL1   H7B 8043   5.781   4.925   6.850  0.1371 -0.1739  0.8129
   76CHL1    C8 8044   5.881   4.760   6.946 -0.4561  0.0223  0.2048
   76CHL1    H8 8045   5.988   4.730   6.948 -0.0994  1.1760 -0.4043
   76CHL1   C14 8046   5.848   4.816   7.084 -0.0383  0.0005  0.5141
   76CHL1   H14 8047   5.740   4.839   7.068 -0.2921 -0.3863  1.6087
   76CHL1   C15 8048   5.918   4.945   7.132  0.9768 -0.0989  0.0822
   76CHL1  H15A 8049   6.026   4.932   7.106 -0.0566 -1.9615 -4.2150
   76CHL1  H15B 8050   5.875   5.032   7.078  0.1641  0.5540  1.7327
   76CHL1   C16 8051   5.888   4.953   7.280  1.0334  0.7544 -0.6185
   76CHL1  H16A 8052   5.982   4.972   7.336  1.3259 -1.4017 -0.2745
   76CHL1  H16B 8053   5.814   5.028   7.315  1.5954  1.3079 -0.6204
   76CHL1   C17 8054   5.830   4.814   7.321 -0.5074 -0.6913  0.2784
   76CHL1   H17 8055   5.719   4.823   7.321 -0.6743 -0.8729 -3.5670
   76CHL1   C13 8056   5.846   4.720   7.201 -0.2145 -0.6436  0.2123
   76CHL1   C18 8057   5.981   4.645   7.219  0.2775 -0.5537 -0.3286
   76CHL1  H18A 8058   5.972   4.576   7.305  0.7295 -0.5953 -0.3123
   76CHL1  H18B 8059   6.010   4.595   7.124  2.9130 -0.6429  0.4651
   76CHL1  H18C 8060   6.062   4.720   7.233 -1.1623  1.3609 -1.6885
   76CHL1   C12 8061   5.728   4.620   7.172 -0.0763 -0.5826  0.0202
   76CHL1  H12A 8062   5.733   4.542   7.251  2.9830  2.2831  2.9367
   76CHL1  H12B 8063   5.638   4.684   7.176 -0.3382 -0.9562  0.1864
   76CHL1   C11 8064   5.742   4.560   7.030 -0.2471 -0.2995  0.2124
   76CHL1  H11A 8065   5.836   4.504   7.042  0.0995  0.3977  0.7999
   76CHL1  H11B 8066   5.657   4.492   7.007 -0.5991 -0.2685  1.3593
   76CHL1    C9 8067   5.780   4.649   6.909 -0.3171  0.2283 -0.7082
   76CHL1    H9 8068   5.690   4.704   6.875 -0.0459 -0.2131 -2.2361
   76CHL1   C10 8069   5.821   4.565   6.782 -0.2122  0.0005  0.0983
   76CHL1   C19 8070   5.942   4.467   6.800  0.1140  0.3219  1.1725
   76CHL1  H19A 8071   6.025   4.531   6.839  1.6850  0.0067 -1.4138
   76CHL1  H19B 8072   5.911   4.376   6.855 -1.2509 -1.4751 -2.3314
   76CHL1  H19C 8073   5.963   4.431   6.697  0.8802  1.4526  0.9032
   76CHL1    C1 8074   5.692   4.497   6.736 -0.3833 -0.3861 -0.4182
   76CHL1   H1A 8075   5.664   4.411   6.801 -1.1897 -0.4257 -0.8012
   76CHL1   H1B 8076   5.611   4.574   6.735  1.1697  1.2932 -1.1716
   76CHL1    C2 8077   5.700   4.442   6.591  0.0162  0.0541  0.5659
   76CHL1   H2A 8078   5.615   4.380   6.555  0.7749  1.2835 -4.0767
   76CHL1   H2B 8079   5.790   4.379   6.576  0.3073  0.9560 -1.9947
   76CHL1   C20 8080   5.874   4.775   7.461 -0.0058 -0.1707 -0.3009
   76CHL1   H20 8081   5.983   4.758   7.462  0.0045 -0.2249  1.7519
   76CHL1   C21 8082   5.787   4.652   7.499 -0.9555  0.5233  0.0982
   76CHL1  H21A 8083   5.827   4.599   7.588 -0.5837 -2.3964 -1.6744
   76CHL1  H21B 8084   5.800   4.565   7.431  1.0317 -1.4404  2.7522
   76CHL1  H21C 8085   5.680   4.679   7.508 -0.9530  0.3869  0.6048
   76CHL1   C22 8086   5.845   4.883   7.565  0.7481 -0.0394  0.5212
   76CHL1  H22A 8087   5.895   4.981   7.558  1.0124 -0.1341  1.0079
   76CHL1  H22B 8088   5.735   4.899   7.567  0.4033 -1.7835 -1.2944
   76CHL1   C23 8089   5.885   4.846   7.704 -0.4032  0.5454 -0.6721
   76CHL1  H23A 8090   5.818   4.769   7.749  0.7972 -0.2836 -0.2473
   76CHL1  H23B 8091   5.984   4.800   7.687 -0.2681  0.7208 -0.3571
   76CHL1   C24 8092   5.899   4.953   7.810 -0.2879  0.4724  0.2440
   76CHL1  H24A 8093   5.992   5.013   7.805  0.2035 -0.2023  0.9933
   76CHL1  H24B 8094   5.815   5.026   7.807 -2.0970 -1.5253 -0.2642
   76CHL1   C25 8095   5.903   4.894   7.953  0.2454 -0.7191  0.2166
   76CHL1   H25 8096   5.814   4.829   7.967  0.3986 -0.9006  0.3398
   76CHL1   C26 8097   6.018   4.797   7.993  0.3130 -0.0786 -0.8179
   76CHL1  H26A 8098   6.015   4.699   7.940  1.4518 -0.6843  0.1806
   76CHL1  H26B 8099   6.114   4.848   7.972 -0.8784  2.3779 -0.5984
   76CHL1  H26C 8100   6.012   4.765   8.099 -1.1900 -2.5297 -1.5367
   76CHL1   C27 8101   5.899   5.014   8.050 -0.5169 -0.0307  0.3348
   76CHL1  H27A 8102   5.905   4.979   8.155  0.7445  0.4039  0.4261
   76CHL1  H27B 8103   5.988   5.078   8.031  1.3672 -2.6598 -0.3253
   76CHL1  H27C 8104   5.813   5.080   8.024 -0.7508 -1.7007 -4.0436
   77CHL1    C3 8105   6.866   3.318   6.869 -0.2143 -0.2663  0.5487
   77CHL1    H3 8106   6.822   3.420   6.868  0.3176 -0.0271 -0.7888
   77CHL1    O3 8107   6.845   3.262   6.744  0.1799 -1.0917  0.1181
   77CHL1   H3' 8108   6.881   3.334   6.691 -3.4636  3.6626  3.2090
   77CHL1    C4 8109   7.020   3.316   6.898 -0.3450  0.0342 -0.0726
   77CHL1   H4A 8110   7.044   3.208   6.885  1.2363  0.4290 -0.5467
   77CHL1   H4B 8111   7.063   3.379   6.818 -1.3614  2.2623  1.0198
   77CHL1    C5 8112   7.056   3.362   7.037  0.2167  0.1338  0.3039
   77CHL1    C6 8113   7.151   3.452   7.054  0.2590  0.1627  0.3458
   77CHL1    H6 8114   7.205   3.490   6.966  1.1666  0.0974  0.8667
   77CHL1    C7 8115   7.205   3.493   7.184 -0.2921 -0.0667 -0.3604
   77CHL1   H7A 8116   7.316   3.490   7.177 -0.3570 -2.2001 -1.4308
   77CHL1   H7B 8117   7.188   3.601   7.197  1.2828  0.3171 -1.1625
   77CHL1    C8 8118   7.156   3.404   7.297 -0.1626  0.1400  0.3556
   77CHL1    H8 8119   7.216   3.311   7.295 -0.1299  0.1550  0.5857
   77CHL1   C14 8120   7.172   3.467   7.433 -0.2685  0.5206  0.3665
   77CHL1   H14 8121   7.117   3.563   7.421 -0.6676  0.1537 -1.0070
   77CHL1   C15 8122   7.313   3.518   7.474  0.1715 -0.4110 -0.3973
   77CHL1  H15A 8123   7.383   3.432   7.462 -2.0801 -2.2897 -0.8725
   77CHL1  H15B 8124   7.335   3.613   7.421 -2.4055 -0.5864 -1.9652
   77CHL1   C16 8125   7.300   3.546   7.623 -0.3567 -0.4759 -0.0120
   77CHL1  H16A 8126   7.386   3.495   7.671 -1.0775 -2.7185 -0.9481
   77CHL1  H16B 8127   7.302   3.657   7.627 -1.9224 -0.3746 -1.0836
   77CHL1   C17 8128   7.156   3.495   7.668 -0.0918  0.0131  0.9492
   77CHL1   H17 8129   7.082   3.577   7.663 -1.6328 -1.3840 -2.5432
   77CHL1   C13 8130   7.111   3.395   7.550 -0.6085  0.3441 -0.1038
   77CHL1   C18 8131   7.196   3.261   7.561  0.3821  1.1548 -0.2841
   77CHL1  H18A 8132   7.299   3.273   7.600  0.0457 -3.3737  2.8638
   77CHL1  H18B 8133   7.145   3.196   7.636  2.2216 -1.2143 -0.9604
   77CHL1  H18C 8134   7.211   3.208   7.465  1.2057 -1.2297  1.0664
   77CHL1   C12 8135   6.964   3.375   7.537 -0.1542  0.1685  0.0254
   77CHL1  H12A 8136   6.924   3.314   7.622 -2.1337  1.7681  0.3235
   77CHL1  H12B 8137   6.909   3.471   7.536 -1.7772 -0.7094  0.7605
   77CHL1   C11 8138   6.935   3.302   7.409 -0.4638 -0.5340  0.8404
   77CHL1  H11A 8139   6.973   3.197   7.411 -2.0445 -1.2160 -1.1042
   77CHL1  H11B 8140   6.825   3.316   7.397 -0.8553 -2.0337  2.2560
   77CHL1    C9 8141   7.003   3.365   7.282 -0.1022 -0.3944  0.2925
   77CHL1    H9 8142   6.963   3.468   7.276 -1.7383 -0.9575  0.9187
   77CHL1   C10 8143   6.979   3.291   7.144 -0.0817  0.0743 -0.3809
   77CHL1   C19 8144   7.016   3.143   7.158 -0.1608  0.5337  0.0347
   77CHL1  H19A 8145   7.014   3.090   7.061 -1.5027 -1.8832  1.2695
   77CHL1  H19B 8146   7.118   3.132   7.202 -0.1896 -0.7170 -0.1821
   77CHL1  H19C 8147   6.954   3.086   7.231  3.0223 -2.5176  0.6576
   77CHL1    C1 8148   6.827   3.288   7.114  0.2545 -0.0856  0.0213
   77CHL1   H1A 8149   6.769   3.233   7.191 -0.8792  0.0049 -0.7422
   77CHL1   H1B 8150   6.786   3.390   7.127 -0.7133  0.1598 -3.7911
   77CHL1    C2 8151   6.789   3.230   6.982 -0.2939 -0.5513 -0.1171
   77CHL1   H2A 8152   6.682   3.242   6.956 -0.0105 -1.4710 -1.9004
   77CHL1   H2B 8153   6.829   3.126   6.974  0.9592 -0.2411  1.5920
   77CHL1   C20 8154   7.149   3.437   7.808 -0.8487 -0.5037  0.0494
   77CHL1   H20 8155   7.052   3.386   7.823 -1.0837  0.3160  1.5425
   77CHL1   C21 8156   7.153   3.561   7.899 -0.4837  1.3695 -0.0676
   77CHL1  H21A 8157   7.085   3.643   7.869 -2.6125  0.3549  1.7136
   77CHL1  H21B 8158   7.255   3.605   7.905 -1.0164  2.6106  0.2221
   77CHL1  H21C 8159   7.130   3.536   8.005  1.7697 -1.2002 -0.0392
   77CHL1   C22 8160   7.265   3.339   7.859 -0.5134  0.7233  0.4443
   77CHL1  H22A 8161   7.286   3.258   7.786  0.1453  1.8032 -0.5958
   77CHL1  H22B 8162   7.358   3.397   7.877  0.3883 -0.2273 -0.9476
   77CHL1   C23 8163   7.231   3.277   7.995  0.2021 -0.0353  0.0030
   77CHL1  H23A 8164   7.316   3.221   8.038  0.2500  0.1967  0.2133
   77CHL1  H23B 8165   7.217   3.347   8.080 -1.0031  0.2796 -0.4334
   77CHL1   C24 8166   7.101   3.182   7.995 -0.0868 -0.0208  0.2193
   77CHL1  H24A 8167   7.025   3.262   7.982  0.5968  0.5590 -0.3023
   77CHL1  H24B 8168   7.106   3.111   7.909 -1.5235  1.0093 -0.7579
   77CHL1   C25 8169   7.068   3.111   8.133  0.3937  0.1916 -0.1397
   77CHL1   H25 8170   7.159   3.093   8.195  0.0001  3.3652  1.5535
   77CHL1   C26 8171   6.982   3.198   8.226 -0.1921 -0.3633  0.5967
   77CHL1  H26A 8172   7.051   3.283   8.245  1.1264 -1.0882 -0.6689
   77CHL1  H26B 8173   6.883   3.234   8.192  0.9365  2.5787  0.1159
   77CHL1  H26C 8174   6.971   3.152   8.327 -0.9616  0.6794  1.0004
   77CHL1   C27 8175   6.991   2.980   8.106  0.2082  0.3167  0.2891
   77CHL1  H27A 8176   6.950   2.938   8.201  1.4034  0.3589  0.8413
   77CHL1  H27B 8177   6.920   3.012   8.027  2.6206 -0.8275 -2.5346
   77CHL1  H27C 8178   7.048   2.896   8.062 -1.8814  0.6324 -3.4021
   78CHL1    C3 8179   3.054   3.508   7.419 -0.9197 -0.8146 -0.4484
   78CHL1    H3 8180   3.155   3.540   7.454 -1.0808  0.7878 -1.3364
   78CHL1    O3 8181   3.061   3.459   7.290 -0.1317 -0.3363  0.7940
   78CHL1   H3' 8182   3.117   3.521   7.241 -0.9603 -0.3785 -0.2358
   78CHL1    C4 8183   2.995   3.403   7.511  0.5561  0.1465 -0.4700
   78CHL1   H4A 8184   2.906   3.366   7.456  1.6919  0.0287 -2.3458
   78CHL1   H4B 8185   3.069   3.319   7.512 -1.0133 -1.2761  0.3995
   78CHL1    C5 8186   2.952   3.450   7.646 -0.2637  0.2438  0.4110
   78CHL1    C6 8187   2.990   3.390   7.759 -0.2744 -0.4137 -0.0550
   78CHL1    H6 8188   3.066   3.311   7.750  2.4482  2.2018 -1.7213
   78CHL1    C7 8189   2.952   3.428   7.896 -0.4977  0.1471 -0.4362
   78CHL1   H7A 8190   2.914   3.329   7.931 -0.4767 -0.2441 -1.4756
   78CHL1   H7B 8191   3.044   3.466   7.943 -1.6378  0.1278  1.9452
   78CHL1    C8 8192   2.838   3.540   7.896 -0.3528  0.3076  0.2286
   78CHL1    H8 8193   2.740   3.492   7.874  0.8044 -2.2194  0.1885
   78CHL1   C14 8194   2.823   3.612   8.032  0.2613 -0.5475 -0.4644
   78CHL1   H14 8195   2.924   3.648   8.061  0.2946  0.4073 -1.6360
   78CHL1   C15 8196   2.798   3.525   8.159  0.0083 -0.2727 -0.2265
   78CHL1  H15A 8197   2.713   3.460   8.129 -0.1858  1.0044 -2.6113
   78CHL1  H15B 8198   2.881   3.456   8.185  0.2956 -0.4423 -1.5534
   78CHL1   C16 8199   2.741   3.628   8.262  0.0537  0.0925 -0.1573
   78CHL1  H16A 8200   2.643   3.582   8.285  0.7528 -1.0464  0.6868
   78CHL1  H16B 8201   2.804   3.630   8.354  0.0480 -2.3080 -0.0252
   78CHL1   C17 8202   2.730   3.763   8.186  0.0821 -0.6649 -0.7484
   78CHL1   H17 8203   2.826   3.817   8.196 -1.3342  1.5747  2.3400
   78CHL1   C13 8204   2.719   3.726   8.036 -0.2918  0.9551  0.5626
   78CHL1   C18 8205   2.583   3.663   7.999 -0.1529  0.0498 -0.9880
   78CHL1  H18A 8206   2.590   3.605   7.904  0.1869  0.5363 -1.2615
   78CHL1  H18B 8207   2.551   3.584   8.070 -0.5976  0.9947 -0.1242
   78CHL1  H18C 8208   2.511   3.747   7.995  0.0494  0.2421 -0.6468
   78CHL1   C12 8209   2.766   3.837   7.929 -0.0659  0.0671 -0.2237
   78CHL1  H12A 8210   2.688   3.917   7.925  0.4524  0.5347 -2.6261
   78CHL1  H12B 8211   2.861   3.876   7.973  0.7827 -1.9294 -0.2142
   78CHL1   C11 8212   2.785   3.775   7.792 -0.2343 -0.2057 -0.1718
   78CHL1  H11A 8213   2.683   3.760   7.751 -1.4947 -0.7704  2.9456
   78CHL1  H11B 8214   2.830   3.855   7.729  1.4426  0.8965  2.2629
   78CHL1    C9 8215   2.873   3.642   7.787  0.0340 -0.1257  0.4136
   78CHL1    H9 8216   2.975   3.677   7.816 -0.4979  0.2636  1.9066
   78CHL1   C10 8217   2.867   3.584   7.644 -0.4601  0.2379  0.1390
   78CHL1   C19 8218   2.726   3.544   7.602 -0.1496  0.1645 -0.1303
   78CHL1  H19A 8219   2.730   3.509   7.497  2.3926 -1.3499  0.4008
   78CHL1  H19B 8220   2.672   3.466   7.660 -2.8525  0.0963 -2.4940
   78CHL1  H19C 8221   2.655   3.630   7.600  1.4865  1.7133  2.4577
   78CHL1    C1 8222   2.928   3.689   7.545  0.0947  0.4752 -0.5553
   78CHL1   H1A 8223   2.855   3.773   7.537 -1.0147 -0.5547 -1.7381
   78CHL1   H1B 8224   3.026   3.721   7.586 -0.4196  0.0475  1.0597
   78CHL1    C2 8225   2.966   3.635   7.408  0.0500  0.1063  0.1368
   78CHL1   H2A 8226   3.019   3.709   7.344  0.3501  0.8964  1.2630
   78CHL1   H2B 8227   2.877   3.607   7.348 -0.3916  0.2085  0.7328
   78CHL1   C20 8228   2.619   3.860   8.235  0.2702  0.4255 -0.1295
   78CHL1   H20 8229   2.524   3.817   8.198 -0.1436  0.7340  0.5548
   78CHL1   C21 8230   2.651   4.004   8.188 -0.4205 -0.4785 -0.2805
   78CHL1  H21A 8231   2.593   4.090   8.227  0.9601  1.3551 -2.0449
   78CHL1  H21B 8232   2.634   4.011   8.078  1.1605  0.3094 -0.4958
   78CHL1  H21C 8233   2.760   4.017   8.205 -0.5913  0.4725  0.1125
   78CHL1   C22 8234   2.599   3.862   8.389 -0.0105 -0.6117  0.0806
   78CHL1  H22A 8235   2.495   3.889   8.419 -0.4101 -2.2955  0.3073
   78CHL1  H22B 8236   2.586   3.756   8.417 -0.9665 -1.4459 -3.1454
   78CHL1   C23 8237   2.715   3.930   8.457 -0.6276  0.0624 -0.9068
   78CHL1  H23A 8238   2.810   3.914   8.403 -1.4366 -0.2364 -2.3017
   78CHL1  H23B 8239   2.706   4.041   8.456  1.1252  0.2551  0.2596
   78CHL1   C24 8240   2.751   3.877   8.598 -0.1116 -0.3504  0.1093
   78CHL1  H24A 8241   2.781   3.773   8.571 -0.6204 -1.4598  3.3374
   78CHL1  H24B 8242   2.842   3.922   8.642 -0.5425  0.5509  0.1010
   78CHL1   C25 8243   2.629   3.882   8.686  0.4443  0.3068 -0.4702
   78CHL1   H25 8244   2.546   3.842   8.623  0.0420  1.8153 -0.9475
   78CHL1   C26 8245   2.638   3.802   8.816 -0.4025  0.2579  0.3405
   78CHL1  H26A 8246   2.654   3.693   8.803  2.0910  0.7261 -1.2556
   78CHL1  H26B 8247   2.716   3.834   8.888 -0.4043 -0.6118  0.7384
   78CHL1  H26C 8248   2.540   3.814   8.866 -1.2495  1.8282 -1.5216
   78CHL1   C27 8249   2.595   4.025   8.728  0.1183  0.0906  0.2116
   78CHL1  H27A 8250   2.568   4.095   8.646 -1.5796 -1.0010 -0.2052
   78CHL1  H27B 8251   2.492   4.025   8.771 -0.4190 -2.2177 -0.9079
   78CHL1  H27C 8252   2.674   4.066   8.795 -1.0014  2.1187  0.3856
   79CHL1    C3 8253   6.789   5.822   6.677 -0.4632  0.0800  0.3140
   79CHL1    H3 8254   6.685   5.842   6.642 -0.5699 -0.4847  0.2913
   79CHL1    O3 8255   6.875   5.834   6.563 -0.3195  0.2320 -0.4116
   79CHL1   H3' 8256   6.956   5.789   6.587 -0.6455 -0.4309 -0.5284
   79CHL1    C4 8257   6.848   5.915   6.792 -0.2664 -0.5517  0.2365
   79CHL1   H4A 8258   6.954   5.884   6.803  0.1882  1.1650  1.1884
   79CHL1   H4B 8259   6.850   6.018   6.749 -0.2924  0.0367  1.5753
   79CHL1    C5 8260   6.769   5.909   6.922  0.3169 -0.2045  0.3888
   79CHL1    C6 8261   6.717   6.022   6.981  0.5222 -0.0172 -0.3554
   79CHL1    H6 8262   6.711   6.123   6.937 -0.9492  0.9031  1.7646
   79CHL1    C7 8263   6.648   6.004   7.117  0.4372 -0.5652  0.3698
   79CHL1   H7A 8264   6.681   6.091   7.178  0.3510  0.2406 -0.6896
   79CHL1   H7B 8265   6.538   6.019   7.108  0.6554  0.5560 -0.7284
   79CHL1    C8 8266   6.679   5.879   7.196 -0.0616 -0.1739  0.0178
   79CHL1    H8 8267   6.784   5.889   7.229  0.8565 -1.4186 -2.3290
   79CHL1   C14 8268   6.575   5.863   7.300  0.1367 -0.3106 -0.0156
   79CHL1   H14 8269   6.478   5.856   7.245  0.7682 -1.5603 -1.0114
   79CHL1   C15 8270   6.561   5.971   7.404  0.0676 -0.2353 -0.7239
   79CHL1  H15A 8271   6.663   5.998   7.440  0.1535 -0.1289 -1.0417
   79CHL1  H15B 8272   6.510   6.062   7.366  0.2389 -0.4712 -1.5235
   79CHL1   C16 8273   6.489   5.910   7.521  0.2012 -0.2844  0.6352
   79CHL1  H16A 8274   6.547   5.922   7.615 -0.3236 -2.2683  1.2762
   79CHL1  H16B 8275   6.388   5.954   7.539 -0.0524 -1.2096  1.6367
   79CHL1   C17 8276   6.488   5.755   7.498  0.2222  0.0226 -0.1740
   79CHL1   H17 8277   6.391   5.723   7.455 -0.4839 -0.7033  1.8353
   79CHL1   C13 8278   6.589   5.739   7.380  0.2356  0.1603  0.2874
   79CHL1   C18 8279   6.730   5.728   7.447  0.0167  0.3986 -0.1208
   79CHL1  H18A 8280   6.819   5.735   7.380  0.8204  2.1485  1.0380
   79CHL1  H18B 8281   6.752   5.816   7.511  1.0816 -0.2302  0.4059
   79CHL1  H18C 8282   6.740   5.639   7.513 -1.5969  0.2741 -0.0163
   79CHL1   C12 8283   6.557   5.620   7.281  0.7234 -0.3683 -0.2723
   79CHL1  H12A 8284   6.567   5.523   7.335 -1.5468  0.0398  0.9739
   79CHL1  H12B 8285   6.453   5.628   7.244  1.0693  0.8298 -1.0373
   79CHL1   C11 8286   6.641   5.621   7.157 -0.4329  0.3278 -0.5164
   79CHL1  H11A 8287   6.744   5.598   7.194 -0.4961  0.2248 -0.4053
   79CHL1  H11B 8288   6.609   5.547   7.081  2.4944 -0.3231 -1.2467
   79CHL1    C9 8289   6.668   5.763   7.095 -0.5988  0.4593  0.7024
   79CHL1    H9 8290   6.567   5.776   7.051  0.0778 -0.5095 -1.2456
   79CHL1   C10 8291   6.767   5.763   6.979  0.9086 -0.6567 -0.3887
   79CHL1   C19 8292   6.907   5.718   7.017 -0.4311  0.2761  0.1057
   79CHL1  H19A 8293   6.948   5.782   7.098 -1.1039 -2.1428  2.4901
   79CHL1  H19B 8294   6.911   5.614   7.055  0.3345  1.1473  2.6470
   79CHL1  H19C 8295   6.973   5.722   6.928 -2.0372 -1.0517 -1.1962
   79CHL1    C1 8296   6.715   5.666   6.866  0.3044 -0.4293  0.8237
   79CHL1   H1A 8297   6.711   5.562   6.905  0.4766 -0.7103  0.1202
   79CHL1   H1B 8298   6.607   5.688   6.850  0.1086 -0.9477  1.4054
   79CHL1    C2 8299   6.785   5.673   6.731  1.0176 -0.0137  0.0744
   79CHL1   H2A 8300   6.734   5.612   6.654 -2.0163 -0.4501  2.2682
   79CHL1   H2B 8301   6.892   5.643   6.742  1.6173  2.0127  0.1244
   79CHL1   C20 8302   6.513   5.681   7.639  0.2958 -0.4483  0.6689
   79CHL1   H20 8303   6.611   5.706   7.686  1.2265 -0.6557 -1.0488
   79CHL1   C21 8304   6.520   5.528   7.611  1.0760 -0.3674 -0.2720
   79CHL1  H21A 8305   6.617   5.492   7.571  1.7195  1.5696 -0.5409
   79CHL1  H21B 8306   6.442   5.496   7.538  0.6999  1.8731 -0.9044
   79CHL1  H21C 8307   6.504   5.468   7.704 -0.5260  1.7860  0.9216
   79CHL1   C22 8308   6.407   5.709   7.746  0.1138  0.1020 -0.5136
   79CHL1  H22A 8309   6.425   5.654   7.840 -0.0207  1.2517  0.1994
   79CHL1  H22B 8310   6.403   5.815   7.780  0.1979  0.2999 -1.1044
   79CHL1   C23 8311   6.261   5.684   7.700  0.3398  0.4291  0.8380
   79CHL1  H23A 8312   6.241   5.742   7.608 -2.5776 -1.6330  0.0196
   79CHL1  H23B 8313   6.247   5.581   7.661 -3.9808  0.8583  0.7755
   79CHL1   C24 8314   6.160   5.715   7.808 -1.0381  0.1831  0.7458
   79CHL1  H24A 8315   6.185   5.639   7.884  0.6642 -1.3126 -1.1948
   79CHL1  H24B 8316   6.158   5.820   7.844  0.4500  0.0389  1.2956
   79CHL1   C25 8317   6.012   5.689   7.770  0.6704  0.5531  0.2711
   79CHL1   H25 8318   5.992   5.582   7.746  1.8819  0.4672 -0.4619
   79CHL1   C26 8319   5.909   5.730   7.881 -0.1675 -0.1541 -0.2846
   79CHL1  H26A 8320   5.879   5.835   7.862 -3.8483 -1.2647 -1.5541
   79CHL1  H26B 8321   5.814   5.674   7.866 -0.0093 -1.0816  1.8498
   79CHL1  H26C 8322   5.954   5.726   7.982  0.6798  2.7323 -0.4719
   79CHL1   C27 8323   5.960   5.758   7.642  0.1707  0.0008 -0.3210
   79CHL1  H27A 8324   5.974   5.868   7.654 -0.7546 -0.0911  2.0195
   79CHL1  H27B 8325   6.009   5.709   7.555 -0.4703  2.2920 -2.0760
   79CHL1  H27C 8326   5.850   5.748   7.634  0.3191 -0.5865 -2.0145
   80CHL1    C3 8327   5.308   1.802   6.618 -1.4173 -0.3524  0.1242
   80CHL1    H3 8328   5.316   1.692   6.608  0.3182 -0.1636 -0.9065
   80CHL1    O3 8329   5.285   1.848   6.484 -0.0900  0.0147 -0.1998
   80CHL1   H3' 8330   5.294   1.944   6.482 -2.0878  0.2503 -0.1242
   80CHL1    C4 8331   5.190   1.833   6.703  0.8377 -0.1453  0.1731
   80CHL1   H4A 8332   5.156   1.939   6.704 -0.8120 -0.6391  2.0022
   80CHL1   H4B 8333   5.103   1.788   6.650  0.4895  1.8932 -1.0955
   80CHL1    C5 8334   5.216   1.787   6.847  0.2970  0.3390 -0.1762
   80CHL1    C6 8335   5.130   1.704   6.913 -0.4869 -0.6268  0.5353
   80CHL1    H6 8336   5.041   1.678   6.853  0.4392  1.8034 -2.0897
   80CHL1    C7 8337   5.141   1.658   7.055  0.3665  0.2842  0.1577
   80CHL1   H7A 8338   5.041   1.644   7.102 -1.4539  1.2868 -3.0676
   80CHL1   H7B 8339   5.190   1.559   7.049 -0.4948 -0.3364  2.4071
   80CHL1    C8 8340   5.238   1.750   7.131  0.3002  0.0996 -0.1576
   80CHL1    H8 8341   5.183   1.846   7.139  2.6270  1.5850 -0.8545
   80CHL1   C14 8342   5.268   1.696   7.268  0.2971 -0.0467 -0.3305
   80CHL1   H14 8343   5.329   1.605   7.250 -0.0851  0.3077 -4.4584
   80CHL1   C15 8344   5.142   1.667   7.355 -0.7925 -0.4130 -0.5414
   80CHL1  H15A 8345   5.076   1.757   7.351  0.4176  0.6328  1.3102
   80CHL1  H15B 8346   5.081   1.578   7.327 -1.1434 -0.5581  0.6237
   80CHL1   C16 8347   5.191   1.662   7.497 -0.4380 -0.4987  0.4118
   80CHL1  H16A 8348   5.122   1.721   7.561  0.1073 -0.0643  0.6108
   80CHL1  H16B 8349   5.191   1.558   7.536 -2.4802 -0.6283  0.1805
   80CHL1   C17 8350   5.337   1.728   7.503 -0.3427 -0.4852  0.5426
   80CHL1   H17 8351   5.409   1.643   7.493 -1.8565 -1.7029 -0.4683
   80CHL1   C13 8352   5.346   1.795   7.364  0.2309  0.7374 -0.1607
   80CHL1   C18 8353   5.288   1.931   7.364  0.0007 -0.1150  0.0079
   80CHL1  H18A 8354   5.186   1.928   7.408 -0.0291  0.9148  0.0215
   80CHL1  H18B 8355   5.342   2.002   7.429 -1.2107 -1.8922  3.1916
   80CHL1  H18C 8356   5.274   1.974   7.263 -0.4477 -2.0768 -0.8231
   80CHL1   C12 8357   5.484   1.795   7.299  0.2398  0.3734  0.2991
   80CHL1  H12A 8358   5.557   1.856   7.356  1.6855 -0.7492 -0.2755
   80CHL1  H12B 8359   5.525   1.693   7.283 -0.0382  0.5813 -2.0994
   80CHL1   C11 8360   5.478   1.844   7.147  0.1282 -0.1516 -1.0410
   80CHL1  H11A 8361   5.467   1.954   7.153  1.9848 -0.0116  1.2677
   80CHL1  H11B 8362   5.581   1.838   7.107  0.5888 -3.0570  0.2987
   80CHL1    C9 8363   5.370   1.773   7.058 -0.2429  0.2992  0.5156
   80CHL1    H9 8364   5.403   1.669   7.035 -2.7035 -0.3773 -0.2915
   80CHL1   C10 8365   5.342   1.836   6.918  0.6611  0.4914 -0.0147
   80CHL1   C19 8366   5.328   1.990   6.936  0.3409  0.5546 -0.0424
   80CHL1  H19A 8367   5.429   2.030   6.958 -0.2266  1.4618  1.0612
   80CHL1  H19B 8368   5.292   2.038   6.843 -0.1734  1.0676  0.4085
   80CHL1  H19C 8369   5.256   2.013   7.018  0.4893  1.4534 -0.1471
   80CHL1    C1 8370   5.454   1.804   6.823 -0.2867 -0.3223  0.3912
   80CHL1   H1A 8371   5.551   1.851   6.851  0.1051 -1.5539  1.2205
   80CHL1   H1B 8372   5.472   1.695   6.814  2.3913  0.2048 -2.4814
   80CHL1    C2 8373   5.435   1.866   6.679  0.8720  0.0651 -0.4235
   80CHL1   H2A 8374   5.528   1.863   6.618  0.0516  1.2862 -1.8010
   80CHL1   H2B 8375   5.417   1.975   6.691 -1.5010 -0.2454 -0.6717
   80CHL1   C20 8376   5.367   1.812   7.627 -0.0115  0.5483 -0.1970
   80CHL1   H20 8377   5.311   1.907   7.614 -3.7169 -1.2264  1.3758
   80CHL1   C21 8378   5.520   1.835   7.651  0.5094 -0.1876 -0.0883
   80CHL1  H21A 8379   5.541   1.905   7.734 -0.2700 -0.8163  0.6530
   80CHL1  H21B 8380   5.559   1.888   7.562 -0.5437  2.5425  0.9948
   80CHL1  H21C 8381   5.566   1.735   7.667  1.2475  0.1593  0.0055
   80CHL1   C22 8382   5.306   1.751   7.755  0.0544 -0.0930  0.3542
   80CHL1  H22A 8383   5.200   1.786   7.756 -1.2998 -3.7459 -0.7978
   80CHL1  H22B 8384   5.303   1.640   7.756 -1.2439 -0.0723  0.4334
   80CHL1   C23 8385   5.360   1.802   7.885 -0.0343 -0.1396 -0.8584
   80CHL1  H23A 8386   5.459   1.755   7.900 -0.7946 -1.0280  1.9524
   80CHL1  H23B 8387   5.356   1.913   7.886  2.3653  0.0078  1.3072
   80CHL1   C24 8388   5.285   1.750   8.007  0.5772 -0.0821 -0.0153
   80CHL1  H24A 8389   5.181   1.778   7.982  0.3253  0.3118  1.4041
   80CHL1  H24B 8390   5.291   1.640   7.995 -2.1439 -0.1678 -1.3746
   80CHL1   C25 8391   5.339   1.803   8.136  0.4170 -0.2203  0.2364
   80CHL1   H25 8392   5.447   1.780   8.147  0.4546  0.4659  1.4899
   80CHL1   C26 8393   5.318   1.953   8.159  0.8234 -0.1701  0.3666
   80CHL1  H26A 8394   5.336   2.025   8.076 -1.4198  0.9969  0.8316
   80CHL1  H26B 8395   5.211   1.972   8.181  0.7374 -1.7437  1.4494
   80CHL1  H26C 8396   5.376   2.003   8.240  0.1708  0.7387  0.2921
   80CHL1   C27 8397   5.278   1.734   8.262 -0.0840  0.4412  0.0007
   80CHL1  H27A 8398   5.319   1.783   8.353  1.9198 -0.1461 -0.5312
   80CHL1  H27B 8399   5.168   1.749   8.260 -0.1215  0.2027 -2.0041
   80CHL1  H27C 8400   5.308   1.627   8.267  0.5521  0.6001 -0.2550
   81CHL1    C3 8401   1.783   1.349   6.683 -0.7278  0.1997  0.2163
   81CHL1    H3 8402   1.839   1.258   6.715 -2.3973 -0.7962  0.4534
   81CHL1    O3 8403   1.717   1.320   6.564 -0.0093  0.4022 -0.7501
   81CHL1   H3' 8404   1.658   1.395   6.551 -0.4995 -0.1401 -1.8765
   81CHL1    C4 8405   1.670   1.369   6.790  0.8242 -0.3330 -0.0423
   81CHL1   H4A 8406   1.609   1.453   6.750 -0.2117 -0.6700  0.7872
   81CHL1   H4B 8407   1.610   1.275   6.790 -0.1749  0.2907  0.4481
   81CHL1    C5 8408   1.733   1.410   6.918 -0.3282 -0.5139 -0.1416
   81CHL1    C6 8409   1.710   1.335   7.022 -0.1563  0.9577 -0.3445
   81CHL1    H6 8410   1.652   1.242   7.015  2.4256 -0.7662 -0.4267
   81CHL1    C7 8411   1.753   1.370   7.161 -0.5024 -0.3535  0.0458
   81CHL1   H7A 8412   1.667   1.376   7.231 -1.7352  1.3337 -1.5456
   81CHL1   H7B 8413   1.830   1.299   7.199  0.1577  0.4441  0.2339
   81CHL1    C8 8414   1.813   1.507   7.177  0.4430  0.4889 -0.2047
   81CHL1    H8 8415   1.724   1.570   7.197  0.6657  0.3414  1.3342
   81CHL1   C14 8416   1.890   1.520   7.310 -0.5541 -0.7721 -0.5082
   81CHL1   H14 8417   1.975   1.448   7.317  0.8492  0.8802  0.0983
   81CHL1   C15 8418   1.810   1.506   7.445 -0.5236 -0.3131 -0.0050
   81CHL1  H15A 8419   1.707   1.542   7.426 -0.3264 -0.3690 -1.2918
   81CHL1  H15B 8420   1.808   1.397   7.463 -1.5567 -0.5434 -1.3294
   81CHL1   C16 8421   1.892   1.577   7.557  0.4469 -0.5563 -0.2803
   81CHL1  H16A 8422   1.826   1.657   7.596  0.6857 -0.0177 -0.9600
   81CHL1  H16B 8423   1.924   1.503   7.634  0.1314 -0.1678  0.2293
   81CHL1   C17 8424   2.016   1.637   7.482 -0.6113  0.3368  0.1230
   81CHL1   H17 8425   2.101   1.566   7.476 -0.0683  1.0324 -0.7452
   81CHL1   C13 8426   1.961   1.654   7.333  0.2550  0.1121 -0.3519
   81CHL1   C18 8427   1.861   1.769   7.324 -0.1334 -0.1509 -0.5426
   81CHL1  H18A 8428   1.911   1.868   7.338 -0.4372 -0.0568 -0.0894
   81CHL1  H18B 8429   1.800   1.769   7.231  0.0783 -0.5237 -0.6842
   81CHL1  H18C 8430   1.788   1.760   7.407  0.9062 -2.2167  0.2205
   81CHL1   C12 8431   2.057   1.674   7.218  0.1724 -0.5476 -0.0325
   81CHL1  H12A 8432   2.098   1.776   7.235 -0.6690 -0.2964  0.5460
   81CHL1  H12B 8433   2.145   1.608   7.225  0.0216 -1.1172 -2.5881
   81CHL1   C11 8434   1.994   1.659   7.077  0.2621 -0.2311 -0.3529
   81CHL1  H11A 8435   1.922   1.743   7.067 -1.4363 -1.6056 -0.1387
   81CHL1  H11B 8436   2.074   1.661   7.000 -0.9090  2.8867 -1.6272
   81CHL1    C9 8437   1.903   1.536   7.057 -0.4296 -0.4292  0.3363
   81CHL1    H9 8438   1.978   1.454   7.062  0.0551  0.0268  0.8545
   81CHL1   C10 8439   1.830   1.532   6.922 -0.1856 -0.5491  0.1636
   81CHL1   C19 8440   1.755   1.669   6.897  0.5325  0.4566  0.4225
   81CHL1  H19A 8441   1.698   1.696   6.988 -0.8658 -0.5521 -0.1266
   81CHL1  H19B 8442   1.828   1.749   6.871  3.3023 -1.6689  1.0772
   81CHL1  H19C 8443   1.684   1.656   6.813  0.9745 -3.8514  0.4855
   81CHL1    C1 8444   1.934   1.508   6.814 -0.2577 -0.2484  0.5204
   81CHL1   H1A 8445   2.011   1.589   6.812 -0.0097 -0.4707 -1.9123
   81CHL1   H1B 8446   1.999   1.421   6.839 -1.0947 -0.9007  0.4645
   81CHL1    C2 8447   1.872   1.479   6.674 -0.8514  0.2278 -0.7481
   81CHL1   H2A 8448   1.961   1.450   6.614 -1.2718 -3.2408  0.1170
   81CHL1   H2B 8449   1.821   1.574   6.645 -0.5655  0.5533 -0.1888
   81CHL1   C20 8450   2.067   1.762   7.559 -0.3632 -0.2554 -0.1966
   81CHL1   H20 8451   1.991   1.842   7.550  0.6186  0.5624 -1.6259
   81CHL1   C21 8452   2.206   1.805   7.506 -1.0866  0.1727 -0.0622
   81CHL1  H21A 8453   2.271   1.722   7.471 -1.0548 -0.0623  0.5460
   81CHL1  H21B 8454   2.272   1.863   7.574  0.6643 -0.7834 -0.8617
   81CHL1  H21C 8455   2.200   1.860   7.410  1.0755  2.8614  1.2174
   81CHL1   C22 8456   2.080   1.748   7.714  0.0541 -0.4297 -0.6143
   81CHL1  H22A 8457   2.112   1.846   7.754  0.4138 -0.4741 -0.7919
   81CHL1  H22B 8458   1.974   1.741   7.747  0.4480 -2.4221  0.4426
   81CHL1   C23 8459   2.161   1.624   7.762 -0.1151 -0.1554 -0.3088
   81CHL1  H23A 8460   2.099   1.535   7.737  0.7213 -0.7250 -0.4194
   81CHL1  H23B 8461   2.263   1.627   7.716 -0.8636  0.9720 -1.9852
   81CHL1   C24 8462   2.178   1.616   7.917 -0.4655 -0.6706  0.8418
   81CHL1  H24A 8463   2.081   1.648   7.960 -1.8442 -0.7564 -2.0243
   81CHL1  H24B 8464   2.200   1.512   7.950 -1.7900  0.0503  4.5147
   81CHL1   C25 8465   2.276   1.723   7.977 -0.1087 -0.0066 -0.2080
   81CHL1   H25 8466   2.254   1.823   7.934 -1.5141  1.0623  2.7029
   81CHL1   C26 8467   2.250   1.747   8.132  0.1049  0.7187  0.6645
   81CHL1  H26A 8468   2.289   1.656   8.182  1.4988  2.0560  2.1219
   81CHL1  H26B 8469   2.321   1.826   8.165  0.1882  0.1582  1.8727
   81CHL1  H26C 8470   2.143   1.760   8.159 -0.7512 -0.7222 -1.7374
   81CHL1   C27 8471   2.429   1.693   7.957  0.3475 -0.1934  1.1899
   81CHL1  H27A 8472   2.462   1.605   8.017 -0.8102  0.0630  2.2535
   81CHL1  H27B 8473   2.437   1.690   7.847 -1.3295  0.1604  1.0302
   81CHL1  H27C 8474   2.487   1.783   7.988  0.4676  0.5627 -1.0977
   82CHL1    C3 8475   2.300   1.714   6.626  0.2305 -0.8234  0.1177
   82CHL1    H3 8476   2.212   1.760   6.676  1.7242  0.7695  1.4104
   82CHL1    O3 8477   2.272   1.674   6.490 -0.3288 -0.0038 -0.1213
   82CHL1   H3' 8478   2.315   1.589   6.474  1.5657  0.6033  1.2913
   82CHL1    C4 8479   2.406   1.829   6.623 -0.7840 -0.7348  0.3526
   82CHL1   H4A 8480   2.499   1.787   6.580  0.9834  0.8612  2.3766
   82CHL1   H4B 8481   2.372   1.912   6.558  1.1482  1.9567  2.5084
   82CHL1    C5 8482   2.436   1.867   6.769 -0.0402 -0.0429 -0.5178
   82CHL1    C6 8483   2.414   1.995   6.802  0.7028  0.1150  0.3047
   82CHL1    H6 8484   2.387   2.078   6.735  0.5055  0.0692  0.3267
   82CHL1    C7 8485   2.439   2.050   6.940 -0.2271 -0.4179 -0.2783
   82CHL1   H7A 8486   2.479   2.154   6.941 -1.5766  0.1199  0.2911
   82CHL1   H7B 8487   2.345   2.049   6.999  0.8220 -1.6196  1.4688
   82CHL1    C8 8488   2.523   1.955   7.036 -0.0590 -0.0549 -0.3127
   82CHL1    H8 8489   2.631   1.954   7.007  0.6169 -0.7086  2.0571
   82CHL1   C14 8490   2.513   2.001   7.181  0.1075 -0.1664 -0.1407
   82CHL1   H14 8491   2.408   1.976   7.207  0.3350 -0.9393  0.0401
   82CHL1   C15 8492   2.550   2.147   7.208  0.1136 -0.0238 -0.0413
   82CHL1  H15A 8493   2.651   2.174   7.172  0.9637 -2.6645  0.1476
   82CHL1  H15B 8494   2.474   2.214   7.163 -2.2227 -3.0813 -1.0323
   82CHL1   C16 8495   2.547   2.150   7.366  0.0509 -0.1967 -0.3573
   82CHL1  H16A 8496   2.643   2.199   7.396  1.0503 -1.0928 -1.9204
   82CHL1  H16B 8497   2.457   2.198   7.409 -0.5300  0.5158 -2.2475
   82CHL1   C17 8498   2.547   1.995   7.412 -1.1043 -0.2876  0.2716
   82CHL1   H17 8499   2.440   1.972   7.432 -1.0443 -0.7212  0.0995
   82CHL1   C13 8500   2.582   1.914   7.286 -0.1594 -0.2825  0.4959
   82CHL1   C18 8501   2.735   1.907   7.255 -0.6070  0.0663  0.0130
   82CHL1  H18A 8502   2.778   1.818   7.307  1.7578  0.8547 -0.4856
   82CHL1  H18B 8503   2.744   1.885   7.146 -2.4177  1.3807 -0.4487
   82CHL1  H18C 8504   2.777   2.005   7.284 -3.4497  1.5047 -0.3487
   82CHL1   C12 8505   2.514   1.773   7.275 -0.0893 -0.6833 -0.0538
   82CHL1  H12A 8506   2.571   1.699   7.334  2.4565 -1.3812 -3.0810
   82CHL1  H12B 8507   2.418   1.786   7.329  0.3421  1.0942  0.3479
   82CHL1   C11 8508   2.521   1.710   7.127 -0.1393  0.0094  0.2055
   82CHL1  H11A 8509   2.630   1.701   7.108  0.0301 -0.5187  1.3390
   82CHL1  H11B 8510   2.465   1.614   7.126  1.9077 -1.2506 -0.3620
   82CHL1    C9 8511   2.468   1.811   7.014 -0.1836 -0.0763 -0.6144
   82CHL1    H9 8512   2.359   1.821   7.036 -0.5470 -1.3907 -1.6574
   82CHL1   C10 8513   2.477   1.754   6.868 -0.0017 -0.1396 -0.0733
   82CHL1   C19 8514   2.621   1.711   6.832  0.1370 -0.0943 -0.0821
   82CHL1  H19A 8515   2.698   1.762   6.892 -0.6354  2.1103 -0.8647
   82CHL1  H19B 8516   2.638   1.602   6.844  1.2747  0.2850  2.1486
   82CHL1  H19C 8517   2.649   1.725   6.725 -0.2776  2.6267  0.1062
   82CHL1    C1 8518   2.369   1.639   6.849 -0.3700 -0.0256 -0.2171
   82CHL1   H1A 8519   2.406   1.556   6.913 -0.5572  0.1731  0.1507
   82CHL1   H1B 8520   2.278   1.658   6.910 -1.2681 -1.1811 -1.1363
   82CHL1    C2 8521   2.340   1.593   6.706 -0.0060  0.5056  0.0107
   82CHL1   H2A 8522   2.257   1.521   6.692 -0.8967  1.4856  0.0600
   82CHL1   H2B 8523   2.432   1.551   6.662  0.7317  1.6148  0.4404
   82CHL1   C20 8524   2.630   1.967   7.540 -0.1235 -0.2904 -0.2433
   82CHL1   H20 8525   2.729   2.011   7.516  0.5383 -0.7895  1.4075
   82CHL1   C21 8526   2.630   1.819   7.557  0.1376  0.2744  0.3910
   82CHL1  H21A 8527   2.677   1.806   7.657 -2.2900  0.3989  1.6186
   82CHL1  H21B 8528   2.692   1.764   7.483  0.7920  1.2157  0.2146
   82CHL1  H21C 8529   2.527   1.778   7.549  0.0443  0.4698  0.5783
   82CHL1   C22 8530   2.580   2.042   7.667  0.1962 -0.1399 -0.9626
   82CHL1  H22A 8531   2.593   2.151   7.655 -1.9432  0.2992  0.1820
   82CHL1  H22B 8532   2.476   2.011   7.692 -0.2825  1.0610 -1.4345
   82CHL1   C23 8533   2.668   2.015   7.793 -0.1353  0.0632  0.0839
   82CHL1  H23A 8534   2.642   1.912   7.828 -1.1706 -0.2661 -1.5529
   82CHL1  H23B 8535   2.775   2.019   7.762 -0.3607  2.1127 -0.5527
   82CHL1   C24 8536   2.625   2.107   7.908 -0.4699 -0.4940 -0.1965
   82CHL1  H24A 8537   2.601   2.208   7.869 -1.7229  0.6815  3.2155
   82CHL1  H24B 8538   2.527   2.079   7.953  0.3467 -1.5141  1.0236
   82CHL1   C25 8539   2.734   2.097   8.016  0.3177 -0.6134 -0.2524
   82CHL1   H25 8540   2.812   2.028   7.977 -0.8927 -2.3636  0.2676
   82CHL1   C26 8541   2.806   2.230   8.048 -0.3721  0.3036  0.1451
   82CHL1  H26A 8542   2.869   2.277   7.970  0.1844 -0.5335  0.0699
   82CHL1  H26B 8543   2.727   2.295   8.092 -0.8768 -1.1006  1.4178
   82CHL1  H26C 8544   2.860   2.207   8.142 -2.5718  0.5657  1.5453
   82CHL1   C27 8545   2.679   2.025   8.147 -0.0703  0.2220 -0.1696
   82CHL1  H27A 8546   2.601   2.097   8.178 -0.6109 -0.9915  1.4166
   82CHL1  H27B 8547   2.638   1.924   8.123  0.0393  0.2988 -0.7088
   82CHL1  H27C 8548   2.755   2.023   8.228 -1.2079  2.2040  1.0146
   83CHL1    C3 8549   6.496   5.309   6.733 -0.2351 -0.9812  0.3292
   83CHL1    H3 8550   6.581   5.372   6.767 -1.1397  0.3660  0.1677
   83CHL1    O3 8551   6.479   5.309   6.591 -0.2065  0.2338  0.5285
   83CHL1   H3' 8552   6.389   5.274   6.589 -1.0766  2.2878  0.3406
   83CHL1    C4 8553   6.514   5.162   6.782 -0.2119  0.3017 -0.1006
   83CHL1   H4A 8554   6.439   5.096   6.733 -0.3624 -0.7071  1.4352
   83CHL1   H4B 8555   6.608   5.119   6.741 -1.0510 -1.6321 -0.0941
   83CHL1    C5 8556   6.512   5.157   6.934 -0.3577  0.3948  0.3767
   83CHL1    C6 8557   6.619   5.102   6.999  0.8245 -0.0151 -0.1171
   83CHL1    H6 8558   6.705   5.065   6.940  1.6729  1.6726  0.0258
   83CHL1    C7 8559   6.613   5.092   7.151 -0.0361 -0.2009 -0.4728
   83CHL1   H7A 8560   6.650   4.991   7.179 -0.6376 -0.1438  0.5677
   83CHL1   H7B 8561   6.680   5.168   7.196 -0.5479 -0.4004  0.6407
   83CHL1    C8 8562   6.473   5.094   7.215  0.1184 -0.4125 -0.3364
   83CHL1    H8 8563   6.413   5.004   7.189 -0.0944 -1.1668  2.5290
   83CHL1   C14 8564   6.481   5.098   7.364  0.1219  0.4629 -0.4321
   83CHL1   H14 8565   6.548   5.182   7.393  3.4435 -1.9060 -0.5497
   83CHL1   C15 8566   6.552   4.989   7.440 -0.2751 -0.2674  0.0573
   83CHL1  H15A 8567   6.528   4.887   7.402 -3.4018  0.0701  0.8380
   83CHL1  H15B 8568   6.662   4.995   7.435 -0.3251  1.0452  0.2356
   83CHL1   C16 8569   6.506   5.002   7.582  0.0606 -0.3728 -0.2945
   83CHL1  H16A 8570   6.462   4.908   7.620 -0.5738 -0.8143 -2.0405
   83CHL1  H16B 8571   6.588   5.042   7.645  0.5525  0.3423 -1.3578
   83CHL1   C17 8572   6.388   5.109   7.580 -0.2875  0.3214  0.8017
   83CHL1   H17 8573   6.438   5.207   7.593 -4.2113  2.6124  0.3879
   83CHL1   C13 8574   6.344   5.107   7.437 -0.1142 -0.1263  0.2428
   83CHL1   C18 8575   6.251   4.992   7.420  0.2923 -0.2292 -0.1038
   83CHL1  H18A 8576   6.288   4.891   7.449  1.1966  0.5113  1.4021
   83CHL1  H18B 8577   6.166   5.018   7.486  0.8194 -1.0477  0.9257
   83CHL1  H18C 8578   6.216   4.978   7.315  0.9616 -1.2416 -0.2120
   83CHL1   C12 8579   6.272   5.238   7.392 -0.1249  0.0797 -0.6910
   83CHL1  H12A 8580   6.173   5.259   7.438  1.1434  1.3628  1.5717
   83CHL1  H12B 8581   6.341   5.322   7.410 -0.8902  0.9033 -1.4636
   83CHL1   C11 8582   6.265   5.235   7.239 -0.2447  0.0379  0.4596
   83CHL1  H11A 8583   6.201   5.154   7.200 -1.9677  2.5362 -2.3273
   83CHL1  H11B 8584   6.217   5.323   7.192  0.2177 -0.7928 -1.6837
   83CHL1    C9 8585   6.402   5.219   7.161  0.6301 -0.2505 -0.5769
   83CHL1    H9 8586   6.453   5.315   7.184 -1.3093  0.6099  0.4067
   83CHL1   C10 8587   6.395   5.214   6.999  0.1881 -0.5507 -0.8126
   83CHL1   C19 8588   6.273   5.123   6.960  0.2838  0.5434 -0.2836
   83CHL1  H19A 8589   6.181   5.178   6.989  0.2546  0.9472 -1.1062
   83CHL1  H19B 8590   6.272   5.103   6.850 -2.0539  0.4577 -0.2939
   83CHL1  H19C 8591   6.275   5.027   7.015  1.2089  0.2979 -0.7244
   83CHL1    C1 8592   6.368   5.357   6.955  0.2863 -0.1617  1.0190
   83CHL1   H1A 8593   6.263   5.388   6.973  0.9854  1.7217  2.0513
   83CHL1   H1B 8594   6.443   5.434   6.982  2.6706 -0.2616 -4.1209
   83CHL1    C2 8595   6.366   5.358   6.795 -0.6726  0.2200  0.2916
   83CHL1   H2A 8596   6.351   5.466   6.777  0.4265  0.3373  0.0129
   83CHL1   H2B 8597   6.277   5.309   6.749  0.4610 -0.0048 -1.8170
   83CHL1   C20 8598   6.290   5.095   7.697  0.2415 -0.8035 -0.0430
   83CHL1   H20 8599   6.227   5.004   7.697 -1.0850  0.0935 -0.2320
   83CHL1   C21 8600   6.192   5.219   7.692  0.0301  0.7140  0.1026
   83CHL1  H21A 8601   6.251   5.312   7.680  0.3811  0.4116 -0.6014
   83CHL1  H21B 8602   6.141   5.236   7.789 -2.6069  3.2200 -1.5453
   83CHL1  H21C 8603   6.117   5.218   7.610  0.9100  1.4129 -0.7495
   83CHL1   C22 8604   6.362   5.096   7.842 -0.0287  0.3003 -0.0856
   83CHL1  H22A 8605   6.286   5.058   7.914 -2.0908  2.4149 -0.9857
   83CHL1  H22B 8606   6.430   5.010   7.834 -1.0867 -0.4655 -1.3212
   83CHL1   C23 8607   6.422   5.225   7.898 -0.2490 -0.0333  0.5737
   83CHL1  H23A 8608   6.493   5.271   7.826 -0.4119  0.2668  0.6029
   83CHL1  H23B 8609   6.343   5.302   7.911  0.6296  1.0044 -0.0935
   83CHL1   C24 8610   6.488   5.214   8.029  0.0514  0.5194 -0.3214
   83CHL1  H24A 8611   6.416   5.166   8.098 -1.6220  3.5640  0.1999
   83CHL1  H24B 8612   6.582   5.155   8.019 -0.3071  0.1906 -2.2452
   83CHL1   C25 8613   6.534   5.340   8.109 -0.4150  0.3158 -0.0618
   83CHL1   H25 8614   6.619   5.390   8.058  2.1315  0.6864  4.1039
   83CHL1   C26 8615   6.420   5.436   8.125 -0.5247  0.1493 -0.0382
   83CHL1  H26A 8616   6.452   5.508   8.203  3.2598 -2.0509  0.7217
   83CHL1  H26B 8617   6.383   5.467   8.025 -2.6137 -3.2440 -0.4763
   83CHL1  H26C 8618   6.337   5.381   8.174 -1.7055  2.3312  0.5133
   83CHL1   C27 8619   6.588   5.300   8.243  0.3886  0.8049  0.0564
   83CHL1  H27A 8620   6.520   5.224   8.286 -0.4684  1.5167  0.0007
   83CHL1  H27B 8621   6.683   5.245   8.228  0.4452 -0.4524  3.9471
   83CHL1  H27C 8622   6.595   5.390   8.307 -4.6604  0.6639  1.2819
   84CHL1    C3 8623   2.390   6.193   6.829 -0.7932 -0.2650 -0.0632
   84CHL1    H3 8624   2.363   6.301   6.837 -1.2726 -0.4414  0.7639
   84CHL1    O3 8625   2.416   6.164   6.695 -0.3379 -0.1604  0.3722
   84CHL1   H3' 8626   2.363   6.231   6.651 -2.4109 -1.9941 -0.1094
   84CHL1    C4 8627   2.513   6.162   6.916  0.0992 -0.5867  1.0142
   84CHL1   H4A 8628   2.545   6.065   6.873  0.3172  0.6444 -1.7715
   84CHL1   H4B 8629   2.584   6.237   6.878 -0.8181  1.6248  3.3398
   84CHL1    C5 8630   2.501   6.170   7.061 -0.8584 -0.4039 -0.0790
   84CHL1    C6 8631   2.568   6.264   7.126 -0.2694 -0.2049 -0.7511
   84CHL1    H6 8632   2.640   6.334   7.081 -0.1544  1.5123  1.8670
   84CHL1    C7 8633   2.561   6.278   7.272  0.3923 -0.1175 -0.0194
   84CHL1   H7A 8634   2.664   6.271   7.313  0.4930 -1.3900 -0.4432
   84CHL1   H7B 8635   2.517   6.373   7.310 -1.3224 -1.5050  1.6236
   84CHL1    C8 8636   2.475   6.171   7.343 -0.3089  0.5254  0.2455
   84CHL1    H8 8637   2.531   6.075   7.342 -1.3103 -0.1338  2.3459
   84CHL1   C14 8638   2.439   6.212   7.483 -0.1144  1.1046 -0.4744
   84CHL1   H14 8639   2.375   6.303   7.478  0.1546  1.2065 -3.6568
   84CHL1   C15 8640   2.558   6.255   7.578 -0.4111  0.6919 -0.1198
   84CHL1  H15A 8641   2.651   6.194   7.578  0.0843  1.2849  2.4466
   84CHL1  H15B 8642   2.599   6.356   7.557  0.9959  0.1595 -0.0670
   84CHL1   C16 8643   2.494   6.259   7.717 -0.0929  0.7238 -0.4643
   84CHL1  H16A 8644   2.549   6.205   7.797 -4.2412  0.5074  2.5386
   84CHL1  H16B 8645   2.493   6.363   7.754  0.2533  1.0264 -1.2661
   84CHL1   C17 8646   2.352   6.193   7.702  0.1093  0.0781  0.2978
   84CHL1   H17 8647   2.297   6.286   7.676 -1.3948 -1.3089 -1.8516
   84CHL1   C13 8648   2.360   6.113   7.565  0.3125  0.2339 -0.6025
   84CHL1   C18 8649   2.436   5.983   7.593  0.2029  0.6346 -1.0499
   84CHL1  H18A 8650   2.528   6.004   7.653 -0.2377  2.5889 -0.9734
   84CHL1  H18B 8651   2.381   5.904   7.648 -0.9049  0.1131 -2.8600
   84CHL1  H18C 8652   2.473   5.934   7.501 -0.5111 -1.2881 -0.3497
   84CHL1   C12 8653   2.232   6.084   7.493  0.2095  0.5054  0.1400
   84CHL1  H12A 8654   2.173   6.001   7.537  1.2510 -0.2826  0.0754
   84CHL1  H12B 8655   2.159   6.169   7.498  1.0391  1.1757  1.5274
   84CHL1   C11 8656   2.249   6.045   7.340 -0.3162  0.2456 -0.9162
   84CHL1  H11A 8657   2.282   5.938   7.339 -1.8832 -0.3437  1.8452
   84CHL1  H11B 8658   2.150   6.037   7.291 -0.1133  2.5113 -1.7870
   84CHL1    C9 8659   2.352   6.136   7.259  0.5906 -0.1942 -0.5020
   84CHL1    H9 8660   2.296   6.231   7.252  2.0272  0.6479 -1.0497
   84CHL1   C10 8661   2.386   6.085   7.120 -1.2298  0.1942 -0.8035
   84CHL1   C19 8662   2.439   5.938   7.116  0.3586 -1.1607 -0.1992
   84CHL1  H19A 8663   2.475   5.905   7.016  0.8262 -2.4004  0.3660
   84CHL1  H19B 8664   2.531   5.926   7.177 -0.3650  0.6818  1.3575
   84CHL1  H19C 8665   2.370   5.865   7.162 -1.3249  0.3661 -0.1950
   84CHL1    C1 8666   2.259   6.113   7.031 -0.2590  0.0765 -0.1575
   84CHL1   H1A 8667   2.181   6.035   7.048  1.9788 -2.5268 -1.1189
   84CHL1   H1B 8668   2.217   6.216   7.036 -2.2476 -0.6148 -1.5223
   84CHL1    C2 8669   2.277   6.099   6.879 -0.7000  0.1159 -0.3181
   84CHL1   H2A 8670   2.187   6.133   6.824 -1.5805  0.3942  1.2323
   84CHL1   H2B 8671   2.302   5.994   6.853 -0.9891  0.2255 -1.0682
   84CHL1   C20 8672   2.308   6.135   7.834  1.3818 -0.3726  0.8912
   84CHL1   H20 8673   2.377   6.051   7.858 -0.6324 -1.9391  1.4835
   84CHL1   C21 8674   2.168   6.069   7.831  0.2278 -0.2277  0.4967
   84CHL1  H21A 8675   2.086   6.139   7.804 -1.0431 -0.8777  2.4212
   84CHL1  H21B 8676   2.147   6.035   7.935  1.5111 -1.9939  0.2191
   84CHL1  H21C 8677   2.189   5.981   7.767  1.7852  0.4647  0.0071
   84CHL1   C22 8678   2.305   6.237   7.955  0.0348 -0.1646  0.3235
   84CHL1  H22A 8679   2.401   6.293   7.947  0.4990 -1.0559 -0.4586
   84CHL1  H22B 8680   2.218   6.303   7.937  0.6175  0.6116  0.2874
   84CHL1   C23 8681   2.281   6.171   8.095 -0.1624  0.7568  0.4537
   84CHL1  H23A 8682   2.172   6.155   8.113  0.5965 -2.0243  3.8520
   84CHL1  H23B 8683   2.331   6.072   8.086 -0.6222  0.6699 -1.6918
   84CHL1   C24 8684   2.330   6.260   8.208  0.6877 -0.4473  0.0478
   84CHL1  H24A 8685   2.431   6.306   8.198 -0.6075  2.9860  1.0872
   84CHL1  H24B 8686   2.275   6.357   8.203 -0.8838 -1.2629  0.7948
   84CHL1   C25 8687   2.312   6.197   8.343  0.3681  0.5928  0.1866
   84CHL1   H25 8688   2.217   6.139   8.351  0.4205  0.2923 -1.0972
   84CHL1   C26 8689   2.433   6.104   8.368 -0.0145 -0.3237 -0.3507
   84CHL1  H26A 8690   2.447   6.013   8.306  1.7296 -1.2921  1.3704
   84CHL1  H26B 8691   2.526   6.159   8.344  1.0266 -1.6804  0.4871
   84CHL1  H26C 8692   2.446   6.075   8.474  1.6299  1.2614 -0.0744
   84CHL1   C27 8693   2.298   6.303   8.452 -0.0034 -0.2357 -0.5233
   84CHL1  H27A 8694   2.376   6.382   8.453  0.4082 -0.6415  0.7222
   84CHL1  H27B 8695   2.206   6.364   8.440 -1.2324 -1.3099  2.4744
   84CHL1  H27C 8696   2.301   6.256   8.552  0.1685 -1.3216 -1.0309
   85CHL1    C3 8697   1.105   3.348   6.662 -0.3208 -0.2313 -0.8932
   85CHL1    H3 8698   1.161   3.436   6.700 -0.8892 -0.3076  0.1440
   85CHL1    O3 8699   1.122   3.339   6.518 -0.3986 -0.0950 -0.0496
   85CHL1   H3' 8700   1.218   3.333   6.516 -0.1655 -2.4481  4.4304
   85CHL1    C4 8701   1.161   3.221   6.734 -0.3933 -0.7865 -0.1331
   85CHL1   H4A 8702   1.104   3.134   6.694  0.5107 -0.3523 -2.5144
   85CHL1   H4B 8703   1.265   3.208   6.700  0.3405  0.9290  1.3003
   85CHL1    C5 8704   1.145   3.230   6.883 -0.6604 -0.2308 -0.4452
   85CHL1    C6 8705   1.249   3.217   6.966  0.4702 -0.3703 -0.5962
   85CHL1    H6 8706   1.349   3.218   6.921  0.2320 -2.7233 -1.3155
   85CHL1    C7 8707   1.226   3.223   7.119  0.3761 -0.2279  0.6057
   85CHL1   H7A 8708   1.277   3.139   7.170 -0.9840 -2.3387 -1.2845
   85CHL1   H7B 8709   1.268   3.318   7.157 -0.3021  1.3074 -2.2508
   85CHL1    C8 8710   1.077   3.205   7.162 -0.2565  0.2190 -0.5596
   85CHL1    H8 8711   1.052   3.097   7.156 -0.7023  0.3198 -0.5660
   85CHL1   C14 8712   1.060   3.253   7.303  0.1792 -0.2743 -0.4207
   85CHL1   H14 8713   1.066   3.364   7.308  0.6836 -0.1759 -2.3411
   85CHL1   C15 8714   1.163   3.198   7.408 -0.3530 -0.4357  1.0891
   85CHL1  H15A 8715   1.172   3.087   7.406 -0.3042 -0.4563 -2.0831
   85CHL1  H15B 8716   1.259   3.251   7.393 -0.7800 -0.3378 -1.6939
   85CHL1   C16 8717   1.094   3.229   7.542  0.5870  0.5550  0.0206
   85CHL1  H16A 8718   1.091   3.133   7.599  0.3151  0.5234 -0.0479
   85CHL1  H16B 8719   1.144   3.310   7.599  2.2757 -0.4278 -0.0000
   85CHL1   C17 8720   0.949   3.274   7.508 -0.3403  0.0600 -0.8488
   85CHL1   H17 8721   0.945   3.385   7.513 -2.4418  0.0369 -1.2164
   85CHL1   C13 8722   0.917   3.221   7.360 -0.9301  0.4580 -0.4172
   85CHL1   C18 8723   0.889   3.069   7.385 -0.4613  0.2629 -0.1318
   85CHL1  H18A 8724   0.965   3.025   7.454 -1.2651  0.0811  0.6641
   85CHL1  H18B 8725   0.789   3.044   7.427 -0.2405 -1.5160 -0.5721
   85CHL1  H18C 8726   0.906   3.010   7.292 -0.9534 -2.1648  1.2261
   85CHL1   C12 8727   0.814   3.300   7.274 -0.4656  0.4855  0.1435
   85CHL1  H12A 8728   0.710   3.273   7.300 -0.9905 -1.1615 -3.1147
   85CHL1  H12B 8729   0.828   3.409   7.265 -1.4088  0.9097  2.8488
   85CHL1   C11 8730   0.833   3.248   7.126 -0.0610  1.0953 -0.0468
   85CHL1  H11A 8731   0.812   3.139   7.127  2.3460  0.5870  0.2038
   85CHL1  H11B 8732   0.759   3.293   7.056 -0.8862 -1.3689 -0.8677
   85CHL1    C9 8733   0.969   3.274   7.073 -0.3202 -0.1621 -0.5784
   85CHL1    H9 8734   0.985   3.382   7.091  1.1313 -0.4346 -0.1437
   85CHL1   C10 8735   0.994   3.249   6.929 -0.1919  0.3755  0.1392
   85CHL1   C19 8736   0.918   3.119   6.899  0.3764  0.8488 -0.4735
   85CHL1  H19A 8737   0.958   3.067   6.810 -3.3608 -0.7252 -1.3860
   85CHL1  H19B 8738   0.926   3.048   6.984 -0.0156  2.2193  0.7568
   85CHL1  H19C 8739   0.812   3.141   6.878 -0.4772 -3.6495 -1.7483
   85CHL1    C1 8740   0.941   3.366   6.846  0.5780  0.5806 -0.5811
   85CHL1   H1A 8741   0.832   3.371   6.864  0.8667  1.7898  1.0970
   85CHL1   H1B 8742   0.977   3.467   6.875 -0.8846  0.6635  1.1388
   85CHL1    C2 8743   0.960   3.355   6.694  1.0031  0.5494  0.2294
   85CHL1   H2A 8744   0.918   3.447   6.650  0.0101  0.2788  0.5841
   85CHL1   H2B 8745   0.902   3.271   6.650  1.7351  0.6617 -1.0047
   85CHL1   C20 8746   0.854   3.248   7.631  0.3452  0.6329  0.7804
   85CHL1   H20 8747   0.833   3.139   7.617  1.7727  0.7400 -3.7458
   85CHL1   C21 8748   0.709   3.303   7.602 -0.5000 -0.1076 -0.3086
   85CHL1  H21A 8749   0.665   3.259   7.510  0.9037 -1.2038 -0.5040
   85CHL1  H21B 8750   0.717   3.414   7.594  1.0546 -0.2625 -1.4418
   85CHL1  H21C 8751   0.634   3.273   7.677  0.4547 -1.2049  0.2400
   85CHL1   C22 8752   0.911   3.273   7.770  0.1940 -0.0509 -0.3206
   85CHL1  H22A 8753   1.016   3.240   7.786  0.8801  1.5951 -1.2134
   85CHL1  H22B 8754   0.910   3.382   7.786  0.4071 -0.0407 -0.3678
   85CHL1   C23 8755   0.823   3.211   7.876  0.4518 -0.2993 -0.2362
   85CHL1  H23A 8756   0.721   3.254   7.870 -0.4480 -2.2902 -0.2212
   85CHL1  H23B 8757   0.821   3.102   7.854 -0.6787 -0.8834  2.2670
   85CHL1   C24 8758   0.868   3.238   8.025  0.0464 -0.3136  0.1800
   85CHL1  H24A 8759   0.978   3.246   8.035  0.0307  0.0695  0.0596
   85CHL1  H24B 8760   0.835   3.341   8.046 -1.1524 -0.3373 -1.3677
   85CHL1   C25 8761   0.837   3.126   8.134 -0.2458  0.2488 -0.1231
   85CHL1   H25 8762   0.876   3.162   8.232  2.4314  1.0780 -1.4011
   85CHL1   C26 8763   0.681   3.099   8.142  0.2191 -0.3233  0.2272
   85CHL1  H26A 8764   0.653   3.040   8.231  0.3782 -1.0114 -0.1724
   85CHL1  H26B 8765   0.635   3.200   8.146 -2.1747 -1.2431 -1.7603
   85CHL1  H26C 8766   0.638   3.048   8.054 -2.3340  1.8670  0.0690
   85CHL1   C27 8767   0.919   2.995   8.109  0.6012 -0.1389 -0.3797
   85CHL1  H27A 8768   0.898   2.921   8.189 -2.3789  0.9854  0.0098
   85CHL1  H27B 8769   0.890   2.948   8.013  1.8313 -1.3243 -0.2040
   85CHL1  H27C 8770   1.025   3.028   8.121  0.1675  0.8118  1.2394
   86CHL1    C3 8771   5.787   2.716   6.873 -0.1063  0.3066  0.3635
   86CHL1    H3 8772   5.790   2.827   6.877 -0.0992  0.2981  0.6120
   86CHL1    O3 8773   5.743   2.676   6.748 -0.5118  0.5002  0.1383
   86CHL1   H3' 8774   5.657   2.715   6.737 -1.1959 -0.1473  2.4684
   86CHL1    C4 8775   5.921   2.655   6.915 -0.5033  0.7311 -0.3676
   86CHL1   H4A 8776   5.913   2.544   6.911 -1.2350  0.7873 -0.4986
   86CHL1   H4B 8777   5.995   2.683   6.837 -0.3234  1.0291 -0.0922
   86CHL1    C5 8778   5.956   2.706   7.053 -0.1031  0.1652 -0.4616
   86CHL1    C6 8779   6.066   2.783   7.061  0.1347  0.6020  0.2909
   86CHL1    H6 8780   6.126   2.803   6.971 -1.3647 -1.2341 -1.2074
   86CHL1    C7 8781   6.107   2.837   7.200  0.1292  0.4974  0.4077
   86CHL1   H7A 8782   6.216   2.819   7.214 -0.2270 -3.6782 -0.5655
   86CHL1   H7B 8783   6.080   2.944   7.196  1.9853  0.9974  0.5303
   86CHL1    C8 8784   6.037   2.757   7.317 -0.0661  0.2304 -0.4724
   86CHL1    H8 8785   6.088   2.660   7.333 -0.2048  0.4610  1.6683
   86CHL1   C14 8786   6.064   2.828   7.448 -0.4504 -0.3304 -0.7608
   86CHL1   H14 8787   6.018   2.929   7.439 -2.3944 -1.0757  0.0645
   86CHL1   C15 8788   6.207   2.861   7.492  0.1888 -0.0003 -0.0675
   86CHL1  H15A 8789   6.265   2.768   7.476 -2.0600 -1.5064  0.0099
   86CHL1  H15B 8790   6.257   2.952   7.452  0.3572  0.4895  1.2222
   86CHL1   C16 8791   6.199   2.884   7.642 -0.9714 -0.5302  0.1104
   86CHL1  H16A 8792   6.274   2.815   7.686  0.4223 -1.1772 -2.9744
   86CHL1  H16B 8793   6.229   2.988   7.666 -0.5998 -0.3837 -0.9422
   86CHL1   C17 8794   6.052   2.851   7.684  0.2351  0.3073 -0.0791
   86CHL1   H17 8795   5.993   2.945   7.681 -0.7001  0.0637  4.0383
   86CHL1   C13 8796   5.997   2.766   7.570  0.3412  0.4629  0.1412
   86CHL1   C18 8797   6.030   2.616   7.592 -0.0655 -0.0323 -0.9138
   86CHL1  H18A 8798   5.975   2.586   7.684 -1.3282  1.3319 -1.1821
   86CHL1  H18B 8799   5.990   2.554   7.508 -0.9299  3.1822 -3.0373
   86CHL1  H18C 8800   6.134   2.588   7.620 -0.8924 -0.1383  2.5376
   86CHL1   C12 8801   5.841   2.783   7.548 -0.0842 -0.0436  0.5151
   86CHL1  H12A 8802   5.781   2.740   7.631  0.2561 -2.5106 -0.4334
   86CHL1  H12B 8803   5.837   2.894   7.546  0.5861 -0.0009  1.1434
   86CHL1   C11 8804   5.799   2.717   7.416  0.2314  0.3766  0.1665
   86CHL1  H11A 8805   5.768   2.612   7.435 -1.3511  0.9358  0.8766
   86CHL1  H11B 8806   5.706   2.772   7.391  0.5349 -0.2013 -2.4930
   86CHL1    C9 8807   5.890   2.750   7.288 -0.4139 -0.2488  0.0090
   86CHL1    H9 8808   5.868   2.857   7.267  0.1707  0.1080  1.1145
   86CHL1   C10 8809   5.855   2.673   7.163  0.5352 -0.9979  0.0259
   86CHL1   C19 8810   5.863   2.523   7.193  0.1913  0.2610 -0.3218
   86CHL1  H19A 8811   5.959   2.499   7.244  0.2513  1.1076 -0.0091
   86CHL1  H19B 8812   5.791   2.493   7.272  0.1119 -3.3485 -1.6175
   86CHL1  H19C 8813   5.854   2.456   7.105  1.5232 -2.3478  1.4049
   86CHL1    C1 8814   5.707   2.713   7.116 -0.1919  0.3830  0.1434
   86CHL1   H1A 8815   5.626   2.674   7.180 -1.7710  2.1717 -0.6553
   86CHL1   H1B 8816   5.694   2.824   7.115 -2.3200  0.1937  1.2363
   86CHL1    C2 8817   5.672   2.680   6.974  0.4169 -0.8601 -0.1832
   86CHL1   H2A 8818   5.575   2.733   6.968  0.1443 -0.8629  2.9124
   86CHL1   H2B 8819   5.650   2.571   6.976 -1.2081 -0.5539 -0.4464
   86CHL1   C20 8820   6.039   2.803   7.828  0.5137 -0.1650  1.0037
   86CHL1   H20 8821   6.083   2.701   7.834 -1.2768 -0.9329  1.9239
   86CHL1   C21 8822   5.890   2.815   7.869 -0.2894 -0.3069 -0.2516
   86CHL1  H21A 8823   5.838   2.722   7.836 -2.1648 -0.4356  2.6873
   86CHL1  H21B 8824   5.851   2.911   7.830  0.0102 -1.3045 -3.2245
   86CHL1  H21C 8825   5.893   2.808   7.980  0.9770  0.8845 -0.1845
   86CHL1   C22 8826   6.116   2.894   7.926  0.2521  0.4639  0.4037
   86CHL1  H22A 8827   6.209   2.932   7.878 -1.0093  2.5358 -0.5590
   86CHL1  H22B 8828   6.066   2.990   7.954  0.2138  0.1594  1.3905
   86CHL1   C23 8829   6.162   2.811   8.048  0.2050 -0.8709  0.1382
   86CHL1  H23A 8830   6.069   2.790   8.106 -1.2266  0.8837 -1.4070
   86CHL1  H23B 8831   6.225   2.722   8.028  3.9284  0.7284  3.3248
   86CHL1   C24 8832   6.251   2.892   8.140  0.3657 -0.3762 -0.2305
   86CHL1  H24A 8833   6.321   2.947   8.074  0.4028 -2.1256 -1.7404
   86CHL1  H24B 8834   6.182   2.972   8.175  0.2249 -1.0552  1.1013
   86CHL1   C25 8835   6.336   2.826   8.253  0.1991 -0.1636  0.0191
   86CHL1   H25 8836   6.420   2.777   8.199  1.5803 -0.4783  2.3114
   86CHL1   C26 8837   6.406   2.921   8.348 -0.0559 -0.0733  0.0998
   86CHL1  H26A 8838   6.333   2.964   8.419  0.0801 -1.9697  1.4588
   86CHL1  H26B 8839   6.481   2.870   8.412  1.3200  3.3994  1.4821
   86CHL1  H26C 8840   6.450   3.000   8.283 -0.1567 -1.1471 -1.3385
   86CHL1   C27 8841   6.259   2.727   8.337  0.3937 -0.1316 -0.5837
   86CHL1  H27A 8842   6.187   2.664   8.279  2.2576 -2.6729 -0.2901
   86CHL1  H27B 8843   6.321   2.657   8.396  0.8493  1.6369  1.1648
   86CHL1  H27C 8844   6.208   2.781   8.420  0.1150 -1.1799 -0.0634
   87CHL1    C3 8845   3.158   0.295   6.634  0.4396  0.0812  0.5919
   87CHL1    H3 8846   3.177   0.402   6.656  2.2466  0.1679 -1.1423
   87CHL1    O3 8847   3.231   0.271   6.519  0.6378 -0.7677  0.3253
   87CHL1   H3' 8848   3.324   0.274   6.545  0.6041  1.4976  0.3390
   87CHL1    C4 8849   3.215   0.211   6.748 -0.3149  0.1220 -0.7131
   87CHL1   H4A 8850   3.228   0.105   6.718 -0.0945 -0.5022  1.4611
   87CHL1   H4B 8851   3.318   0.248   6.768 -0.2764 -1.1892  2.0458
   87CHL1    C5 8852   3.126   0.204   6.874 -0.5635 -0.2582 -0.8938
   87CHL1    C6 8853   3.178   0.214   6.996 -0.4690 -0.2708  0.1142
   87CHL1    H6 8854   3.286   0.215   7.017 -0.7992 -1.3467  2.2288
   87CHL1    C7 8855   3.085   0.216   7.120  0.2867  0.3070 -0.1306
   87CHL1   H7A 8856   3.130   0.184   7.217 -1.4686  1.9800  1.3088
   87CHL1   H7B 8857   3.068   0.324   7.140 -0.3370  0.2734 -0.4616
   87CHL1    C8 8858   2.947   0.164   7.107  0.2169 -0.5149  0.6263
   87CHL1    H8 8859   2.956   0.053   7.103  1.6162 -0.4627  1.5617
   87CHL1   C14 8860   2.862   0.206   7.223  0.5775  0.3631 -0.2153
   87CHL1   H14 8861   2.871   0.316   7.234  0.4108  0.1200  3.7953
   87CHL1   C15 8862   2.905   0.166   7.368 -0.4722  0.6987  0.3933
   87CHL1  H15A 8863   2.922   0.057   7.379 -0.1839  0.7162  0.1302
   87CHL1  H15B 8864   3.000   0.218   7.390 -0.8235  0.2440  3.3255
   87CHL1   C16 8865   2.789   0.216   7.453 -0.2212 -0.2093  0.0226
   87CHL1  H16A 8866   2.759   0.137   7.525 -0.5447 -1.0167 -0.9693
   87CHL1  H16B 8867   2.813   0.310   7.508  0.1372  1.3129 -2.5649
   87CHL1   C17 8868   2.671   0.243   7.355 -0.2678 -0.4555 -0.0837
   87CHL1   H17 8869   2.670   0.352   7.331  0.4462 -0.3247  0.4453
   87CHL1   C13 8870   2.714   0.175   7.217 -0.3014 -0.1925 -0.4657
   87CHL1   C18 8871   2.697   0.021   7.216 -0.2907  0.7536 -0.1122
   87CHL1  H18A 8872   2.757  -0.026   7.135  1.4088  0.7698  1.0737
   87CHL1  H18B 8873   2.723  -0.019   7.316 -1.0862  0.7101  0.0829
   87CHL1  H18C 8874   2.589   0.002   7.201 -0.1193 -0.6291  0.3267
   87CHL1   C12 8875   2.660   0.240   7.087  1.0037 -0.0718  0.0586
   87CHL1  H12A 8876   2.554   0.209   7.075 -0.0133  1.8325  3.0518
   87CHL1  H12B 8877   2.672   0.350   7.090 -0.5920  0.1247  0.1648
   87CHL1   C11 8878   2.734   0.206   6.959  0.4514 -0.8204 -0.0085
   87CHL1  H11A 8879   2.721   0.100   6.928 -1.4487 -1.6709  3.1574
   87CHL1  H11B 8880   2.691   0.266   6.876 -0.0981 -0.2880  0.6451
   87CHL1    C9 8881   2.888   0.229   6.974 -0.2226 -0.0911 -0.6680
   87CHL1    H9 8882   2.908   0.338   6.981  4.9882 -0.8622  0.8232
   87CHL1   C10 8883   2.973   0.189   6.853  0.3488  0.3175 -0.1129
   87CHL1   C19 8884   2.948   0.041   6.817  0.0217  0.7668  0.5316
   87CHL1  H19A 8885   2.841   0.016   6.800  0.4804  0.1972 -2.0056
   87CHL1  H19B 8886   3.005   0.010   6.726 -0.8980 -2.6372  1.0031
   87CHL1  H19C 8887   2.990  -0.019   6.900  1.1827  1.9633  0.8412
   87CHL1    C1 8888   2.925   0.292   6.735 -0.2488 -0.3295 -0.6024
   87CHL1   H1A 8889   2.819   0.274   6.709  0.2797 -1.0676 -2.4358
   87CHL1   H1B 8890   2.938   0.396   6.770  0.2416 -0.9098  1.0562
   87CHL1    C2 8891   3.005   0.270   6.602  0.6015 -0.2554 -0.8728
   87CHL1   H2A 8892   2.974   0.333   6.516 -1.4819 -0.2319 -0.1529
   87CHL1   H2B 8893   2.980   0.165   6.574  0.5300  0.1461 -2.3714
   87CHL1   C20 8894   2.526   0.210   7.410 -0.4426  0.0255  0.1180
   87CHL1   H20 8895   2.461   0.185   7.324 -0.1754 -3.3600  0.7690
   87CHL1   C21 8896   2.453   0.331   7.484 -0.0727 -0.0278 -0.1225
   87CHL1  H21A 8897   2.343   0.319   7.472 -0.2221  0.5633  0.6405
   87CHL1  H21B 8898   2.473   0.427   7.431 -1.2634  0.3711  0.1359
   87CHL1  H21C 8899   2.479   0.340   7.591 -0.1208  4.1443 -0.3182
   87CHL1   C22 8900   2.517   0.077   7.490  0.0620 -0.4558 -0.4735
   87CHL1  H22A 8901   2.587   0.002   7.447  0.7876  0.1389 -0.3345
   87CHL1  H22B 8902   2.560   0.105   7.588  1.1858  2.6975 -1.7373
   87CHL1   C23 8903   2.382   0.012   7.517  0.6553  0.1782 -0.2088
   87CHL1  H23A 8904   2.306   0.088   7.547 -0.2333 -0.3567 -1.0595
   87CHL1  H23B 8905   2.355  -0.026   7.416  1.0288  1.1989 -0.7064
   87CHL1   C24 8906   2.386  -0.113   7.600 -0.7778 -0.4266  0.1960
   87CHL1  H24A 8907   2.423  -0.204   7.548 -1.3934 -1.9136  2.2262
   87CHL1  H24B 8908   2.451  -0.105   7.690 -1.7046  1.3289  0.7766
   87CHL1   C25 8909   2.252  -0.157   7.664 -0.0052 -0.0179  0.5037
   87CHL1   H25 8910   2.181  -0.169   7.579 -1.4086 -2.1248  1.8778
   87CHL1   C26 8911   2.256  -0.297   7.725 -0.7307  0.0167  0.5583
   87CHL1  H26A 8912   2.297  -0.360   7.644  0.2541 -1.2014  1.9429
   87CHL1  H26B 8913   2.321  -0.315   7.813 -0.8856  0.3704  0.7486
   87CHL1  H26C 8914   2.152  -0.332   7.746 -0.5352 -0.8394  0.1421
   87CHL1   C27 8915   2.198  -0.062   7.761 -0.3507  0.4070 -0.5240
   87CHL1  H27A 8916   2.088  -0.077   7.772 -0.2197 -0.1071  0.1213
   87CHL1  H27B 8917   2.252  -0.079   7.856 -0.9641  1.7211  0.0809
   87CHL1  H27C 8918   2.220   0.043   7.731 -1.7268  1.3293  1.4564
   88CHL1    C3 8919   1.828   5.618   6.944 -0.2282 -0.3374 -0.3510
   88CHL1    H3 8920   1.910   5.666   7.003 -0.8499  1.9032 -1.2112
   88CHL1    O3 8921   1.858   5.642   6.814  0.0208 -0.1135  0.6813
   88CHL1   H3' 8922   1.886   5.734   6.816 -1.1504  0.3143  4.5003
   88CHL1    C4 8923   1.831   5.467   6.972  0.7858 -0.4638  0.6357
   88CHL1   H4A 8924   1.766   5.415   6.899  0.9222 -0.0338  0.2046
   88CHL1   H4B 8925   1.933   5.426   6.953 -0.2976 -1.9949 -2.4239
   88CHL1    C5 8926   1.785   5.430   7.117 -0.4838 -0.4264  0.7618
   88CHL1    C6 8927   1.864   5.345   7.191 -0.3907 -0.3585 -0.1912
   88CHL1    H6 8928   1.953   5.303   7.141 -1.3782 -2.0917 -0.5917
   88CHL1    C7 8929   1.832   5.310   7.337 -0.2975  0.4341  0.0567
   88CHL1   H7A 8930   1.856   5.202   7.351  0.4909  0.3327 -1.7465
   88CHL1   H7B 8931   1.906   5.343   7.413 -0.7254 -0.2420  0.7888
   88CHL1    C8 8932   1.688   5.329   7.380  0.1666  0.1151  0.3044
   88CHL1    H8 8933   1.612   5.258   7.340  0.4119  0.4957 -0.8822
   88CHL1   C14 8934   1.680   5.340   7.532  0.8305 -0.4199  0.4226
   88CHL1   H14 8935   1.740   5.429   7.559  0.9825 -0.2629 -0.4134
   88CHL1   C15 8936   1.736   5.225   7.617 -0.0045 -0.4593 -0.6033
   88CHL1  H15A 8937   1.693   5.132   7.574  1.3908 -1.1374 -0.5752
   88CHL1  H15B 8938   1.846   5.217   7.611 -0.0666 -0.7735 -1.3677
   88CHL1   C16 8939   1.678   5.260   7.753  0.9858 -0.0673  0.2346
   88CHL1  H16A 8940   1.635   5.172   7.807  1.7025 -0.3536  0.3573
   88CHL1  H16B 8941   1.756   5.294   7.824  1.4150  0.3118 -0.4094
   88CHL1   C17 8942   1.571   5.381   7.731  0.0082 -0.0439 -0.5547
   88CHL1   H17 8943   1.628   5.474   7.751  2.8137 -2.1467  2.2881
   88CHL1   C13 8944   1.537   5.374   7.583 -0.6023 -0.3608  0.2614
   88CHL1   C18 8945   1.442   5.261   7.559  0.3393  0.8465 -0.4036
   88CHL1  H18A 8946   1.342   5.290   7.596  0.6163  2.3017 -0.7085
   88CHL1  H18B 8947   1.429   5.241   7.450  2.6435 -1.8881 -0.2856
   88CHL1  H18C 8948   1.461   5.158   7.596 -1.3180  0.2565 -1.1003
   88CHL1   C12 8949   1.478   5.500   7.516  0.3567  0.2599 -0.0868
   88CHL1  H12A 8950   1.369   5.515   7.529  0.3787  2.6085 -1.9390
   88CHL1  H12B 8951   1.534   5.590   7.547 -2.0863  1.4978  1.0351
   88CHL1   C11 8952   1.485   5.483   7.361 -0.4380  0.0678 -0.0872
   88CHL1  H11A 8953   1.429   5.395   7.321  0.4559  0.2079 -1.7799
   88CHL1  H11B 8954   1.442   5.571   7.310 -0.3823 -0.3467 -0.8707
   88CHL1    C9 8955   1.630   5.457   7.312 -0.5746  0.6206  0.0605
   88CHL1    H9 8956   1.690   5.539   7.357  0.4829 -1.0252  1.8577
   88CHL1   C10 8957   1.651   5.480   7.162 -0.3730 -0.1051 -0.3420
   88CHL1   C19 8958   1.541   5.408   7.086  0.4031  0.4905 -0.0444
   88CHL1  H19A 8959   1.449   5.467   7.109  1.6630  2.5442 -0.1061
   88CHL1  H19B 8960   1.564   5.421   6.978  1.5119  2.5315  0.3919
   88CHL1  H19C 8961   1.538   5.304   7.126 -1.9432  1.3257  2.2853
   88CHL1    C1 8962   1.650   5.635   7.135  0.3727  0.1481 -0.0074
   88CHL1   H1A 8963   1.545   5.668   7.147  0.6806  1.1147  0.1245
   88CHL1   H1B 8964   1.698   5.701   7.210  1.1451  0.8216 -1.0603
   88CHL1    C2 8965   1.691   5.678   6.991 -0.1905  0.0536 -0.2818
   88CHL1   H2A 8966   1.703   5.788   6.999  0.7504 -0.1718  3.2181
   88CHL1   H2B 8967   1.604   5.654   6.926 -1.3586 -2.4853  1.9966
   88CHL1   C20 8968   1.467   5.378   7.848  0.1868  0.7164  0.4769
   88CHL1   H20 8969   1.424   5.276   7.840 -0.2318  0.9711 -0.7757
   88CHL1   C21 8970   1.350   5.482   7.848  0.3795 -0.5562 -0.2111
   88CHL1  H21A 8971   1.408   5.576   7.855 -1.7968  0.7562  1.6131
   88CHL1  H21B 8972   1.277   5.465   7.930  1.0964 -1.9127  0.1885
   88CHL1  H21C 8973   1.289   5.466   7.757  1.3412 -2.0523 -0.6425
   88CHL1   C22 8974   1.533   5.376   7.996  0.0485  0.5946  0.2551
   88CHL1  H22A 8975   1.452   5.376   8.072  0.4642  0.7452  0.7008
   88CHL1  H22B 8976   1.587   5.279   8.001 -1.9601 -0.4743  2.6667
   88CHL1   C23 8977   1.623   5.502   8.023  0.2503  0.0636  0.7244
   88CHL1  H23A 8978   1.725   5.503   7.979 -0.5539  3.3123 -1.4811
   88CHL1  H23B 8979   1.577   5.587   7.969  1.3556  0.1752 -0.0741
   88CHL1   C24 8980   1.624   5.544   8.169  0.3505  0.5576 -0.1856
   88CHL1  H24A 8981   1.680   5.639   8.180 -1.2067  1.3946  0.8139
   88CHL1  H24B 8982   1.518   5.563   8.197  0.8724  1.5558  1.1737
   88CHL1   C25 8983   1.676   5.436   8.275 -0.3077 -0.4475 -0.0146
   88CHL1   H25 8984   1.606   5.350   8.267  0.6912 -1.2152 -0.6410
   88CHL1   C26 8985   1.814   5.382   8.238 -0.3839 -0.0829  0.1476
   88CHL1  H26A 8986   1.822   5.354   8.131 -0.2941  0.1757  0.0868
   88CHL1  H26B 8987   1.887   5.465   8.252 -0.0052  0.2146 -2.9215
   88CHL1  H26C 8988   1.833   5.287   8.293  1.9625 -0.9348 -1.9521
   88CHL1   C27 8989   1.672   5.482   8.423  0.4967 -0.3261 -0.6625
   88CHL1  H27A 8990   1.746   5.425   8.483 -0.0833  0.0133  0.4107
   88CHL1  H27B 8991   1.706   5.588   8.422 -0.8338  0.1448  0.2582
   88CHL1  H27C 8992   1.569   5.476   8.465 -0.0229  0.7342 -1.7047
   89CHL1    C3 8993   4.473   0.765   6.771  0.6502 -0.6423 -0.1379
   89CHL1    H3 8994   4.497   0.656   6.765  1.3060 -0.5580  0.7461
   89CHL1    O3 8995   4.430   0.811   6.643  0.3212 -0.4992 -0.7953
   89CHL1   H3' 8996   4.342   0.779   6.623 -0.8162  2.4808 -1.0366
   89CHL1    C4 8997   4.359   0.795   6.867 -0.2626  0.9062  0.3201
   89CHL1   H4A 8998   4.311   0.895   6.870 -1.5734  0.3005  2.6886
   89CHL1   H4B 8999   4.290   0.713   6.838  0.2098  1.0931 -1.4281
   89CHL1    C5 9000   4.407   0.780   7.004  0.3933  0.0309 -0.7838
   89CHL1    C6 9001   4.340   0.696   7.083 -0.0360  0.0486 -0.5124
   89CHL1    H6 9002   4.247   0.645   7.052  0.2694 -0.6802 -0.2737
   89CHL1    C7 9003   4.375   0.675   7.228 -0.3260 -0.8067  0.2967
   89CHL1   H7A 9004   4.280   0.683   7.286 -0.0621 -0.4841  0.6881
   89CHL1   H7B 9005   4.412   0.570   7.234 -2.4978 -1.6842 -0.6027
   89CHL1    C8 9006   4.481   0.761   7.293 -0.5183  0.2565  0.2419
   89CHL1    H8 9007   4.433   0.857   7.323 -2.0636 -0.9009  1.6996
   89CHL1   C14 9008   4.535   0.695   7.428  0.0355 -0.2255 -0.0028
   89CHL1   H14 9009   4.587   0.604   7.393 -2.0121 -1.4785  0.0906
   89CHL1   C15 9010   4.433   0.632   7.529  0.8206  0.6155 -0.4840
   89CHL1  H15A 9011   4.348   0.704   7.527  1.5492  1.4778 -2.1061
   89CHL1  H15B 9012   4.418   0.527   7.495  4.0972  0.0227 -0.4148
   89CHL1   C16 9013   4.514   0.634   7.656  0.2139 -0.1560 -0.7037
   89CHL1  H16A 9014   4.457   0.698   7.726  0.2692 -1.4780  0.5915
   89CHL1  H16B 9015   4.535   0.530   7.690  3.9380  0.6291 -0.1909
   89CHL1   C17 9016   4.652   0.694   7.625 -0.5520  0.4309  0.1792
   89CHL1   H17 9017   4.722   0.614   7.594 -1.2196 -0.8005  1.7061
   89CHL1   C13 9018   4.633   0.787   7.500 -0.1750 -0.1532 -0.1956
   89CHL1   C18 9019   4.565   0.915   7.541  0.3280  0.1825  0.2872
   89CHL1  H18A 9020   4.552   0.997   7.468  0.7793  0.8277  0.9133
   89CHL1  H18B 9021   4.466   0.903   7.590 -1.1463  3.1054 -1.6955
   89CHL1  H18C 9022   4.619   0.962   7.626 -0.3009 -1.2503  1.5284
   89CHL1   C12 9023   4.754   0.811   7.407  0.3040  0.2622 -0.7993
   89CHL1  H12A 9024   4.819   0.889   7.451  0.4869 -0.8825  1.0814
   89CHL1  H12B 9025   4.819   0.721   7.409  1.4496  1.0711 -0.8024
   89CHL1   C11 9026   4.710   0.860   7.266 -0.2990  0.6516  0.4026
   89CHL1  H11A 9027   4.698   0.970   7.278 -0.0911  0.6255  0.8532
   89CHL1  H11B 9028   4.794   0.842   7.196 -0.7540 -1.0172  0.2394
   89CHL1    C9 9029   4.594   0.786   7.194 -0.0131  0.4651  0.1509
   89CHL1    H9 9030   4.639   0.685   7.185 -1.1076 -0.0345  0.2171
   89CHL1   C10 9031   4.541   0.832   7.052 -0.1614 -0.2225 -0.0303
   89CHL1   C19 9032   4.519   0.986   7.072 -0.1603 -0.4766 -0.4919
   89CHL1  H19A 9033   4.473   1.035   6.983  1.7169  0.3428 -1.0800
   89CHL1  H19B 9034   4.464   1.014   7.163 -1.8475 -0.7943 -1.3786
   89CHL1  H19C 9035   4.619   1.034   7.082 -1.0404  1.0985  1.3574
   89CHL1    C1 9036   4.653   0.807   6.943 -0.0453  0.2011 -0.0267
   89CHL1   H1A 9037   4.739   0.869   6.975 -0.0934  1.3333 -1.9334
   89CHL1   H1B 9038   4.681   0.700   6.948  3.7986  1.1176  1.0820
   89CHL1    C2 9039   4.608   0.838   6.803  0.5509 -0.3990  0.4972
   89CHL1   H2A 9040   4.683   0.799   6.731 -0.2069 -1.9363  0.5014
   89CHL1   H2B 9041   4.595   0.948   6.792 -2.2100 -0.8771 -2.1179
   89CHL1   C20 9042   4.715   0.755   7.745  0.0313 -0.1974 -0.7401
   89CHL1   H20 9043   4.644   0.831   7.784  1.5213  2.0419 -2.1562
   89CHL1   C21 9044   4.848   0.823   7.712 -0.3358 -0.2252  0.2111
   89CHL1  H21A 9045   4.901   0.835   7.809  0.2814  0.4325 -0.2004
   89CHL1  H21B 9046   4.825   0.922   7.668 -0.3464 -0.3509 -0.0703
   89CHL1  H21C 9047   4.915   0.759   7.652 -0.3992  0.4765 -0.6218
   89CHL1   C22 9048   4.732   0.659   7.866  0.2054  0.0488 -0.0085
   89CHL1  H22A 9049   4.649   0.586   7.881 -1.2665  1.4361 -0.9884
   89CHL1  H22B 9050   4.825   0.602   7.847  0.8063 -0.3487  3.4216
   89CHL1   C23 9051   4.758   0.734   8.004  0.1073  0.0309  0.0512
   89CHL1  H23A 9052   4.851   0.795   8.002  0.9657 -1.0984  2.2030
   89CHL1  H23B 9053   4.671   0.799   8.029 -0.2559  0.2844 -1.7345
   89CHL1   C24 9054   4.769   0.623   8.116 -0.4855 -0.1212  0.1690
   89CHL1  H24A 9055   4.673   0.575   8.143  0.4979 -0.2288  4.0433
   89CHL1  H24B 9056   4.848   0.551   8.086 -0.5443  0.5667 -1.7433
   89CHL1   C25 9057   4.825   0.682   8.243  0.4269 -0.4491  0.4542
   89CHL1   H25 9058   4.920   0.733   8.215  1.0039 -1.0776  1.2024
   89CHL1   C26 9059   4.727   0.790   8.308  0.4831 -0.0311  0.5762
   89CHL1  H26A 9060   4.634   0.738   8.337 -0.1510  0.9988  0.4427
   89CHL1  H26B 9061   4.772   0.829   8.402 -0.6934 -0.3230  1.2766
   89CHL1  H26C 9062   4.695   0.862   8.229 -1.4244 -0.6291  0.7667
   89CHL1   C27 9063   4.857   0.582   8.349 -0.6594 -0.1584 -0.0363
   89CHL1  H27A 9064   4.893   0.626   8.444  0.9423  0.4215 -0.8799
   89CHL1  H27B 9065   4.768   0.519   8.372 -0.3196 -0.9105 -0.7400
   89CHL1  H27C 9066   4.929   0.504   8.318 -0.4804 -0.1443  0.3482
   90CHL1    C3 9067   4.919   3.207   7.050  0.0153  0.1003  0.3465
   90CHL1    H3 9068   4.894   3.314   7.070 -0.0484  0.0379  0.6014
   90CHL1    O3 9069   4.906   3.170   6.914  0.1841 -1.1099 -0.2659
   90CHL1   H3' 9070   4.926   3.077   6.924  1.1990 -0.7075  2.0035
   90CHL1    C4 9071   5.072   3.207   7.094  0.3511 -0.2925  0.0496
   90CHL1   H4A 9072   5.103   3.103   7.070 -1.7658 -0.5552 -2.0717
   90CHL1   H4B 9073   5.140   3.269   7.032  0.3680 -0.0714  0.2884
   90CHL1    C5 9074   5.079   3.245   7.239 -0.3767 -0.3110 -0.5572
   90CHL1    C6 9075   5.157   3.352   7.274  0.4775  0.1125  0.9733
   90CHL1    H6 9076   5.227   3.397   7.202  0.4974  0.9290  1.4808
   90CHL1    C7 9077   5.161   3.413   7.414 -0.2834 -0.1319  0.0972
   90CHL1   H7A 9078   5.267   3.436   7.437 -0.1188  0.8465 -1.4814
   90CHL1   H7B 9079   5.106   3.509   7.425  0.6100  0.3872  0.0696
   90CHL1    C8 9080   5.115   3.309   7.517  0.1456 -0.1774 -0.2650
   90CHL1    H8 9081   5.187   3.224   7.524 -0.6087 -0.8661 -0.6967
   90CHL1   C14 9082   5.097   3.383   7.647  0.1889 -0.3748  0.4934
   90CHL1   H14 9083   5.029   3.468   7.627  0.4066 -0.3904 -0.3418
   90CHL1   C15 9084   5.217   3.460   7.712 -0.6694  0.9835  0.2139
   90CHL1  H15A 9085   5.315   3.409   7.696 -1.4796 -0.3098 -0.8858
   90CHL1  H15B 9086   5.230   3.559   7.664  1.8720  0.4957 -0.2570
   90CHL1   C16 9087   5.194   3.471   7.865  0.3859 -0.0735  0.2714
   90CHL1  H16A 9088   5.271   3.415   7.922  1.3938  1.8041  0.8188
   90CHL1  H16B 9089   5.195   3.569   7.917 -0.3303  0.5558 -0.8754
   90CHL1   C17 9090   5.063   3.395   7.891 -0.2116  0.1661  0.5517
   90CHL1   H17 9091   4.985   3.473   7.875  2.1731  2.5197 -0.3763
   90CHL1   C13 9092   5.044   3.296   7.766 -0.1822 -0.6926  0.9781
   90CHL1   C18 9093   5.152   3.187   7.781 -0.5479 -0.4533 -0.2519
   90CHL1  H18A 9094   5.247   3.231   7.820 -1.3180  0.2984  0.8529
   90CHL1  H18B 9095   5.119   3.118   7.861  2.2322  0.0187  1.4334
   90CHL1  H18C 9096   5.181   3.121   7.696 -0.0316  0.3605 -0.7232
   90CHL1   C12 9097   4.911   3.237   7.736 -0.5743  0.1455 -0.5980
   90CHL1  H12A 9098   4.867   3.170   7.813 -3.2459  1.3676 -0.9268
   90CHL1  H12B 9099   4.840   3.323   7.737  0.3498  0.9198  0.0849
   90CHL1   C11 9100   4.911   3.157   7.600 -0.4187 -0.2546  0.2351
   90CHL1  H11A 9101   4.964   3.059   7.606  1.0148  0.4694 -0.1637
   90CHL1  H11B 9102   4.813   3.125   7.559 -0.1302 -2.4465  1.1195
   90CHL1    C9 9103   4.978   3.244   7.482  0.7204  0.7502  0.6041
   90CHL1    H9 9104   4.911   3.331   7.460 -1.4954  0.1713  4.3142
   90CHL1   C10 9105   4.984   3.169   7.337 -0.4042  0.2925  0.4555
   90CHL1   C19 9106   5.040   3.028   7.365  0.1460  0.3545 -0.1818
   90CHL1  H19A 9107   5.126   3.012   7.433 -0.5925 -1.1963  0.4330
   90CHL1  H19B 9108   4.961   2.958   7.401 -0.0141  0.4880 -0.2736
   90CHL1  H19C 9109   5.076   2.987   7.268  2.1139  0.2912  0.5344
   90CHL1    C1 9110   4.839   3.162   7.285 -0.1244 -0.3312  0.5162
   90CHL1   H1A 9111   4.782   3.085   7.340 -2.1190 -1.2115 -2.5512
   90CHL1   H1B 9112   4.782   3.257   7.290  1.4870  0.6248  1.9265
   90CHL1    C2 9113   4.831   3.120   7.138  0.1663 -0.3391  0.0102
   90CHL1   H2A 9114   4.728   3.119   7.096 -0.0539  0.6950  0.4972
   90CHL1   H2B 9115   4.865   3.014   7.130 -1.1070 -0.7062 -0.7563
   90CHL1   C20 9116   5.034   3.337   8.037  0.1295 -0.5335  0.0776
   90CHL1   H20 9117   4.955   3.260   8.034 -0.1536 -0.2297 -2.4603
   90CHL1   C21 9118   4.967   3.455   8.117  0.2354  0.2666 -0.1386
   90CHL1  H21A 9119   5.011   3.548   8.077  0.9881 -0.2272 -0.4664
   90CHL1  H21B 9120   4.995   3.446   8.224 -1.5505 -0.8815  0.2877
   90CHL1  H21C 9121   4.856   3.446   8.105  0.2708 -0.2274 -0.1031
   90CHL1   C22 9122   5.161   3.286   8.106  0.0913 -0.1378 -0.6011
   90CHL1  H22A 9123   5.220   3.225   8.034  0.8872  1.0097 -0.9465
   90CHL1  H22B 9124   5.232   3.363   8.140 -1.6321  2.1909 -1.9461
   90CHL1   C23 9125   5.134   3.202   8.223 -0.7018  0.1104  0.2976
   90CHL1  H23A 9126   5.222   3.188   8.290  0.5048 -1.9610 -1.5866
   90CHL1  H23B 9127   5.085   3.277   8.289  2.2665  2.4872  0.0125
   90CHL1   C24 9128   5.059   3.067   8.216 -0.2658 -0.3703  0.1538
   90CHL1  H24A 9129   4.953   3.079   8.184  0.5478  3.7394 -1.6418
   90CHL1  H24B 9130   5.118   3.015   8.138  0.4345 -1.2082  1.2044
   90CHL1   C25 9131   5.063   2.992   8.338  0.0567 -0.1732  0.3721
   90CHL1   H25 9132   5.171   2.973   8.359  0.5897  0.2419 -1.8023
   90CHL1   C26 9133   5.003   3.062   8.461  0.2083 -0.5667 -0.1268
   90CHL1  H26A 9134   5.051   3.157   8.492 -1.4914  0.8031 -1.4882
   90CHL1  H26B 9135   4.904   3.095   8.424  0.5933  0.6835 -0.0709
   90CHL1  H26C 9136   4.984   2.992   8.546 -0.6922  1.3166  1.3096
   90CHL1   C27 9137   5.004   2.840   8.324 -0.1791  0.0816  0.3987
   90CHL1  H27A 9138   4.998   2.781   8.418 -0.9645  1.1096  1.0200
   90CHL1  H27B 9139   4.897   2.859   8.297 -0.2779 -1.0921 -0.0932
   90CHL1  H27C 9140   5.048   2.787   8.237  1.0344 -2.1193  2.2384
   91CHL1    C3 9141   5.284   4.490   6.758  0.9312 -0.2897 -0.2824
   91CHL1    H3 9142   5.386   4.523   6.728  0.3068  2.7150  0.6181
   91CHL1    O3 9143   5.201   4.481   6.640 -0.4733  0.0514  0.3637
   91CHL1   H3' 9144   5.157   4.566   6.630 -0.3113  0.3214  1.7680
   91CHL1    C4 9145   5.275   4.355   6.831 -0.3287 -0.6397  0.2458
   91CHL1   H4A 9146   5.171   4.314   6.831 -0.8889  0.7188  0.0205
   91CHL1   H4B 9147   5.332   4.286   6.765  0.3161 -1.5376  1.7036
   91CHL1    C5 9148   5.333   4.356   6.968 -0.1512 -0.3810  0.3721
   91CHL1    C6 9149   5.433   4.264   6.996  0.3054 -0.1921  0.5365
   91CHL1    H6 9150   5.464   4.187   6.925  1.3706  0.5204  0.2030
   91CHL1    C7 9151   5.494   4.254   7.131  0.4738 -0.3955 -0.9840
   91CHL1   H7A 9152   5.495   4.146   7.157 -1.1140 -0.2046 -0.0277
   91CHL1   H7B 9153   5.593   4.304   7.133 -0.8790  2.4541 -0.7498
   91CHL1    C8 9154   5.407   4.325   7.239  0.1391  0.9032 -0.8020
   91CHL1    H8 9155   5.312   4.267   7.246  0.3077  0.4879 -1.8162
   91CHL1   C14 9156   5.483   4.337   7.375 -0.6953  1.1473  0.1115
   91CHL1   H14 9157   5.572   4.403   7.363 -0.0395 -0.1210 -3.0969
   91CHL1   C15 9158   5.529   4.205   7.434 -0.4946  0.1537  0.2184
   91CHL1  H15A 9159   5.452   4.127   7.416 -0.1827 -0.1753  0.3043
   91CHL1  H15B 9160   5.612   4.153   7.383 -2.7391 -2.0643 -1.4123
   91CHL1   C16 9161   5.550   4.224   7.588  0.7165 -0.0380 -0.0652
   91CHL1  H16A 9162   5.475   4.152   7.628 -2.1733  3.5287  1.5353
   91CHL1  H16B 9163   5.655   4.204   7.619 -0.3881 -1.2240  3.3900
   91CHL1   C17 9164   5.500   4.375   7.603 -0.0299 -0.1033  0.6575
   91CHL1   H17 9165   5.583   4.444   7.572  0.8432 -2.1440 -1.8809
   91CHL1   C13 9166   5.400   4.403   7.485 -0.5666  0.3683 -0.9238
   91CHL1   C18 9167   5.264   4.343   7.505  0.1913  0.5054  0.0180
   91CHL1  H18A 9168   5.203   4.364   7.415 -0.1066 -0.3840  0.0011
   91CHL1  H18B 9169   5.266   4.231   7.506 -2.2639  0.4014  0.9669
   91CHL1  H18C 9170   5.217   4.378   7.599  1.3249 -2.6596  1.9516
   91CHL1   C12 9171   5.383   4.548   7.446  0.4621  0.3666 -0.5382
   91CHL1  H12A 9172   5.309   4.596   7.513  0.3607 -0.3652 -0.1202
   91CHL1  H12B 9173   5.477   4.607   7.444  1.5729 -1.2968  0.2539
   91CHL1   C11 9174   5.326   4.567   7.299 -0.2818  0.0888  0.1260
   91CHL1  H11A 9175   5.217   4.545   7.308  0.1206 -3.1948 -1.3341
   91CHL1  H11B 9176   5.339   4.673   7.269 -2.9595  0.5479  0.3728
   91CHL1    C9 9177   5.379   4.468   7.184 -0.0413 -0.8591 -0.2632
   91CHL1    H9 9178   5.482   4.504   7.160  0.9324 -0.9316  3.2513
   91CHL1   C10 9179   5.293   4.473   7.054  0.0939 -0.1453  0.5860
   91CHL1   C19 9180   5.141   4.453   7.084 -0.2377 -0.4087  0.0086
   91CHL1  H19A 9181   5.138   4.354   7.134  2.3157  0.0832  1.3255
   91CHL1  H19B 9182   5.090   4.529   7.148 -2.3826 -2.5225  0.9727
   91CHL1  H19C 9183   5.081   4.461   6.991  0.9550 -0.9880 -0.8320
   91CHL1    C1 9184   5.306   4.604   6.976  0.2278 -0.0090 -0.0770
   91CHL1   H1A 9185   5.268   4.692   7.031  1.1045  0.7994 -0.7298
   91CHL1   H1B 9186   5.414   4.623   6.958  0.1720  0.5950  0.2033
   91CHL1    C2 9187   5.238   4.609   6.842  0.3018 -0.5766 -0.2115
   91CHL1   H2A 9188   5.248   4.705   6.786 -4.4630  1.1868  1.4262
   91CHL1   H2B 9189   5.128   4.598   6.851 -0.0279  1.5930 -0.9866
   91CHL1   C20 9190   5.459   4.408   7.746 -0.0375  0.4703  0.8006
   91CHL1   H20 9191   5.354   4.377   7.764  0.0349  0.7137  1.7029
   91CHL1   C21 9192   5.460   4.563   7.755 -0.1896  0.7673 -0.0448
   91CHL1  H21A 9193   5.553   4.599   7.707 -0.7151  0.8925 -0.9925
   91CHL1  H21B 9194   5.455   4.601   7.859 -1.8426  2.1127 -0.5661
   91CHL1  H21C 9195   5.380   4.614   7.696 -1.4680 -1.3038 -0.2138
   91CHL1   C22 9196   5.540   4.323   7.845 -0.2054 -0.1615 -0.1760
   91CHL1  H22A 9197   5.507   4.218   7.836 -0.5997 -0.1357  0.7719
   91CHL1  H22B 9198   5.650   4.326   7.825  0.2878 -1.7356  1.8900
   91CHL1   C23 9199   5.514   4.374   7.990 -1.0644  0.2378  0.8473
   91CHL1  H23A 9200   5.590   4.450   8.016 -1.1743  0.6698 -0.0725
   91CHL1  H23B 9201   5.414   4.423   7.989 -1.8167 -1.2281  0.6847
   91CHL1   C24 9202   5.524   4.258   8.087  0.1830  0.0928  0.1869
   91CHL1  H24A 9203   5.446   4.180   8.075  2.5500 -2.6285  1.2584
   91CHL1  H24B 9204   5.622   4.212   8.062  0.4699  0.6849  0.2060
   91CHL1   C25 9205   5.531   4.292   8.237  1.0693 -0.1930 -0.6137
   91CHL1   H25 9206   5.609   4.371   8.247  0.2226  0.6578 -0.5943
   91CHL1   C26 9207   5.401   4.359   8.295 -0.2670 -0.0921  0.2786
   91CHL1  H26A 9208   5.421   4.388   8.400  0.3007 -0.0070  0.1492
   91CHL1  H26B 9209   5.365   4.442   8.231 -1.0311 -2.9571 -3.3551
   91CHL1  H26C 9210   5.319   4.285   8.305  0.9173 -1.5202 -0.1995
   91CHL1   C27 9211   5.596   4.189   8.330  0.3518  0.2834 -0.4198
   91CHL1  H27A 9212   5.654   4.239   8.411  0.6626 -0.4216 -0.1956
   91CHL1  H27B 9213   5.525   4.117   8.377  1.1332 -0.0524  0.2881
   91CHL1  H27C 9214   5.655   4.121   8.264 -1.8405 -1.3574 -0.8051
   92CHL1    C3 9215   2.948   4.003   6.888  0.9539  0.1581  0.2068
   92CHL1    H3 9216   2.853   3.996   6.831  1.2323  1.3829 -0.4359
   92CHL1    O3 9217   3.051   3.987   6.789 -0.3036 -0.3109  0.6480
   92CHL1   H3' 9218   2.996   4.029   6.722 -0.0826  1.6757  1.6191
   92CHL1    C4 9219   2.957   4.147   6.951  0.1720  0.9298 -0.1117
   92CHL1   H4A 9220   3.062   4.157   6.987  0.1659  0.6210 -0.0039
   92CHL1   H4B 9221   2.934   4.217   6.868 -3.2040  1.7464  1.3458
   92CHL1    C5 9222   2.861   4.164   7.066 -0.0749  0.5512  0.3927
   92CHL1    C6 9223   2.791   4.277   7.074  0.5327 -0.1311  0.2230
   92CHL1    H6 9224   2.795   4.358   6.999 -1.7588 -0.3614 -0.2281
   92CHL1    C7 9225   2.697   4.316   7.176  0.1634  0.0760 -0.0936
   92CHL1   H7A 9226   2.704   4.423   7.204 -0.5900 -0.1781  1.1546
   92CHL1   H7B 9227   2.591   4.299   7.147 -0.5916  1.4320  1.7152
   92CHL1    C8 9228   2.716   4.222   7.304  0.3974  0.7153  0.0386
   92CHL1    H8 9229   2.806   4.266   7.352  0.9340  1.4764 -1.5613
   92CHL1   C14 9230   2.594   4.227   7.403  1.2743 -0.8271  0.3509
   92CHL1   H14 9231   2.513   4.177   7.346  1.0302 -1.5239  1.2919
   92CHL1   C15 9232   2.537   4.368   7.441  0.9148  0.1276 -0.4479
   92CHL1  H15A 9233   2.622   4.439   7.453 -0.4114  1.4460  1.7687
   92CHL1  H15B 9234   2.479   4.407   7.354  1.8963 -2.4774 -2.3727
   92CHL1   C16 9235   2.457   4.343   7.568 -0.4246  0.4166 -0.8696
   92CHL1  H16A 9236   2.503   4.402   7.650  2.8025 -0.1407 -2.1117
   92CHL1  H16B 9237   2.348   4.361   7.557 -0.9734 -1.7102  0.4283
   92CHL1   C17 9238   2.482   4.193   7.606  0.1554 -0.0620 -0.5413
   92CHL1   H17 9239   2.400   4.139   7.554 -0.3739  0.6973 -0.5095
   92CHL1   C13 9240   2.601   4.141   7.533 -0.1309 -0.3771  0.7689
   92CHL1   C18 9241   2.732   4.191   7.608  0.3010  0.2709  0.2294
   92CHL1  H18A 9242   2.761   4.114   7.682 -0.5631 -3.5626 -3.0477
   92CHL1  H18B 9243   2.820   4.198   7.540 -0.1227  0.6573 -0.2917
   92CHL1  H18C 9244   2.706   4.292   7.645 -0.2980 -0.3537  1.5632
   92CHL1   C12 9245   2.600   3.998   7.469  0.3793 -0.0147 -0.7274
   92CHL1  H12A 9246   2.619   3.919   7.545  0.2268 -0.1298 -0.8075
   92CHL1  H12B 9247   2.513   3.961   7.411 -0.7128  1.1958  0.0894
   92CHL1   C11 9248   2.721   3.981   7.376 -0.6071  0.1620 -0.2089
   92CHL1  H11A 9249   2.817   3.996   7.430 -0.7059  0.9120 -0.2397
   92CHL1  H11B 9250   2.725   3.876   7.339 -2.8886  0.1988 -0.6931
   92CHL1    C9 9251   2.731   4.074   7.258  0.2380 -0.3305  0.3119
   92CHL1    H9 9252   2.639   4.045   7.203 -0.0054 -0.2011  0.6402
   92CHL1   C10 9253   2.854   4.055   7.169 -0.6562 -0.2363  0.2783
   92CHL1   C19 9254   2.983   4.082   7.256  0.3583 -0.1596  0.0630
   92CHL1  H19A 9255   3.011   3.997   7.323 -1.4814  0.3673  1.5637
   92CHL1  H19B 9256   3.079   4.101   7.203  0.5059 -1.5625 -0.2301
   92CHL1  H19C 9257   2.966   4.162   7.330  0.5750 -0.4563  0.4379
   92CHL1    C1 9258   2.868   3.915   7.106 -0.0950  0.3942 -0.1101
   92CHL1   H1A 9259   2.884   3.836   7.182 -2.0745 -1.7458 -1.7378
   92CHL1   H1B 9260   2.772   3.903   7.051  0.9165 -1.0199 -1.6604
   92CHL1    C2 9261   2.969   3.898   6.994  0.2224  0.2539 -0.1055
   92CHL1   H2A 9262   2.977   3.794   6.957  2.0255 -0.8301  2.9599
   92CHL1   H2B 9263   3.069   3.913   7.040  1.1288  1.1293 -2.2025
   92CHL1   C20 9264   2.468   4.172   7.760 -0.8046 -0.2465  0.6346
   92CHL1   H20 9265   2.563   4.202   7.810  0.2540  0.3830 -1.6075
   92CHL1   C21 9266   2.460   4.012   7.784  0.8728 -0.7214 -0.0836
   92CHL1  H21A 9267   2.443   3.988   7.892 -1.5432  0.0025 -0.2504
   92CHL1  H21B 9268   2.551   3.963   7.744  0.6026 -1.0030 -0.3456
   92CHL1  H21C 9269   2.374   3.985   7.720 -0.3787  0.3612  1.0742
   92CHL1   C22 9270   2.343   4.241   7.827 -0.6172  0.1103  0.3344
   92CHL1  H22A 9271   2.269   4.258   7.746  0.7468  1.2387 -0.7448
   92CHL1  H22B 9272   2.295   4.165   7.892 -2.2626 -0.7507 -1.7528
   92CHL1   C23 9273   2.372   4.362   7.916  0.0910 -0.0315  0.1759
   92CHL1  H23A 9274   2.454   4.326   7.981 -0.8274 -0.7281  0.9693
   92CHL1  H23B 9275   2.412   4.443   7.851  0.3610  0.8078  1.3658
   92CHL1   C24 9276   2.252   4.397   7.993 -0.0909 -0.2285 -0.5421
   92CHL1  H24A 9277   2.173   4.438   7.925 -0.5084 -1.6748 -0.9595
   92CHL1  H24B 9278   2.219   4.305   8.044  0.9916 -1.3240 -1.7521
   92CHL1   C25 9279   2.294   4.514   8.095  0.2370  0.2689  0.1836
   92CHL1   H25 9280   2.387   4.482   8.146  0.0679  2.6304  2.1728
   92CHL1   C26 9281   2.306   4.647   8.032 -0.3376  0.4143  0.4782
   92CHL1  H26A 9282   2.355   4.638   7.933  1.6186 -2.7812  1.5818
   92CHL1  H26B 9283   2.205   4.693   8.024 -0.3036  0.3816 -0.1919
   92CHL1  H26C 9284   2.377   4.712   8.089  0.9377  1.2827 -1.9467
   92CHL1   C27 9285   2.175   4.531   8.201  0.0645 -0.7534 -0.2761
   92CHL1  H27A 9286   2.163   4.434   8.253  0.0817  0.0936  1.3685
   92CHL1  H27B 9287   2.197   4.611   8.276  0.7912 -0.4368 -0.8078
   92CHL1  H27C 9288   2.076   4.554   8.156  0.2050  0.1357 -0.1500
   93CHL1    C3 9289   1.184   3.712   6.879 -0.1285 -1.0665  0.0440
   93CHL1    H3 9290   1.078   3.689   6.903 -0.3743  0.6252  0.7069
   93CHL1    O3 9291   1.202   3.731   6.740 -0.7912  0.3693 -0.0883
   93CHL1   H3' 9292   1.280   3.677   6.729 -1.6609 -1.2287  1.1127
   93CHL1    C4 9293   1.215   3.847   6.940  0.2931 -0.0370 -0.1846
   93CHL1   H4A 9294   1.308   3.901   6.913 -1.7886  2.9384 -2.0574
   93CHL1   H4B 9295   1.133   3.916   6.911 -1.8182 -1.5514  1.7664
   93CHL1    C5 9296   1.210   3.852   7.090 -0.1276 -0.8478 -0.4287
   93CHL1    C6 9297   1.132   3.939   7.156 -0.1731 -0.1103  0.6250
   93CHL1    H6 9298   1.073   4.015   7.102 -0.0446 -1.2560 -1.2037
   93CHL1    C7 9299   1.119   3.938   7.305  0.1377  0.0599 -0.4000
   93CHL1   H7A 9300   1.109   4.042   7.343 -1.6132 -0.0957 -0.3609
   93CHL1   H7B 9301   1.021   3.891   7.329  0.1000 -0.6782 -1.9072
   93CHL1    C8 9302   1.219   3.849   7.382 -0.1493 -0.4027  0.2239
   93CHL1    H8 9303   1.315   3.903   7.388  0.1568 -0.9495  0.3612
   93CHL1   C14 9304   1.156   3.814   7.508 -0.0665  0.1481 -0.3998
   93CHL1   H14 9305   1.061   3.762   7.483  0.3011  0.3790 -2.5113
   93CHL1   C15 9306   1.110   3.932   7.595 -0.3441  0.5526 -0.3350
   93CHL1  H15A 9307   1.196   4.001   7.579  0.8332 -0.7944 -0.0137
   93CHL1  H15B 9308   1.019   3.986   7.562 -0.3759  0.5886 -0.1928
   93CHL1   C16 9309   1.109   3.866   7.733  0.0477  0.2109 -1.0785
   93CHL1  H16A 9310   1.187   3.909   7.800 -1.3660 -0.1795  0.9336
   93CHL1  H16B 9311   1.011   3.875   7.786  0.4424 -0.7973 -0.1297
   93CHL1   C17 9312   1.154   3.720   7.726 -0.5798 -0.0872 -0.0197
   93CHL1   H17 9313   1.062   3.664   7.701  0.1497 -1.1430 -0.3929
   93CHL1   C13 9314   1.243   3.727   7.599 -0.6720  0.5846  0.1795
   93CHL1   C18 9315   1.374   3.797   7.630  0.2267 -0.0979  0.0375
   93CHL1  H18A 9316   1.417   3.750   7.721  1.4351 -1.6311 -1.2558
   93CHL1  H18B 9317   1.441   3.786   7.543 -2.2356 -0.2002 -1.9745
   93CHL1  H18C 9318   1.363   3.907   7.639  0.1396 -0.0226 -0.9132
   93CHL1   C12 9319   1.267   3.594   7.520  0.2585  0.2223 -0.4356
   93CHL1  H12A 9320   1.334   3.528   7.578  2.6938  0.9205 -2.2803
   93CHL1  H12B 9321   1.168   3.543   7.510  0.9532 -1.5441  1.1923
   93CHL1   C11 9322   1.320   3.614   7.387  0.6946 -0.5207 -0.0188
   93CHL1  H11A 9323   1.427   3.643   7.395 -0.0836  2.3978  1.1224
   93CHL1  H11B 9324   1.316   3.516   7.335  1.3685 -0.4551 -0.2071
   93CHL1    C9 9325   1.235   3.717   7.301  0.1627  0.1579 -0.9550
   93CHL1    H9 9326   1.135   3.669   7.297  1.1313 -2.2364  0.9678
   93CHL1   C10 9327   1.286   3.739   7.157 -0.2093  0.1821  0.1574
   93CHL1   C19 9328   1.440   3.786   7.162 -0.7667 -0.3045 -0.4004
   93CHL1  H19A 9329   1.502   3.715   7.221  0.0044  0.9700  0.3606
   93CHL1  H19B 9330   1.477   3.784   7.058  0.9466 -0.5298  0.1827
   93CHL1  H19C 9331   1.455   3.885   7.210  0.9907 -0.8348  0.2164
   93CHL1    C1 9332   1.259   3.606   7.087  0.0725  1.1934  0.5793
   93CHL1   H1A 9333   1.340   3.539   7.122  1.0381  2.0716  0.0829
   93CHL1   H1B 9334   1.159   3.558   7.088  0.1197  1.0241 -0.6246
   93CHL1    C2 9335   1.284   3.609   6.934 -0.2154 -0.0596  0.4247
   93CHL1   H2A 9336   1.241   3.517   6.890  1.4494  0.6531 -3.1005
   93CHL1   H2B 9337   1.393   3.618   6.910 -0.3094 -0.2889 -0.1057
   93CHL1   C20 9338   1.203   3.660   7.863 -0.4018 -0.5696 -0.2419
   93CHL1   H20 9339   1.285   3.727   7.896  1.4546 -2.9187  0.1884
   93CHL1   C21 9340   1.262   3.522   7.841  0.0206 -0.1875 -0.5252
   93CHL1  H21A 9341   1.189   3.448   7.801 -0.1211 -0.4427  0.1842
   93CHL1  H21B 9342   1.288   3.477   7.939 -0.5842  0.5596 -0.0151
   93CHL1  H21C 9343   1.359   3.513   7.788 -0.8204 -0.6790 -2.0284
   93CHL1   C22 9344   1.086   3.651   7.963  0.1461 -0.3441  0.5723
   93CHL1  H22A 9345   1.048   3.754   7.982  0.1776 -0.5192  1.6374
   93CHL1  H22B 9346   1.009   3.583   7.922  1.0731 -2.0127  1.4806
   93CHL1   C23 9347   1.120   3.598   8.103  0.0757  0.3809 -0.1204
   93CHL1  H23A 9348   1.035   3.599   8.175 -0.9337 -1.6224 -1.1990
   93CHL1  H23B 9349   1.140   3.489   8.095  1.0893  0.6313 -1.3086
   93CHL1   C24 9350   1.248   3.659   8.163  0.0379  0.2463  1.0172
   93CHL1  H24A 9351   1.334   3.626   8.100 -0.6177 -4.0198  2.0613
   93CHL1  H24B 9352   1.237   3.769   8.154  0.9784  0.3832  1.4318
   93CHL1   C25 9353   1.294   3.620   8.309 -0.3893 -0.1856  0.4745
   93CHL1   H25 9354   1.327   3.514   8.316  1.4238  0.2924 -0.3750
   93CHL1   C26 9355   1.405   3.720   8.354  0.6402 -0.3837  0.5180
   93CHL1  H26A 9356   1.360   3.819   8.375 -0.5435 -1.1089  1.5986
   93CHL1  H26B 9357   1.453   3.688   8.449  0.4734  0.5399  0.9239
   93CHL1  H26C 9358   1.481   3.729   8.274  2.3159 -3.0806  1.6562
   93CHL1   C27 9359   1.183   3.642   8.405  0.2678 -0.5488 -0.2998
   93CHL1  H27A 9360   1.222   3.661   8.508 -1.3933  0.2976  0.2111
   93CHL1  H27B 9361   1.124   3.729   8.371 -0.2562 -0.7993 -0.0506
   93CHL1  H27C 9362   1.110   3.558   8.410 -0.7250  0.3770  2.2767
   94CHL1    C3 9363   3.908   1.755   7.014 -0.4408 -0.1285  0.1757
   94CHL1    H3 9364   3.848   1.848   7.026  0.3099  1.0138 -3.7327
   94CHL1    O3 9365   3.896   1.705   6.884  0.6390  0.1297  0.2588
   94CHL1   H3' 9366   3.814   1.656   6.888  1.9464 -2.1121  2.0359
   94CHL1    C4 9367   4.054   1.796   7.036  1.0041 -0.2971  0.6148
   94CHL1   H4A 9368   4.114   1.711   6.996  0.1301 -0.5186 -0.2502
   94CHL1   H4B 9369   4.074   1.887   6.975 -0.6131  0.7591  1.5748
   94CHL1    C5 9370   4.075   1.832   7.185  0.0201  0.3330  0.4033
   94CHL1    C6 9371   4.118   1.955   7.217  0.2358  0.3384  0.3721
   94CHL1    H6 9372   4.126   2.032   7.139 -0.5662  3.2341  2.9700
   94CHL1    C7 9373   4.154   1.997   7.352  0.2346  0.0396  0.1772
   94CHL1   H7A 9374   4.245   2.061   7.349 -0.0925  0.4593 -1.2594
   94CHL1   H7B 9375   4.072   2.055   7.400  0.5184  0.2188  0.4536
   94CHL1    C8 9376   4.167   1.869   7.448 -0.0086 -0.5902  0.0626
   94CHL1    H8 9377   4.262   1.823   7.415  0.4235  2.1428 -3.1430
   94CHL1   C14 9378   4.167   1.923   7.584  0.2784  0.0676 -0.7125
   94CHL1   H14 9379   4.072   1.971   7.614  0.8056  0.4970  0.3449
   94CHL1   C15 9380   4.275   2.026   7.631 -0.3331 -0.4833  0.9473
   94CHL1  H15A 9381   4.371   1.981   7.596 -0.9048 -2.1461  1.4322
   94CHL1  H15B 9382   4.269   2.124   7.579  0.3560 -1.8019 -1.8250
   94CHL1   C16 9383   4.280   2.033   7.783 -1.1708 -0.0945  0.2321
   94CHL1  H16A 9384   4.385   2.020   7.817 -1.3472  1.0501  1.2985
   94CHL1  H16B 9385   4.251   2.137   7.809  2.1248  1.1068 -0.3838
   94CHL1   C17 9386   4.190   1.917   7.818  0.1832  0.4885 -0.4661
   94CHL1   H17 9387   4.096   1.974   7.833  1.2317  1.9112  1.0283
   94CHL1   C13 9388   4.178   1.824   7.693 -0.1636  0.5971  0.5565
   94CHL1   C18 9389   4.319   1.741   7.686 -0.3728 -0.8485  0.2487
   94CHL1  H18A 9390   4.401   1.811   7.711  0.1483 -0.8509 -1.3574
   94CHL1  H18B 9391   4.316   1.661   7.764  0.9387 -1.0472  0.1224
   94CHL1  H18C 9392   4.325   1.699   7.583  0.3377  2.3322 -1.1371
   94CHL1   C12 9393   4.066   1.722   7.685  0.1686 -0.3124 -0.1187
   94CHL1  H12A 9394   4.085   1.635   7.752  0.2585 -0.6843 -0.6219
   94CHL1  H12B 9395   3.975   1.775   7.721  0.5168 -0.9996  1.9390
   94CHL1   C11 9396   4.043   1.665   7.541 -0.8310 -0.8374 -0.3278
   94CHL1  H11A 9397   4.130   1.596   7.551 -1.0252 -0.9313  0.7256
   94CHL1  H11B 9398   3.959   1.592   7.533 -2.4357  0.7272  1.3884
   94CHL1    C9 9399   4.048   1.773   7.428 -0.0293  0.6253  0.3453
   94CHL1    H9 9400   3.957   1.834   7.443 -0.6066  0.4388 -1.9398
   94CHL1   C10 9401   4.040   1.718   7.288  0.1171  0.0589  0.4895
   94CHL1   C19 9402   4.134   1.590   7.275 -0.3241 -0.2526  0.0794
   94CHL1  H19A 9403   4.078   1.516   7.336  1.7900 -1.0805  1.0901
   94CHL1  H19B 9404   4.138   1.557   7.169  0.7858  0.4342 -0.1080
   94CHL1  H19C 9405   4.236   1.600   7.316 -0.7010 -0.4394  1.0862
   94CHL1    C1 9406   3.897   1.669   7.256 -0.5666  0.2856  0.2089
   94CHL1   H1A 9407   3.871   1.583   7.320 -0.0586 -0.5789 -0.7145
   94CHL1   H1B 9408   3.822   1.750   7.269 -1.1819  0.0303 -1.5135
   94CHL1    C2 9409   3.877   1.639   7.107 -0.6046 -0.3437 -0.1893
   94CHL1   H2A 9410   3.768   1.617   7.097 -0.6328 -0.2150 -0.1633
   94CHL1   H2B 9411   3.925   1.546   7.070 -1.1256 -1.5256  1.8997
   94CHL1   C20 9412   4.207   1.860   7.957  0.3414 -0.2001  0.4321
   94CHL1   H20 9413   4.279   1.776   7.943  0.8917  0.2455  0.5421
   94CHL1   C21 9414   4.070   1.802   7.994  0.7626 -0.4797 -0.2911
   94CHL1  H21A 9415   4.067   1.777   8.102  3.3168  3.1684  0.8199
   94CHL1  H21B 9416   4.046   1.718   7.925  1.1703  1.3070 -2.7603
   94CHL1  H21C 9417   3.989   1.878   7.986 -0.6408 -2.0567 -2.2587
   94CHL1   C22 9418   4.269   1.959   8.066 -0.2560  0.8835  0.0799
   94CHL1  H22A 9419   4.290   1.899   8.157 -0.1955  0.9519  0.1108
   94CHL1  H22B 9420   4.365   2.008   8.037  0.3521 -0.0320  0.4641
   94CHL1   C23 9421   4.172   2.069   8.107 -0.6817 -0.0154 -0.3608
   94CHL1  H23A 9422   4.129   2.126   8.021  1.0114  0.2329 -1.0763
   94CHL1  H23B 9423   4.090   2.020   8.164  0.4987 -1.1567  0.3755
   94CHL1   C24 9424   4.244   2.167   8.201 -0.3655  0.7125  0.4527
   94CHL1  H24A 9425   4.261   2.107   8.293 -1.2093  0.7349  0.6365
   94CHL1  H24B 9426   4.343   2.197   8.161  0.0514  0.5827  1.3763
   94CHL1   C25 9427   4.168   2.295   8.218  0.5128  0.0886  0.1539
   94CHL1   H25 9428   4.163   2.342   8.118  0.1343 -0.3467 -0.0362
   94CHL1   C26 9429   4.024   2.273   8.272 -0.1656 -0.5133  0.3566
   94CHL1  H26A 9430   3.964   2.219   8.195  0.2738 -0.0682 -0.3095
   94CHL1  H26B 9431   4.024   2.225   8.372  0.6164 -0.4041  0.4103
   94CHL1  H26C 9432   3.964   2.365   8.288 -0.4919 -0.6355 -0.1103
   94CHL1   C27 9433   4.243   2.402   8.303  0.0849 -0.1161  0.7740
   94CHL1  H27A 9434   4.203   2.504   8.283  0.1972 -0.4641 -1.5546
   94CHL1  H27B 9435   4.235   2.388   8.413  1.5442 -2.8083  0.6202
   94CHL1  H27C 9436   4.348   2.413   8.268  0.0986  1.6001  1.2208
   95CHL1    C3 9437   3.845   5.838   7.041 -0.3975  0.6871 -0.0434
   95CHL1    H3 9438   3.763   5.769   7.070 -1.2800  1.7924  0.2117
   95CHL1    O3 9439   3.863   5.851   6.898  0.1020 -0.0963 -0.3640
   95CHL1   H3' 9440   3.901   5.769   6.866  1.5806  0.7052 -0.7681
   95CHL1    C4 9441   3.798   5.975   7.098 -0.1629  0.2795  0.5814
   95CHL1   H4A 9442   3.849   6.063   7.053  3.9468 -1.7624  0.7824
   95CHL1   H4B 9443   3.700   5.987   7.047  0.1696 -0.5580 -0.2945
   95CHL1    C5 9444   3.794   5.988   7.252  0.1547  0.3498  0.3412
   95CHL1    C6 9445   3.681   6.023   7.317  0.4205  0.0395 -0.2254
   95CHL1    H6 9446   3.593   6.067   7.267 -0.2294 -1.4887 -0.4537
   95CHL1    C7 9447   3.679   6.031   7.469 -0.1779  0.7006 -0.0056
   95CHL1   H7A 9448   3.630   6.126   7.497  0.9183  1.4022 -0.4239
   95CHL1   H7B 9449   3.623   5.943   7.507  0.0947 -0.1303 -1.4336
   95CHL1    C8 9450   3.818   6.042   7.529  0.5204 -0.1215 -0.3754
   95CHL1    H8 9451   3.850   6.147   7.519 -0.1756  0.3102  1.5720
   95CHL1   C14 9452   3.799   6.014   7.686  0.0427 -0.4242  0.6925
   95CHL1   H14 9453   3.759   5.911   7.682  0.5813 -0.6126 -0.0331
   95CHL1   C15 9454   3.692   6.086   7.766  0.3607  0.3213 -0.1781
   95CHL1  H15A 9455   3.689   6.189   7.725 -1.1011 -0.1147 -1.2203
   95CHL1  H15B 9456   3.590   6.050   7.741 -0.6017  0.9065  2.5698
   95CHL1   C16 9457   3.741   6.068   7.909 -0.2372 -0.0948  0.3705
   95CHL1  H16A 9458   3.769   6.171   7.940  1.1433  0.1299 -1.4575
   95CHL1  H16B 9459   3.675   6.013   7.980  2.5091 -2.6057  1.1729
   95CHL1   C17 9460   3.873   5.994   7.903 -0.2941  0.0319  0.0707
   95CHL1   H17 9461   3.857   5.885   7.897  1.5347 -0.2047 -1.0476
   95CHL1   C13 9462   3.929   6.017   7.763 -0.0306 -0.9938  0.0679
   95CHL1   C18 9463   3.991   6.163   7.754 -0.1601 -0.3310  0.1205
   95CHL1  H18A 9464   4.022   6.201   7.655 -1.6595 -0.0243 -0.2516
   95CHL1  H18B 9465   3.910   6.233   7.784  0.9024  1.3877 -0.8797
   95CHL1  H18C 9466   4.081   6.171   7.819 -1.2733  1.8951  1.5125
   95CHL1   C12 9467   4.023   5.916   7.695 -0.0877  0.7731  0.0933
   95CHL1  H12A 9468   4.122   5.921   7.745  0.8053 -0.0621 -1.4906
   95CHL1  H12B 9469   3.988   5.812   7.710  3.1038 -0.3572  0.4201
   95CHL1   C11 9470   4.048   5.939   7.545  0.1935 -0.0196 -0.1892
   95CHL1  H11A 9471   4.106   6.032   7.531  0.2913 -0.3488 -2.1684
   95CHL1  H11B 9472   4.117   5.861   7.507  1.2240  1.0879 -0.6517
   95CHL1    C9 9473   3.918   5.945   7.470  0.1740 -0.0068  0.1387
   95CHL1    H9 9474   3.872   5.846   7.491  0.9356 -0.8365 -1.8234
   95CHL1   C10 9475   3.927   5.950   7.317 -0.0753 -0.5918  0.0372
   95CHL1   C19 9476   4.030   6.065   7.282 -0.1643  0.1254  0.2312
   95CHL1  H19A 9477   3.998   6.162   7.326 -0.2031  0.7750 -1.1850
   95CHL1  H19B 9478   4.132   6.028   7.306 -0.6145 -1.5928 -0.3574
   95CHL1  H19C 9479   4.024   6.085   7.173  0.0828  1.2953  0.4221
   95CHL1    C1 9480   3.970   5.815   7.254 -0.1509  0.1950 -0.6937
   95CHL1   H1A 9481   4.074   5.813   7.293 -0.0302 -1.5437 -1.0262
   95CHL1   H1B 9482   3.909   5.729   7.290 -0.7622  1.4812  1.5264
   95CHL1    C2 9483   3.977   5.806   7.102  0.3981 -0.1862  0.5908
   95CHL1   H2A 9484   4.003   5.701   7.076 -1.8465 -0.7943  0.6475
   95CHL1   H2B 9485   4.057   5.866   7.053 -0.5043  0.7652  0.2605
   95CHL1   C20 9486   3.965   6.024   8.025  0.5440 -0.1161  0.0750
   95CHL1   H20 9487   4.004   6.127   8.012 -1.7773  0.9404  0.9075
   95CHL1   C21 9488   4.077   5.922   8.033 -0.1938  0.0256 -0.0513
   95CHL1  H21A 9489   4.147   5.963   7.957 -1.7082  3.1233  0.0366
   95CHL1  H21B 9490   4.027   5.827   8.004  0.8586 -1.2925  2.2154
   95CHL1  H21C 9491   4.120   5.906   8.134 -0.5904 -1.8164 -0.1464
   95CHL1   C22 9492   3.894   6.024   8.168  0.1590 -0.1703 -0.1396
   95CHL1  H22A 9493   3.812   6.099   8.168 -0.2868 -0.6112  1.5080
   95CHL1  H22B 9494   3.850   5.923   8.168 -0.7344  0.1999 -1.1506
   95CHL1   C23 9495   3.980   6.049   8.295  0.3920 -0.2499  0.2865
   95CHL1  H23A 9496   3.921   6.029   8.387 -3.1370  0.0056 -1.7442
   95CHL1  H23B 9497   4.070   5.985   8.296  1.2708  0.9522  0.8407
   95CHL1   C24 9498   4.012   6.190   8.316 -0.6332  0.0703 -0.3613
   95CHL1  H24A 9499   4.054   6.238   8.225  3.0147  0.8428  1.5642
   95CHL1  H24B 9500   3.936   6.254   8.366  0.5328  0.4900  0.9303
   95CHL1   C25 9501   4.138   6.204   8.413  0.0850  0.0567  0.1966
   95CHL1   H25 9502   4.228   6.168   8.360  1.2376  2.1036  0.6476
   95CHL1   C26 9503   4.184   6.349   8.438  0.0288  0.4547  0.6121
   95CHL1  H26A 9504   4.108   6.414   8.488  0.2323  0.8176  0.4560
   95CHL1  H26B 9505   4.277   6.354   8.499  0.2313 -2.0845  0.6178
   95CHL1  H26C 9506   4.195   6.402   8.341 -0.7504  1.2370  0.9351
   95CHL1   C27 9507   4.131   6.131   8.542  0.1683  0.3922 -0.4048
   95CHL1  H27A 9508   4.028   6.138   8.583  0.6650  0.8301  0.8332
   95CHL1  H27B 9509   4.156   6.025   8.521 -1.4494 -0.0550 -0.1747
   95CHL1  H27C 9510   4.203   6.163   8.621  1.6768 -3.2332 -0.0787
   96CHL1    C3 9511   3.097   5.429   7.088 -0.3771 -0.3458 -0.9559
   96CHL1    H3 9512   2.998   5.380   7.078 -1.0442  0.0300  2.6294
   96CHL1    O3 9513   3.120   5.520   6.982  0.0712  0.1319 -0.4781
   96CHL1   H3' 9514   3.121   5.466   6.903  0.3679 -1.1299  0.3655
   96CHL1    C4 9515   3.112   5.498   7.227 -0.2692 -0.0798  0.3686
   96CHL1   H4A 9516   3.204   5.561   7.232 -0.6877  0.5295  0.5068
   96CHL1   H4B 9517   3.035   5.578   7.227 -0.7377 -0.4817 -1.5492
   96CHL1    C5 9518   3.102   5.408   7.346  0.1156  0.2620  0.2049
   96CHL1    C6 9519   3.011   5.422   7.437  0.1253  0.5704 -0.8275
   96CHL1    H6 9520   2.939   5.505   7.428  0.5287  1.1427  0.7646
   96CHL1    C7 9521   3.000   5.327   7.555  0.4751 -0.7022  0.1186
   96CHL1   H7A 9522   2.992   5.382   7.651  0.5070 -1.0660  0.3328
   96CHL1   H7B 9523   2.917   5.254   7.545 -0.0092 -0.4199  1.7773
   96CHL1    C8 9524   3.126   5.240   7.575  0.4027 -0.9754 -0.1993
   96CHL1    H8 9525   3.202   5.307   7.621  1.0368 -1.2924 -0.7684
   96CHL1   C14 9526   3.099   5.124   7.674 -0.5412 -0.1771 -0.0774
   96CHL1   H14 9527   3.024   5.059   7.623 -1.9523  2.8888 -2.2129
   96CHL1   C15 9528   3.034   5.162   7.810 -0.1307  0.0342 -0.4972
   96CHL1  H15A 9529   3.085   5.250   7.853  0.2612 -0.4484  0.0431
   96CHL1  H15B 9530   2.925   5.184   7.814  0.2467  1.7949  1.6756
   96CHL1   C16 9531   3.071   5.044   7.899 -0.1157  0.7897  0.3369
   96CHL1  H16A 9532   3.127   5.087   7.985  0.0438  0.8355  0.2120
   96CHL1  H16B 9533   2.993   4.971   7.930 -1.0005  1.3311 -0.5720
   96CHL1   C17 9534   3.162   4.943   7.817  0.5897 -0.7004  0.7176
   96CHL1   H17 9535   3.091   4.879   7.761 -1.7090  1.9577  0.4277
   96CHL1   C13 9536   3.216   5.032   7.708 -0.8424  0.0744  0.2347
   96CHL1   C18 9537   3.334   5.120   7.766  0.1766 -0.7616  0.1863
   96CHL1  H18A 9538   3.363   5.205   7.700 -0.9956  0.6154  1.3499
   96CHL1  H18B 9539   3.326   5.149   7.873 -0.1085 -2.8941  0.7814
   96CHL1  H18C 9540   3.422   5.055   7.746 -0.1638 -0.6256 -1.9946
   96CHL1   C12 9541   3.259   4.977   7.564 -0.7765  0.4355  0.0393
   96CHL1  H12A 9542   3.353   4.918   7.571 -0.2447  1.3381  0.8242
   96CHL1  H12B 9543   3.182   4.918   7.511 -0.1944  0.4661 -0.8640
   96CHL1   C11 9544   3.299   5.094   7.473  0.1480 -0.4062 -0.1963
   96CHL1  H11A 9545   3.385   5.150   7.515 -0.0265 -1.2251  1.3456
   96CHL1  H11B 9546   3.332   5.053   7.375 -1.0513  2.4843 -1.9467
   96CHL1    C9 9547   3.178   5.188   7.442 -0.2351  0.5186  0.1366
   96CHL1    H9 9548   3.095   5.130   7.396  1.6979 -1.8749 -0.5228
   96CHL1   C10 9549   3.205   5.295   7.331 -0.8072  0.3600 -0.2577
   96CHL1   C19 9550   3.353   5.344   7.335 -0.6560  0.0938  0.1958
   96CHL1  H19A 9551   3.430   5.265   7.323  1.0119  1.1337  3.0239
   96CHL1  H19B 9552   3.383   5.421   7.261 -2.2596  1.1731  0.6247
   96CHL1  H19C 9553   3.372   5.390   7.435  0.7531  0.6028 -0.2890
   96CHL1    C1 9554   3.198   5.230   7.191 -0.5670  0.4399 -0.2635
   96CHL1   H1A 9555   3.287   5.164   7.200 -0.0661  1.3958  2.6583
   96CHL1   H1B 9556   3.105   5.171   7.180  0.9179 -1.7054 -2.4030
   96CHL1    C2 9557   3.205   5.321   7.070 -0.5994 -0.0213 -0.1619
   96CHL1   H2A 9558   3.188   5.254   6.984  0.8055  0.3607 -0.7637
   96CHL1   H2B 9559   3.300   5.376   7.052 -0.2853  0.0003  1.3713
   96CHL1   C20 9560   3.252   4.850   7.900  0.6807  0.0061  0.0532
   96CHL1   H20 9561   3.333   4.906   7.951  0.5547  0.8498 -0.6516
   96CHL1   C21 9562   3.321   4.756   7.798 -0.4969 -0.5250 -0.2942
   96CHL1  H21A 9563   3.239   4.716   7.733 -1.1098  2.4284 -1.4998
   96CHL1  H21B 9564   3.374   4.668   7.841  0.2890 -1.6060 -3.2722
   96CHL1  H21C 9565   3.396   4.809   7.737 -1.9242 -0.3087 -1.9614
   96CHL1   C22 9566   3.188   4.777   8.023 -0.2366  1.1541  0.0916
   96CHL1  H22A 9567   3.117   4.842   8.079 -0.6224  1.6114 -0.9022
   96CHL1  H22B 9568   3.127   4.691   7.989 -0.4030  0.9174  0.9636
   96CHL1   C23 9569   3.301   4.734   8.119 -0.0150 -0.3295 -0.5673
   96CHL1  H23A 9570   3.379   4.677   8.064 -0.9645 -1.8360 -0.3994
   96CHL1  H23B 9571   3.351   4.823   8.163  0.1264 -0.8522  0.3432
   96CHL1   C24 9572   3.240   4.651   8.240 -0.9170  0.2486 -0.2186
   96CHL1  H24A 9573   3.186   4.558   8.213  0.6299 -1.0201  0.8592
   96CHL1  H24B 9574   3.336   4.615   8.283 -0.4586 -1.6090 -2.5961
   96CHL1   C25 9575   3.166   4.729   8.349 -0.0364  0.5748 -0.4874
   96CHL1   H25 9576   3.082   4.780   8.296 -1.3163 -0.3196  0.6375
   96CHL1   C26 9577   3.107   4.634   8.465 -0.3591 -0.0347  0.4840
   96CHL1  H26A 9578   3.046   4.691   8.538  0.2003  1.2280 -0.0039
   96CHL1  H26B 9579   3.043   4.560   8.413 -0.1307  1.7467 -2.5850
   96CHL1  H26C 9580   3.190   4.590   8.524  0.7656  1.5721  0.1952
   96CHL1   C27 9581   3.259   4.827   8.415  0.1872 -0.0946  0.4561
   96CHL1  H27A 9582   3.337   4.772   8.471  1.1788  0.9628  0.1432
   96CHL1  H27B 9583   3.303   4.893   8.337 -1.4274  0.7461  0.1955
   96CHL1  H27C 9584   3.198   4.890   8.483  0.5478  0.6991  0.0624
   97OSM      N 9585   4.921   6.732  10.682 -0.1172  0.6273  0.0986
   97OSM    C15 9586   5.017   6.688  10.794 -0.3014 -0.6344 -0.7252
   97OSM   H15A 9587   5.113   6.737  10.785  0.7331 -2.4017 -0.0143
   97OSM   H15B 9588   5.036   6.582  10.788 -3.9397 -1.7633  2.9271
   97OSM   H15C 9589   4.979   6.700  10.895  1.2352 -0.2094 -0.1606
   97OSM    C14 9590   4.927   6.880  10.673  0.7907  0.4381  0.3450
   97OSM   H14A 9591   4.886   6.922  10.764  0.2480  4.0780 -1.3933
   97OSM   H14B 9592   4.883   6.910  10.580  3.7675  0.6388 -1.1304
   97OSM   H14C 9593   5.030   6.913  10.667  0.0371  3.3189  1.4640
   97OSM    C13 9594   4.976   6.668  10.554 -0.5254 -0.7239 -0.3993
   97OSM   H13A 9595   5.080   6.689  10.534 -0.4391  1.2658  1.7575
   97OSM   H13B 9596   4.914   6.704  10.473 -1.1311 -0.8550 -0.0012
   97OSM   H13C 9597   4.964   6.561  10.565 -0.7110 -0.6669 -0.0161
   97OSM    C12 9598   4.786   6.675  10.711  0.5212 -0.4656 -0.3489
   97OSM   H12A 9599   4.731   6.703  10.623  0.8634  3.0093  0.4180
   97OSM   H12B 9600   4.734   6.719  10.795 -1.7400 -0.2867 -1.7742
   97OSM    C11 9601   4.777   6.523  10.728  0.2816  0.5022 -0.4594
   97OSM   H11A 9602   4.682   6.508  10.784  0.6993  0.6406  0.2968
   97OSM   H11B 9603   4.857   6.488  10.797  0.5071 -1.2586 -1.5458
   97OSM      P 9604   4.735   6.306  10.582 -0.1442  0.4471 -0.0803
   97OSM    O13 9605   4.812   6.218  10.676  0.1202  0.5324  0.3257
   97OSM    O14 9606   4.589   6.299  10.606  0.2061  0.1734  0.1674
   97OSM    O11 9607   4.764   6.262  10.432  0.1767 -0.7040 -0.4351
   97OSM    O12 9608   4.776   6.460  10.600  0.4147 -0.0904  0.5888
   97OSM    C1S 9609   4.754   6.352  10.327 -0.6019 -0.1459 -0.0686
   97OSM    H1S 9610   4.853   6.404  10.325 -0.6459 -0.0649 -1.0855
   97OSM    H1T 9611   4.673   6.428  10.336  1.1869  1.9887 -0.9938
   97OSM     NF 9612   4.751   6.344  10.073  0.1039  0.1893 -0.6856
   97OSM    HNF 9613   4.679   6.370  10.010 -1.9236 -1.5851  0.7692
   97OSM    C2S 9614   4.721   6.275  10.199 -0.4996  0.1617  0.6439
   97OSM    H2S 9615   4.790   6.188  10.207 -1.0724 -0.2225  1.4932
   97OSM    C3S 9616   4.579   6.211  10.203 -0.0083  0.5276 -0.2444
   97OSM    H3S 9617   4.514   6.300  10.215 -0.2459  0.3134  0.0456
   97OSM     O3 9618   4.550   6.140  10.319 -0.1715  0.0628  0.0128
   97OSM    HO3 9619   4.631   6.159  10.368 -0.2565  0.2957  0.0676
   97OSM    C4S 9620   4.543   6.125  10.097  0.3564  0.3501 -0.1673
   97OSM    H4S 9621   4.586   6.024  10.092  0.4554  0.4357 -1.3327
   97OSM    C5S 9622   4.448   6.154  10.007 -0.2131 -0.4738 -0.3644
   97OSM    H5S 9623   4.406   6.255  10.014 -1.2295 -1.0100  2.3875
   97OSM    C6S 9624   4.406   6.063   9.893 -0.2875 -0.1564 -0.4840
   97OSM    H6S 9625   4.312   6.009   9.917 -0.3605  0.0743 -0.2510
   97OSM    H6T 9626   4.488   5.989   9.879  1.1272  1.0127  1.1520
   97OSM    C7S 9627   4.385   6.137   9.760 -0.9909 -0.0667  0.5048
   97OSM    H7S 9628   4.482   6.186   9.734 -0.3587 -1.5075  0.0107
   97OSM    H7T 9629   4.318   6.222   9.786  0.0002  1.1935 -0.8974
   97OSM    C8S 9630   4.342   6.053   9.649  1.1552  0.1950 -0.2513
   97OSM    H8S 9631   4.233   6.033   9.660  1.2883 -0.6227 -0.3774
   97OSM    H8T 9632   4.393   5.955   9.656 -1.9068 -1.5495 -0.3354
   97OSM    C9S 9633   4.354   6.115   9.514  0.2838 -0.3828  0.7550
   97OSM    H9S 9634   4.327   6.222   9.524 -0.3432 -0.5527  0.9688
   97OSM    H9T 9635   4.280   6.082   9.438 -1.8754  0.2095  2.4830
   97OSM   C10S 9636   4.502   6.108   9.473 -0.7438  0.2319  0.1313
   97OSM   H10S 9637   4.535   6.002   9.476 -1.1615  0.1202  1.1159
   97OSM   H10T 9638   4.568   6.166   9.541  0.6308 -0.5712 -0.4727
   97OSM   C11S 9639   4.532   6.152   9.327 -0.5450 -0.5935  0.2610
   97OSM   H11S 9640   4.641   6.174   9.326 -1.1363  3.7326  3.4666
   97OSM   H11T 9641   4.486   6.250   9.303 -0.9292 -1.3236 -2.1969
   97OSM   C12S 9642   4.485   6.052   9.211 -0.8349 -0.5579 -0.1848
   97OSM   H12S 9643   4.376   6.035   9.221 -1.2510  2.2674  0.8406
   97OSM   H12T 9644   4.527   5.952   9.235 -1.9669 -0.7765  0.9657
   97OSM   C13S 9645   4.535   6.105   9.077  0.7588 -0.3648  0.0680
   97OSM   H13S 9646   4.513   6.020   9.009 -0.9607 -0.1911  0.3773
   97OSM   H13T 9647   4.644   6.127   9.072  1.0417 -1.8941 -0.9875
   97OSM   C14S 9648   4.455   6.227   9.034  1.2523 -0.2396 -0.2156
   97OSM   H14S 9649   4.490   6.301   9.109  1.9324 -1.2844  0.5232
   97OSM   H14T 9650   4.345   6.209   9.041  0.6412  2.4865 -1.4354
   97OSM   C15S 9651   4.475   6.263   8.884  0.6579  0.1546  0.0252
   97OSM   H15S 9652   4.434   6.187   8.815  2.0769  0.3048 -1.0274
   97OSM   H15T 9653   4.582   6.267   8.855  0.3295 -1.2988 -1.5245
   97OSM   C16S 9654   4.422   6.403   8.855  0.2702  0.1968 -0.2725
   97OSM   H16S 9655   4.466   6.478   8.924  2.9450 -1.6254  0.1214
   97OSM   H16T 9656   4.311   6.404   8.853  0.2562 -0.4642 -2.5796
   97OSM   C17S 9657   4.465   6.452   8.721 -0.4609 -0.8832  0.1318
   97OSM   H17S 9658   4.446   6.372   8.647 -0.3542 -1.8956  1.1730
   97OSM   H17T 9659   4.575   6.459   8.740 -0.7636  1.4555  1.3065
   97OSM   C18S 9660   4.413   6.598   8.691  0.0973  0.4538  0.2388
   97OSM   H18S 9661   4.305   6.597   8.717  0.4011 -1.2532  1.6267
   97OSM   H18T 9662   4.439   6.631   8.588 -0.7987  0.5644  0.0426
   97OSM   H18U 9663   4.461   6.665   8.766 -1.5052 -0.5219  2.2431
   97OSM    C1F 9664   4.871   6.386  10.040 -0.0815 -0.0967  0.8815
   97OSM     OF 9665   4.962   6.396  10.121 -0.6198  0.1417  0.1160
   97OSM    C2F 9666   4.896   6.420   9.897  0.0946  0.8796 -0.2540
   97OSM    H2F 9667   4.811   6.482   9.861 -0.1755  1.0019  0.5863
   97OSM    H2G 9668   4.896   6.323   9.842 -2.7465 -1.6307  3.6332
   97OSM    C3F 9669   5.035   6.476   9.873  0.3041  0.5374  0.1064
   97OSM    H3F 9670   5.118   6.408   9.900  1.0335  1.7380  1.0032
   97OSM    H3G 9671   5.056   6.568   9.932 -0.4244  1.4608 -1.0238
   97OSM    C4F 9672   5.055   6.525   9.734  0.4339  0.6234 -0.1892
   97OSM    H4F 9673   4.972   6.594   9.707 -0.9482  0.5375  3.3243
   97OSM    H4G 9674   5.055   6.437   9.665  0.8578  0.4626  0.0114
   97OSM    C5F 9675   5.179   6.611   9.718 -0.2953  0.2945 -0.1133
   97OSM    H5F 9676   5.263   6.547   9.752 -2.4100 -4.0727 -2.3276
   97OSM    H5G 9677   5.169   6.704   9.778 -1.4331  1.7849 -2.4684
   97OSM    C6F 9678   5.218   6.631   9.570  0.5621  0.4991  0.6460
   97OSM    H6F 9679   5.244   6.533   9.525 -2.6081  0.9457 -2.6349
   97OSM    H6G 9680   5.306   6.700   9.567 -0.1419  1.4022  0.4302
   97OSM    C7F 9681   5.114   6.674   9.464  0.5857 -0.3971 -0.6774
   97OSM    H7F 9682   5.038   6.594   9.456  1.2498 -0.9215 -2.1020
   97OSM    H7G 9683   5.163   6.689   9.365 -0.6168  0.4465 -1.1720
   97OSM    C8F 9684   5.048   6.805   9.510 -1.0116 -0.2422  0.1527
   97OSM    H8F 9685   5.117   6.892   9.516  1.1488 -1.9765  3.8674
   97OSM    H8G 9686   5.017   6.792   9.616  3.6095 -0.6329  1.6933
   97OSM    C9F 9687   4.937   6.834   9.424  0.2375 -0.1419  0.4295
   97OSM    H9F 9688   4.849   6.767   9.430 -0.2945  0.4730 -0.3254
   97OSM   C10F 9689   4.925   6.935   9.337  0.5658  0.6387 -0.0727
   97OSM   H10F 9690   4.829   6.943   9.284 -0.0224 -0.2492  0.8340
   97OSM   C11F 9691   5.020   7.048   9.299  0.8168  0.3969  0.1887
   97OSM   H11F 9692   5.041   7.049   9.190  0.5419  0.7669  0.1378
   97OSM   H11G 9693   5.116   7.042   9.354  0.4487 -1.2448  0.7220
   97OSM   C12F 9694   4.956   7.180   9.344 -1.1747 -0.1795 -0.4825
   97OSM   H12F 9695   4.854   7.205   9.308 -0.4558  0.5389 -2.0998
   97OSM   H12G 9696   5.011   7.263   9.295 -2.5801  0.6301 -0.7485
   97OSM   C13F 9697   4.961   7.204   9.494  0.1326  0.7319 -0.0384
   97OSM   H13F 9698   5.065   7.182   9.525 -0.0259 -2.2472 -1.2894
   97OSM   H13G 9699   4.900   7.123   9.540 -0.7409  2.9077  2.9433
   97OSM   C14F 9700   4.918   7.347   9.534  0.4990  0.2005 -0.1296
   97OSM   H14F 9701   4.807   7.350   9.526  0.5250 -0.4466 -0.8265
   97OSM   H14G 9702   4.954   7.419   9.458 -1.7935  1.1225 -0.3972
   97OSM   C15F 9703   4.967   7.406   9.671 -0.2739  0.2985  0.0888
   97OSM   H15F 9704   4.936   7.512   9.682 -0.7792  0.1334  0.2569
   97OSM   H15G 9705   5.078   7.396   9.668 -0.1622  1.4580 -0.2195
   97OSM   C16F 9706   4.901   7.334   9.788 -0.2120 -0.2730  0.3811
   97OSM   H16F 9707   4.950   7.235   9.791 -1.6751 -1.2808 -3.0818
   97OSM   H16G 9708   4.790   7.333   9.783 -0.1938 -0.5980 -0.0145
   97OSM   C17F 9709   4.933   7.409   9.916 -0.1233  0.5278  0.2477
   97OSM   H17F 9710   4.868   7.500   9.920 -0.6997  0.0998  0.8881
   97OSM   H17G 9711   5.036   7.449   9.913 -0.0496  0.2761 -0.7268
   97OSM   C18F 9712   4.910   7.328  10.045  0.3244 -0.7689 -0.0619
   97OSM   H18F 9713   4.984   7.245  10.053 -0.9801 -2.0458 -0.8607
   97OSM   H18G 9714   4.813   7.274  10.052 -0.0080 -0.4605 -1.7463
   97OSM   H18H 9715   4.916   7.395  10.133 -0.3480 -1.2461  0.3527
   98OSM      N 9716   4.726   4.920  11.074 -0.4915 -0.0683 -0.3110
   98OSM    C15 9717   4.844   4.831  11.125  0.1276 -0.7571 -0.1046
   98OSM   H15A 9718   4.830   4.730  11.088 -2.1439 -1.1415  1.5746
   98OSM   H15B 9719   4.841   4.822  11.233 -0.3662  1.4968  0.1127
   98OSM   H15C 9720   4.938   4.872  11.094 -0.3324  0.3619 -0.0745
   98OSM    C14 9721   4.597   4.865  11.124 -0.1226  0.2803  0.3183
   98OSM   H14A 9722   4.582   4.875  11.230 -3.3324 -1.9370  0.2100
   98OSM   H14B 9723   4.587   4.758  11.108  0.9626  0.1491  0.4277
   98OSM   H14C 9724   4.515   4.912  11.071 -1.7806 -1.2700  1.3841
   98OSM    C13 9725   4.731   5.058  11.125 -0.2197 -0.2736  0.3665
   98OSM   H13A 9726   4.815   5.121  11.097 -1.7230  1.6803  0.0042
   98OSM   H13B 9727   4.714   5.064  11.231 -0.7756 -0.8261  0.3142
   98OSM   H13C 9728   4.650   5.111  11.078  0.5567  2.0333  1.4491
   98OSM    C12 9729   4.728   4.912  10.926  0.1695 -0.3807  0.2180
   98OSM   H12A 9730   4.638   4.960  10.891 -0.4070 -1.1667  0.5679
   98OSM   H12B 9731   4.711   4.815  10.881 -3.2319  1.2246 -2.4744
   98OSM    C11 9732   4.850   4.975  10.848 -0.1066  1.2892 -0.5041
   98OSM   H11A 9733   4.848   4.957  10.738  0.9020  1.7448 -0.6156
   98OSM   H11B 9734   4.932   4.912  10.890 -1.9350 -0.5419  0.4578
   98OSM      P 9735   4.786   5.221  10.811 -0.0721  0.1244 -0.2274
   98OSM    O13 9736   4.655   5.229  10.886 -0.0605  0.0996 -0.3584
   98OSM    O14 9737   4.859   5.351  10.813  0.0974 -1.1732 -0.2035
   98OSM    O11 9738   4.769   5.181  10.667  0.5514  0.0544 -0.4481
   98OSM    O12 9739   4.873   5.109  10.886  0.0259  0.1884  0.3400
   98OSM    C1S 9740   4.873   5.184  10.571 -1.0992  0.1208  0.1077
   98OSM    H1S 9741   4.926   5.086  10.570 -1.2242 -0.0041  1.9878
   98OSM    H1T 9742   4.953   5.260  10.582  1.5971 -2.4223 -0.7457
   98OSM     NF 9743   4.893   5.128  10.316 -0.3757 -0.1182 -0.4287
   98OSM    HNF 9744   4.927   5.194  10.249  0.2402 -1.1803 -1.1898
   98OSM    C2S 9745   4.809   5.185  10.422 -0.0709 -0.1213  0.2448
   98OSM    H2S 9746   4.724   5.117  10.441 -1.7749  1.9859  0.6501
   98OSM    C3S 9747   4.741   5.322  10.392  0.0195 -0.0913 -0.1498
   98OSM    H3S 9748   4.825   5.395  10.389  0.4507 -0.5061  1.1444
   98OSM     O3 9749   4.648   5.374  10.490 -0.5568  0.4210  0.1659
   98OSM    HO3 9750   4.669   5.322  10.567  2.5738 -0.1421 -0.9219
   98OSM    C4S 9751   4.670   5.305  10.262  0.6372  0.8120 -0.1586
   98OSM    H4S 9752   4.583   5.238  10.268  0.6098  0.6380 -1.9711
   98OSM    C5S 9753   4.691   5.373  10.148  1.0720 -0.0895 -0.2446
   98OSM    H5S 9754   4.770   5.450  10.144  2.5380 -1.5572 -0.9430
   98OSM    C6S 9755   4.613   5.363  10.021  0.1759 -0.5384  0.4847
   98OSM    H6S 9756   4.541   5.448  10.024  1.0525  0.1789  2.6144
   98OSM    H6T 9757   4.547   5.275  10.003 -0.9350  0.7773 -2.8258
   98OSM    C7S 9758   4.707   5.377   9.906 -0.2928  0.6170  0.1858
   98OSM    H7S 9759   4.764   5.284   9.879 -0.0914  0.7284  0.2230
   98OSM    H7T 9760   4.788   5.450   9.927  0.9265 -0.1527 -1.5639
   98OSM    C8S 9761   4.642   5.438   9.782  0.5531  0.5739 -0.1885
   98OSM    H8S 9762   4.606   5.540   9.808  0.8883  1.0228 -1.4137
   98OSM    H8T 9763   4.563   5.378   9.733  1.9957 -1.7978  0.2642
   98OSM    C9S 9764   4.747   5.464   9.678  0.5539  0.4111  0.6093
   98OSM    H9S 9765   4.798   5.373   9.638  0.8914  0.3210  1.2419
   98OSM    H9T 9766   4.832   5.518   9.724  1.3249  0.5027 -0.8477
   98OSM   C10S 9767   4.688   5.544   9.561  0.6468  0.5970 -0.5917
   98OSM   H10S 9768   4.671   5.645   9.606  0.6216 -0.2325  1.3812
   98OSM   H10T 9769   4.590   5.496   9.538  0.4931 -0.7055  2.3071
   98OSM   C11S 9770   4.781   5.556   9.438  0.5285 -0.3241  0.2573
   98OSM   H11S 9771   4.804   5.450   9.412  0.7306 -0.0766 -0.6087
   98OSM   H11T 9772   4.869   5.610   9.477 -0.3200  0.3210  1.3413
   98OSM   C12S 9773   4.714   5.637   9.326  0.4521 -0.0242 -0.1387
   98OSM   H12S 9774   4.691   5.738   9.366  0.4974  0.4819 -1.3503
   98OSM   H12T 9775   4.613   5.599   9.296 -0.7324  2.0319  1.0124
   98OSM   C13S 9776   4.804   5.639   9.204  0.5623  0.1684 -0.0361
   98OSM   H13S 9777   4.832   5.539   9.164  0.0332  0.5954 -1.5196
   98OSM   H13T 9778   4.902   5.684   9.234 -0.0581 -0.0237  2.5533
   98OSM   C14S 9779   4.731   5.719   9.087  0.1171 -0.5014 -0.1057
   98OSM   H14S 9780   4.723   5.824   9.122 -0.4854 -1.1176  1.7538
   98OSM   H14T 9781   4.627   5.682   9.082  0.3539 -0.9586 -3.0382
   98OSM   C15S 9782   4.807   5.707   8.957 -0.6728  0.2111 -0.2322
   98OSM   H15S 9783   4.833   5.600   8.940  4.4382  1.0287  0.9371
   98OSM   H15T 9784   4.902   5.757   8.985  1.4668 -3.1097 -0.8840
   98OSM   C16S 9785   4.728   5.761   8.836 -0.8478 -0.0405 -0.2436
   98OSM   H16S 9786   4.789   5.739   8.745 -0.2161  1.5613 -0.2467
   98OSM   H16T 9787   4.714   5.870   8.850  0.2075  0.0580  0.1112
   98OSM   C17S 9788   4.594   5.690   8.817 -0.3770  0.2468  0.0886
   98OSM   H17S 9789   4.531   5.757   8.755 -1.6156  0.2255  1.2805
   98OSM   H17T 9790   4.541   5.695   8.915 -0.1713 -1.1655  0.2879
   98OSM   C18S 9791   4.601   5.547   8.767 -0.2138  0.0650 -0.5877
   98OSM   H18S 9792   4.675   5.487   8.824  0.3945  0.0642 -1.3502
   98OSM   H18T 9793   4.641   5.555   8.664  4.5587 -0.9992  0.8969
   98OSM   H18U 9794   4.499   5.506   8.779  0.3509 -0.8786  1.5071
   98OSM    C1F 9795   4.945   5.004  10.327  0.2271  0.4184 -0.0959
   98OSM     OF 9796   4.886   4.918  10.393  0.2439  0.2222  0.4034
   98OSM    C2F 9797   5.067   4.959  10.257  0.3727  0.0401 -0.2814
   98OSM    H2F 9798   5.086   4.851  10.276 -0.9399 -0.6019 -2.1994
   98OSM    H2G 9799   5.152   5.020  10.294  0.6311 -1.2499  1.3639
   98OSM    C3F 9800   5.043   4.988  10.111 -0.3517 -0.2672  1.3141
   98OSM    H3F 9801   5.016   5.094  10.093 -2.0013 -1.0352 -1.3806
   98OSM    H3G 9802   4.951   4.931  10.085 -0.5467  0.6558 -0.0636
   98OSM    C4F 9803   5.154   4.929  10.016 -0.6414 -0.2736 -0.5037
   98OSM    H4F 9804   5.155   4.818  10.028 -1.4251 -0.2359 -0.0194
   98OSM    H4G 9805   5.248   4.958  10.068 -1.9182  1.4792  0.9551
   98OSM    C5F 9806   5.133   4.953   9.868  0.3786  0.4849 -0.0674
   98OSM    H5F 9807   5.044   4.896   9.832  1.5311 -1.0285 -0.6558
   98OSM    H5G 9808   5.222   4.920   9.811 -0.5334  0.8333 -1.7645
   98OSM    C6F 9809   5.108   5.097   9.825 -0.5010  0.7030  0.8194
   98OSM    H6F 9810   5.191   5.172   9.826  0.5582 -0.1927 -2.9526
   98OSM    H6G 9811   5.031   5.142   9.891  0.9514  2.1036  1.6415
   98OSM    C7F 9812   5.060   5.100   9.674  0.2537  0.5255  0.3697
   98OSM    H7F 9813   5.041   5.204   9.640  1.6784  0.4629 -0.7259
   98OSM    H7G 9814   4.975   5.030   9.661  0.0546  1.0771 -1.6962
   98OSM    C8F 9815   5.171   5.052   9.574  0.4509  0.5747  0.2336
   98OSM    H8F 9816   5.108   5.037   9.483 -1.1674 -2.9675  1.7399
   98OSM    H8G 9817   5.191   4.945   9.598 -2.1532  0.3017  1.6403
   98OSM    C9F 9818   5.306   5.121   9.573  1.2504  0.1450 -0.4850
   98OSM    H9F 9819   5.344   5.140   9.674  0.3926 -0.4427 -0.0518
   98OSM   C10F 9820   5.371   5.170   9.466 -0.3407  0.4000  0.7640
   98OSM   H10F 9821   5.477   5.196   9.480  0.0597  1.5857 -3.3208
   98OSM   C11F 9822   5.338   5.165   9.320  0.9877  0.4557 -0.6144
   98OSM   H11F 9823   5.290   5.264   9.303  0.7532  0.7000  1.2699
   98OSM   H11G 9824   5.264   5.083   9.307  1.9154 -0.2749 -1.4117
   98OSM   C12F 9825   5.450   5.146   9.219  0.1282 -0.5290 -0.3443
   98OSM   H12F 9826   5.522   5.068   9.252 -0.9761 -1.5904 -0.4022
   98OSM   H12G 9827   5.505   5.243   9.220 -2.1125  0.8634  2.2615
   98OSM   C13F 9828   5.405   5.122   9.079 -0.0869  0.2901 -0.0768
   98OSM   H13F 9829   5.327   5.044   9.091  1.8540 -1.6348  0.9037
   98OSM   H13G 9830   5.485   5.082   9.014  0.8884  1.6043  0.2769
   98OSM   C14F 9831   5.326   5.242   9.014 -0.0927 -0.1969 -0.4129
   98OSM   H14F 9832   5.405   5.320   9.005 -0.4240  0.0579 -1.2346
   98OSM   H14G 9833   5.249   5.274   9.087  1.2739 -0.1652  1.0689
   98OSM   C15F 9834   5.278   5.214   8.870 -0.6833  0.4663  1.2042
   98OSM   H15F 9835   5.214   5.298   8.834 -0.6331  0.0368  0.1030
   98OSM   H15G 9836   5.220   5.120   8.871  1.7502 -1.1737 -0.3540
   98OSM   C16F 9837   5.394   5.190   8.777 -0.8805  0.0401  0.0876
   98OSM   H16F 9838   5.427   5.084   8.790 -1.7674 -0.4241 -1.2528
   98OSM   H16G 9839   5.484   5.249   8.804 -0.0639 -2.0769  2.4077
   98OSM   C17F 9840   5.367   5.205   8.623 -0.1982 -0.0372 -0.6743
   98OSM   H17F 9841   5.406   5.301   8.581 -1.9037  1.2326  0.5183
   98OSM   H17G 9842   5.261   5.210   8.591  0.0153 -2.0027 -1.8470
   98OSM   C18F 9843   5.427   5.083   8.553  0.4607  0.0354  0.3063
   98OSM   H18F 9844   5.370   4.997   8.594  1.0927  0.3870  2.0064
   98OSM   H18G 9845   5.536   5.079   8.573  0.1268  1.1650  2.7620
   98OSM   H18H 9846   5.415   5.097   8.444 -0.9182 -0.2018  0.4133
   99OSM      N 9847   1.142   5.931  10.880 -0.3006 -0.4437 -0.3516
   99OSM    C15 9848   1.246   5.864  10.803 -0.4761 -0.4165  0.3143
   99OSM   H15A 9849   1.272   5.933  10.724 -2.3611 -0.6178 -0.5505
   99OSM   H15B 9850   1.207   5.782  10.744 -1.7355  1.9173 -2.3131
   99OSM   H15C 9851   1.332   5.837  10.862 -0.2258 -0.8449 -0.2330
   99OSM    C14 9852   1.120   5.843  11.002  0.4314 -0.5240  0.2307
   99OSM   H14A 9853   1.048   5.893  11.065 -2.5189 -3.1951 -0.7187
   99OSM   H14B 9854   1.215   5.832  11.052  0.9684 -0.3203 -0.7095
   99OSM   H14C 9855   1.069   5.749  10.986 -1.2661  0.0428  1.9206
   99OSM    C13 9856   1.195   6.070  10.927  0.1252  0.4611  0.5528
   99OSM   H13A 9857   1.215   6.131  10.840 -0.1501  0.3002  0.3712
   99OSM   H13B 9858   1.279   6.052  10.991  0.8437 -1.6692 -0.8554
   99OSM   H13C 9859   1.123   6.121  10.988  3.0427  2.0666  2.9089
   99OSM    C12 9860   1.006   5.958  10.815 -0.2663 -0.1689  0.0353
   99OSM   H12A 9861   0.944   6.007  10.887  0.5503 -1.5354  1.7523
   99OSM   H12B 9862   0.948   5.869  10.792 -3.1426  1.1853  1.6283
   99OSM    C11 9863   0.997   6.042  10.689 -0.2701  0.0176  0.2519
   99OSM   H11A 9864   0.889   6.043  10.665 -0.6909  1.4822  2.0065
   99OSM   H11B 9865   1.057   5.985  10.614  0.5491  1.1227  0.0481
   99OSM      P 9866   0.994   6.297  10.642 -0.1854 -0.0835 -0.0907
   99OSM    O13 9867   0.893   6.350  10.738  0.1833 -0.1165 -0.2617
   99OSM    O14 9868   1.102   6.387  10.604 -0.3659 -0.1446  0.6526
   99OSM    O11 9869   0.914   6.246  10.517  0.3905 -0.7897  0.8976
   99OSM    O12 9870   1.060   6.166  10.703 -0.0753 -0.9102  0.2174
   99OSM    C1S 9871   0.982   6.230  10.386 -0.5039  0.6808 -0.4321
   99OSM    H1S 9872   1.051   6.143  10.388 -1.0404  0.1689 -2.0523
   99OSM    H1T 9873   1.037   6.324  10.364 -0.0035  0.8567  1.4383
   99OSM     NF 9874   0.928   6.163  10.151 -0.2214  0.5700  0.7284
   99OSM    HNF 9875   0.936   6.226  10.075  0.4838  1.0762  1.2132
   99OSM    C2S 9876   0.874   6.213  10.279 -0.2827 -0.5087  0.3744
   99OSM    H2S 9877   0.803   6.134  10.310  0.0165 -1.0203 -0.2170
   99OSM    C3S 9878   0.799   6.346  10.260  0.1404 -0.2288  0.6517
   99OSM    H3S 9879   0.861   6.434  10.232 -0.4854  0.0854  0.2183
   99OSM     O3 9880   0.743   6.395  10.378 -0.4785 -0.2432 -0.1919
   99OSM    HO3 9881   0.795   6.348  10.443 -0.0379 -0.9020 -1.0030
   99OSM    C4S 9882   0.680   6.331  10.160  0.6706 -0.0107 -0.1411
   99OSM    H4S 9883   0.695   6.380  10.062  2.5379  2.5925  1.3398
   99OSM    C5S 9884   0.555   6.274  10.186  0.1222 -0.0654 -0.0355
   99OSM    H5S 9885   0.555   6.225  10.284 -0.1639 -0.2674 -0.1361
   99OSM    C6S 9886   0.444   6.264  10.087 -0.6838 -0.2914 -0.0436
   99OSM    H6S 9887   0.446   6.355  10.024 -2.4891 -0.3812 -0.2668
   99OSM    H6T 9888   0.345   6.267  10.136 -0.2783  0.9514  0.7246
   99OSM    C7S 9889   0.448   6.143   9.987  0.2879 -0.0233  0.2106
   99OSM    H7S 9890   0.460   6.052  10.050  1.9579  0.0304  0.0180
   99OSM    H7T 9891   0.524   6.151   9.906  0.3196 -1.4362  0.0645
   99OSM    C8S 9892   0.310   6.137   9.916 -0.0342 -0.1714 -0.2457
   99OSM    H8S 9893   0.225   6.119   9.985  0.3975  0.6863  0.5420
   99OSM    H8T 9894   0.320   6.046   9.854 -0.3399 -1.3874  1.4469
   99OSM    C9S 9895   0.268   6.257   9.825 -0.5857 -0.1396  0.1521
   99OSM    H9S 9896   0.360   6.276   9.766 -1.3377 -0.8903 -1.2953
   99OSM    H9T 9897   0.243   6.344   9.891  0.3053 -2.6187  4.0954
   99OSM   C10S 9898   0.147   6.236   9.737 -0.5461  0.6718 -0.2769
   99OSM   H10S 9899   0.070   6.197   9.807 -2.6291  2.6855 -1.3038
   99OSM   H10T 9900   0.181   6.157   9.667  0.1515  0.4257  0.3248
   99OSM   C11S 9901   0.117   6.363   9.665 -0.5492  0.2163 -0.5056
   99OSM   H11S 9902   0.216   6.392   9.622 -0.2808 -2.4941 -1.9176
   99OSM   H11T 9903   0.080   6.440   9.737  0.1592  0.1445 -0.0551
   99OSM   C12S 9904   0.019   6.348   9.548 -1.0018 -0.1295 -0.3805
   99OSM   H12S 9905   0.017   6.442   9.489  1.7895 -0.5459 -1.2577
   99OSM   H12T 9906   0.062   6.265   9.489 -1.3040 -1.5188  1.2999
   99OSM   C13S 9907  -0.115   6.312   9.594  0.1553  0.2874  0.5951
   99OSM   H13S 9908  -0.160   6.391   9.658 -1.5521 -0.8645  0.8952
   99OSM   H13T 9909  -0.103   6.220   9.655  1.3137  0.2607  0.3504
   99OSM   C14S 9910  -0.213   6.297   9.479 -0.0362 -0.6919 -0.4243
   99OSM   H14S 9911  -0.151   6.245   9.403  2.2361 -0.1816  0.9697
   99OSM   H14T 9912  -0.237   6.399   9.441  0.1559 -0.4296  0.1431
   99OSM   C15S 9913  -0.333   6.209   9.519 -0.1530 -0.3596  0.1218
   99OSM   H15S 9914  -0.294   6.112   9.557  0.3436 -0.1371  0.1876
   99OSM   H15T 9915  -0.385   6.183   9.425 -0.8406  1.8835 -0.1625
   99OSM   C16S 9916  -0.425   6.273   9.616  0.1637  0.3543  0.7799
   99OSM   H16S 9917  -0.459   6.367   9.567 -1.2033 -0.6863 -0.3532
   99OSM   H16T 9918  -0.371   6.309   9.707  0.5246  0.0942  0.6715
   99OSM   C17S 9919  -0.553   6.181   9.634 -0.0933 -0.0732 -0.2812
   99OSM   H17S 9920  -0.619   6.203   9.721 -1.2707 -1.9740 -0.6187
   99OSM   H17T 9921  -0.498   6.085   9.638  0.4331  0.2628  0.7372
   99OSM   C18S 9922  -0.645   6.172   9.514  0.2592  0.1884  0.2451
   99OSM   H18S 9923  -0.747   6.142   9.547 -0.1830  1.0202 -0.3421
   99OSM   H18T 9924  -0.607   6.097   9.440 -0.2756 -0.8938  1.0338
   99OSM   H18U 9925  -0.668   6.264   9.457 -0.4562  0.9795  1.7549
   99OSM    C1F 9926   0.954   6.031  10.130 -0.1798  0.5480  0.4034
   99OSM     OF 9927   0.954   5.943  10.217 -0.3573 -0.2499 -0.3109
   99OSM    C2F 9928   0.986   5.992   9.990 -0.8691  0.4651  0.1605
   99OSM    H2F 9929   1.095   6.004   9.978 -0.5095 -1.5538  1.0476
   99OSM    H2G 9930   0.939   6.059   9.915  0.8602  0.5398 -0.9189
   99OSM    C3F 9931   0.958   5.848   9.953 -0.1308  0.2948 -0.4888
   99OSM    H3F 9932   1.032   5.782  10.005 -1.3820 -0.0399  0.9338
   99OSM    H3G 9933   0.856   5.814   9.982 -0.4996 -1.0850 -3.0588
   99OSM    C4F 9934   0.972   5.811   9.808 -0.5934  0.0122  0.6771
   99OSM    H4F 9935   0.877   5.828   9.753 -0.2313  1.0269  0.3435
   99OSM    H4G 9936   1.003   5.705   9.802 -0.2595 -0.1383  3.5138
   99OSM    C5F 9937   1.079   5.883   9.725  0.2002  0.0246  0.1059
   99OSM    H5F 9938   1.175   5.884   9.782  0.0102  0.9147  0.4260
   99OSM    H5G 9939   1.060   5.987   9.694 -0.6007 -0.3142 -0.5638
   99OSM    C6F 9940   1.088   5.808   9.592 -0.4912  0.2253  0.9609
   99OSM    H6F 9941   0.990   5.802   9.540  0.6923  1.9206 -1.6631
   99OSM    H6G 9942   1.123   5.705   9.617 -2.2688 -0.0543  2.5045
   99OSM    C7F 9943   1.178   5.879   9.488  0.5170 -0.2224 -0.2147
   99OSM    H7F 9944   1.280   5.880   9.532 -0.0324 -0.1181  1.0969
   99OSM    H7G 9945   1.151   5.986   9.478 -1.6143 -0.8333 -1.8087
   99OSM    C8F 9946   1.181   5.819   9.350  0.5246  0.0721  0.0210
   99OSM    H8F 9947   1.221   5.715   9.351  2.6567  0.8615  0.2888
   99OSM    H8G 9948   1.265   5.872   9.300  0.0962 -0.6201 -1.5220
   99OSM    C9F 9949   1.053   5.842   9.272 -0.3577 -1.1709  0.1387
   99OSM    H9F 9950   0.964   5.837   9.335  0.6778 -0.3753  1.7380
   99OSM   C10F 9951   1.051   5.872   9.140 -0.7265 -0.4938  0.2003
   99OSM   H10F 9952   0.954   5.894   9.093 -1.5780  0.5067  2.2926
   99OSM   C11F 9953   1.166   5.886   9.043 -0.2386 -0.2857 -0.7967
   99OSM   H11F 9954   1.145   5.837   8.946  0.8426 -0.9795 -0.6946
   99OSM   H11G 9955   1.263   5.844   9.077  0.1044 -0.0658 -1.4937
   99OSM   C12F 9956   1.198   6.033   9.021 -0.6032 -0.6004  0.7095
   99OSM   H12F 9957   1.199   6.090   9.117  0.7874 -0.3764  0.5703
   99OSM   H12G 9958   1.120   6.087   8.962  0.0136  1.4902  1.7276
   99OSM   C13F 9959   1.323   6.051   8.937 -0.0730 -0.2226 -0.3036
   99OSM   H13F 9960   1.334   6.157   8.909  0.4593  0.1234  1.1120
   99OSM   H13G 9961   1.312   6.002   8.838  1.6181 -0.3885 -0.4296
   99OSM   C14F 9962   1.456   6.008   9.001 -0.4558  0.1577  0.0877
   99OSM   H14F 9963   1.456   5.899   9.022 -0.3912  0.2691  0.7031
   99OSM   H14G 9964   1.465   6.066   9.095  0.7478 -0.6500  0.4885
   99OSM   C15F 9965   1.578   6.023   8.903 -0.1934  0.5360 -0.3985
   99OSM   H15F 9966   1.587   6.131   8.879 -1.5154  0.4901 -1.1669
   99OSM   H15G 9967   1.559   5.973   8.806 -1.1939 -0.7749  0.4396
   99OSM   C16F 9968   1.698   5.973   8.977  0.7841  0.7659 -0.1568
   99OSM   H16F 9969   1.773   5.944   8.900  0.6154  1.0583 -0.4280
   99OSM   H16G 9970   1.678   5.880   9.034 -0.2624  0.4279 -1.0425
   99OSM   C17F 9971   1.774   6.091   9.056 -0.9204 -0.0892  0.1136
   99OSM   H17F 9972   1.705   6.140   9.127 -0.3516  1.1477 -0.1644
   99OSM   H17G 9973   1.798   6.168   8.980 -1.4838  0.7051  0.7376
   99OSM   C18F 9974   1.899   6.041   9.125 -0.1610  0.2590 -0.1878
   99OSM   H18F 9975   1.971   6.004   9.049 -1.1666 -0.4951 -0.7980
   99OSM   H18G 9976   1.873   5.947   9.178  1.0187 -0.9186 -1.5981
   99OSM   H18H 9977   1.949   6.121   9.184  2.5693 -1.2235 -0.3170
  100OSM      N 9978   1.408   0.701  11.044 -0.2724  0.5391 -0.3232
  100OSM    C15 9979   1.450   0.583  11.128  0.1852 -0.2338 -0.0899
  100OSM   H15A 9980   1.365   0.525  11.162 -1.2601 -0.4450 -3.5800
  100OSM   H15B 9981   1.510   0.614  11.211  0.0740 -0.6927  0.1665
  100OSM   H15C 9982   1.511   0.516  11.070 -3.1399 -2.2162 -1.6198
  100OSM    C14 9983   1.300   0.766  11.119 -0.5771  0.5594  0.5556
  100OSM   H14A 9984   1.222   0.694  11.141  1.6932 -2.3686 -0.2358
  100OSM   H14B 9985   1.255   0.849  11.067 -1.1203 -0.1732 -0.1808
  100OSM   H14C 9986   1.328   0.790  11.220 -0.8237  0.1982  0.7127
  100OSM    C13 9987   1.525   0.801  11.044  0.1573 -0.1240  0.9073
  100OSM   H13A 9988   1.617   0.756  11.010  0.3667  0.7909  0.2172
  100OSM   H13B 9989   1.557   0.834  11.141 -0.0091 -3.1313  2.1085
  100OSM   H13C 9990   1.505   0.885  10.979  0.1825  0.4320  1.6078
  100OSM    C12 9991   1.367   0.675  10.903 -0.3631  0.2863 -0.2223
  100OSM   H12A 9992   1.333   0.771  10.869  2.1200  1.2959 -0.0524
  100OSM   H12B 9993   1.283   0.607  10.905  0.4363 -0.7096  1.8723
  100OSM    C11 9994   1.479   0.637  10.800 -0.1271  0.3545  0.5924
  100OSM   H11A 9995   1.558   0.715  10.793 -1.5186  1.7251 -0.4028
  100OSM   H11B 9996   1.428   0.651  10.702  0.2665  4.4200  0.8001
  100OSM      P 9997   1.501   0.389  10.726 -0.2932  0.4591  0.3047
  100OSM    O13 9998   1.587   0.272  10.761  0.2209  0.1074 -0.6349
  100OSM    O14 9999   1.354   0.364  10.727 -0.1687  0.1523  0.1735
  100OSM    O1110000   1.547   0.434  10.584 -0.2347 -0.0212  0.1612
  100OSM    O1210001   1.539   0.507  10.822  0.9444 -0.1630  0.1494
  100OSM    C1S10002   1.673   0.491  10.559 -0.1410  0.1700  1.1437
  100OSM    H1S10003   1.755   0.432  10.604  0.6411  0.3545  0.0025
  100OSM    H1T10004   1.681   0.600  10.579  0.0129  0.7382 -1.5911
  100OSM     NF10005   1.852   0.502  10.370  0.0778  0.1559 -0.3842
  100OSM    HNF10006   1.883   0.579  10.315 -0.5565  0.3633 -0.4582
  100OSM    C2S10007   1.710   0.486  10.398  1.1253 -0.3823  0.1761
  100OSM    H2S10008   1.672   0.385  10.370 -2.8668  0.9753  0.0295
  100OSM    C3S10009   1.614   0.584  10.317  0.1665 -0.3699 -0.0393
  100OSM    H3S10010   1.666   0.681  10.329  1.2041 -0.9949  0.7295
  100OSM     O310011   1.481   0.600  10.376 -0.4165  0.0041  0.3564
  100OSM    HO310012   1.470   0.536  10.447 -0.3303 -0.0275  0.3417
  100OSM    C4S10013   1.621   0.546  10.171 -0.3526  1.0608 -0.7177
  100OSM    H4S10014   1.718   0.563  10.122 -0.0257  1.4255  0.0400
  100OSM    C5S10015   1.534   0.475  10.096 -0.0697  0.3660  0.4661
  100OSM    H5S10016   1.443   0.428  10.136  1.2901 -2.5456  0.3972
  100OSM    C6S10017   1.557   0.436   9.959 -1.4976 -0.0452  0.2188
  100OSM    H6S10018   1.525   0.331   9.948 -0.7226 -0.3583  0.8836
  100OSM    H6T10019   1.667   0.434   9.946 -1.5156 -0.0989  0.0704
  100OSM    C7S10020   1.515   0.528   9.845 -0.2850  0.3381  0.8706
  100OSM    H7S10021   1.561   0.628   9.858  0.7828 -0.2867  2.2569
  100OSM    H7T10022   1.405   0.544   9.842 -0.0569  2.1541  1.1699
  100OSM    C8S10023   1.536   0.455   9.714 -0.2800 -0.1384  0.1494
  100OSM    H8S10024   1.469   0.367   9.717 -2.3302  1.3891  1.1889
  100OSM    H8T10025   1.642   0.421   9.725 -0.1070 -0.2736 -1.6876
  100OSM    C9S10026   1.514   0.533   9.586  0.5251 -0.2660 -0.2555
  100OSM    H9S10027   1.573   0.627   9.581  0.3687 -0.2337 -2.4770
  100OSM    H9T10028   1.414   0.579   9.598  0.1715 -0.6280 -1.6133
  100OSM   C10S10029   1.523   0.452   9.455 -0.2583  0.1210  0.3557
  100OSM   H10S10030   1.443   0.375   9.450 -0.6872  0.6368 -0.9855
  100OSM   H10T10031   1.621   0.398   9.452 -0.7815 -1.0515  2.3713
  100OSM   C11S10032   1.505   0.545   9.337 -1.1438  0.3008  0.6093
  100OSM   H11S10033   1.583   0.624   9.343 -1.4151  0.5091  1.4882
  100OSM   H11T10034   1.402   0.585   9.338 -1.8221 -1.2175 -1.2847
  100OSM   C12S10035   1.516   0.470   9.201  0.0128 -0.1994 -0.0394
  100OSM   H12S10036   1.455   0.378   9.190  1.2090 -0.9521 -0.5436
  100OSM   H12T10037   1.622   0.437   9.191  0.1156  0.1944 -0.2535
  100OSM   C13S10038   1.472   0.564   9.088  0.7482 -0.1557  0.3559
  100OSM   H13S10039   1.543   0.649   9.087 -0.0371  0.5185 -0.7504
  100OSM   H13T10040   1.371   0.598   9.119 -0.1647 -1.7020 -0.7683
  100OSM   C14S10041   1.485   0.504   8.947 -0.0983  0.3782  0.3231
  100OSM   H14S10042   1.411   0.421   8.943  0.6096 -0.2274 -0.2812
  100OSM   H14T10043   1.587   0.463   8.938  0.6088  2.1154  0.1387
  100OSM   C15S10044   1.450   0.597   8.832  0.3945 -0.3008  0.3221
  100OSM   H15S10045   1.531   0.672   8.825 -0.8651  1.0709 -0.0933
  100OSM   H15T10046   1.354   0.645   8.860 -0.3429  0.3655 -2.9798
  100OSM   C16S10047   1.416   0.548   8.693  0.1270 -0.2728  0.1721
  100OSM   H16S10048   1.405   0.634   8.624  1.0263 -1.5783 -1.6763
  100OSM   H16T10049   1.321   0.490   8.693 -1.3478  2.0275  0.3498
  100OSM   C17S10050   1.525   0.460   8.628  0.4130 -0.5099  0.2148
  100OSM   H17S10051   1.531   0.370   8.693 -1.6906 -0.4549  0.5276
  100OSM   H17T10052   1.624   0.511   8.626 -0.6476  1.5910 -1.5881
  100OSM   C18S10053   1.488   0.417   8.498 -0.6423  0.1242  0.6824
  100OSM   H18S10054   1.477   0.502   8.427  1.7962  0.8283  1.0460
  100OSM   H18T10055   1.396   0.355   8.496 -2.4015  2.5695  0.7584
  100OSM   H18U10056   1.558   0.355   8.439 -2.2982 -1.7106  0.5595
  100OSM    C1F10057   1.934   0.404  10.401 -0.2119 -0.5258 -0.4306
  100OSM     OF10058   1.886   0.296  10.444  0.5812 -0.4631  0.1405
  100OSM    C2F10059   2.081   0.419  10.378 -0.2686 -0.8903 -0.2630
  100OSM    H2F10060   2.119   0.427  10.482 -2.2144 -0.1644  0.4371
  100OSM    H2G10061   2.109   0.508  10.318 -2.3523 -0.3902 -0.5738
  100OSM    C3F10062   2.128   0.305  10.287 -0.0994 -0.4080 -0.1607
  100OSM    H3F10063   2.111   0.200  10.322 -0.2646 -1.0609 -2.1117
  100OSM    H3G10064   2.239   0.304  10.276  0.0232 -2.0394  0.7798
  100OSM    C4F10065   2.072   0.327  10.148 -0.4346 -0.6796  0.6749
  100OSM    H4F10066   2.101   0.429  10.117  0.4569 -0.1621  2.9954
  100OSM    H4G10067   1.963   0.331  10.128 -0.1847  3.0496 -0.6034
  100OSM    C5F10068   2.120   0.220  10.045 -0.1502  0.0558  0.4006
  100OSM    H5F10069   2.092   0.120  10.085  1.2723  0.7624  3.4162
  100OSM    H5G10070   2.229   0.225  10.027 -0.4165  0.8087 -1.1276
  100OSM    C6F10071   2.061   0.236   9.903 -1.0956 -0.8431 -0.7264
  100OSM    H6F10072   2.128   0.177   9.838 -1.9041 -1.4317 -1.0384
  100OSM    H6G10073   2.074   0.343   9.874 -2.3987 -0.3266  0.4836
  100OSM    C7F10074   1.920   0.205   9.875 -0.4409  0.4488 -0.2507
  100OSM    H7F10075   1.896   0.265   9.784 -0.7306  0.3613 -0.2311
  100OSM    H7G10076   1.860   0.251   9.956  2.5772 -0.6901  2.8782
  100OSM    C8F10077   1.904   0.056   9.846  0.2884  0.5531  0.4135
  100OSM    H8F10078   1.941   0.001   9.936  1.1862  1.2800  0.5145
  100OSM    H8G10079   1.969   0.033   9.759 -0.0969  0.2611  0.2051
  100OSM    C9F10080   1.760   0.034   9.819 -0.2329 -0.1122  0.3311
  100OSM    H9F10081   1.708  -0.008   9.906  0.0939  1.3100  1.2544
  100OSM   C10F10082   1.684   0.076   9.714  0.0019 -0.0108  0.8965
  100OSM   H10F10083   1.576   0.054   9.717 -0.5035  2.0411 -0.4216
  100OSM   C11F10084   1.732   0.137   9.586 -0.1487  0.2772  0.4126
  100OSM   H11F10085   1.843   0.134   9.580 -0.1810  0.0629 -0.1188
  100OSM   H11G10086   1.698   0.243   9.585  0.4184  0.4603 -0.2180
  100OSM   C12F10087   1.684   0.064   9.458  0.0126 -0.4272  0.1419
  100OSM   H12F10088   1.574   0.075   9.452 -0.2315 -2.2768  0.6721
  100OSM   H12G10089   1.703  -0.045   9.469  0.8311 -0.1314  2.1600
  100OSM   C13F10090   1.747   0.103   9.323  0.0929  0.2407  0.4733
  100OSM   H13F10091   1.855   0.084   9.335  0.4338  0.9361 -1.2203
  100OSM   H13G10092   1.742   0.214   9.319 -1.0297  0.2508  1.5607
  100OSM   C14F10093   1.693   0.039   9.202  0.2261  0.1488 -0.3142
  100OSM   H14F10094   1.589   0.078   9.196 -0.3664 -1.1647  0.8029
  100OSM   H14G10095   1.699  -0.072   9.215 -2.2292  0.1170  1.1886
  100OSM   C15F10096   1.763   0.091   9.068 -0.3160 -0.4290  0.0920
  100OSM   H15F10097   1.865   0.050   9.081  0.4593  1.5849  0.9313
  100OSM   H15G10098   1.762   0.201   9.084 -2.5642 -0.7095  2.6243
  100OSM   C16F10099   1.699   0.047   8.941 -0.2913  0.7386  0.2804
  100OSM   H16F10100   1.595   0.085   8.931 -0.0650  1.3015  0.0251
  100OSM   H16G10101   1.695  -0.064   8.939  1.4611  0.6492 -1.2681
  100OSM   C17F10102   1.771   0.105   8.816 -0.3252  0.2361 -0.9618
  100OSM   H17F10103   1.862   0.044   8.796 -0.0013  0.1880  0.5460
  100OSM   H17G10104   1.816   0.203   8.843  2.7051 -1.6403  1.6513
  100OSM   C18F10105   1.679   0.107   8.697 -0.6231  0.3629  0.5823
  100OSM   H18F10106   1.588   0.170   8.709 -1.2344 -0.0727 -1.3490
  100OSM   H18G10107   1.635   0.011   8.662  1.2551  0.4507 -2.3994
  100OSM   H18H10108   1.740   0.149   8.615 -1.0930  1.5396  0.8213
  101OSM      N10109   5.183   6.116  10.573 -0.8195  0.5821  0.3023
  101OSM    C1510110   5.202   6.160  10.712  0.6838 -0.1334  0.1420
  101OSM   H15A10111   5.305   6.177  10.739  0.6963 -1.7664  1.2423
  101OSM   H15B10112   5.148   6.098  10.781  2.0873 -0.4768  0.9644
  101OSM   H15C10113   5.165   6.262  10.714 -0.3467 -0.5085  0.2695
  101OSM    C1410114   5.269   5.993  10.546 -0.2647  0.0120  0.0056
  101OSM   H14A10115   5.263   5.954  10.446  1.6250  3.2922 -1.5557
  101OSM   H14B10116   5.234   5.918  10.615  0.1032 -1.6409 -1.5347
  101OSM   H14C10117   5.375   6.010  10.561 -0.0896 -0.6855 -0.4166
  101OSM    C1310118   5.039   6.085  10.561 -0.0873  0.2685 -0.4225
  101OSM   H13A10119   4.975   6.168  10.587  1.4803  1.2669  0.3814
  101OSM   H13B10120   5.015   6.010  10.635  1.5774 -0.3097 -0.4418
  101OSM   H13C10121   5.006   6.052  10.463  0.0049 -2.1014  0.2858
  101OSM    C1210122   5.225   6.224  10.473 -0.3429  0.5028  0.1864
  101OSM   H12A10123   5.192   6.190  10.376  0.3707  0.5652 -0.0838
  101OSM   H12B10124   5.332   6.230  10.460  0.0364 -0.4679  2.2968
  101OSM    C1110125   5.167   6.361  10.507  0.1352 -0.1477  0.0438
  101OSM   H11A10126   5.062   6.341  10.536  0.1577 -1.1116 -0.4909
  101OSM   H11B10127   5.168   6.427  10.418 -0.3975 -0.5352 -0.2537
  101OSM      P10128   5.337   6.523  10.607 -0.0674 -0.8392 -0.0772
  101OSM    O1310129   5.323   6.608  10.726 -0.2160  0.9158 -0.2944
  101OSM    O1410130   5.464   6.455  10.582  0.5486  0.8861 -0.9872
  101OSM    O1110131   5.294   6.601  10.472  0.3606  0.6130 -0.3672
  101OSM    O1210132   5.218   6.421  10.622 -0.2722 -0.2089  0.1579
  101OSM    C1S10133   5.370   6.585  10.359  0.2905  0.4313  0.2319
  101OSM    H1S10134   5.389   6.476  10.343  2.0337  0.3823  2.2105
  101OSM    H1T10135   5.465   6.643  10.369 -0.5329  1.9664 -0.4968
  101OSM     NF10136   5.385   6.619  10.110  0.1622 -0.0786 -0.2034
  101OSM    HNF10137   5.449   6.692  10.087  1.5114 -0.6366  1.5505
  101OSM    C2S10138   5.298   6.633  10.227 -0.2740 -0.2646 -0.6765
  101OSM    H2S10139   5.213   6.561  10.221  0.6458 -1.4988  0.4102
  101OSM    C3S10140   5.238   6.781  10.250  0.7242 -0.3049 -0.4118
  101OSM    H3S10141   5.320   6.853  10.267  0.6190 -0.7112  2.4136
  101OSM     O310142   5.180   6.801  10.375 -0.2260 -0.0453 -0.0684
  101OSM    HO310143   5.206   6.723  10.424  0.1412  0.8580  1.2224
  101OSM    C4S10144   5.162   6.821  10.131  0.5795 -0.0533  0.3194
  101OSM    H4S10145   5.225   6.870  10.056  1.6011  0.1553  1.2769
  101OSM    C5S10146   5.033   6.824  10.100 -0.1147  0.1920 -0.0278
  101OSM    H5S10147   4.960   6.794  10.177 -1.6991  0.0219 -1.5114
  101OSM    C6S10148   4.973   6.886   9.966 -0.4879 -0.5720 -0.4710
  101OSM    H6S10149   5.028   6.845   9.878 -2.5360 -1.4625 -1.4096
  101OSM    H6T10150   4.986   6.996   9.962 -4.1766 -0.0180 -0.5034
  101OSM    C7S10151   4.823   6.856   9.943 -0.1555  0.6841  0.0297
  101OSM    H7S10152   4.775   6.914  10.024 -1.5983 -0.3922 -0.0210
  101OSM    H7T10153   4.806   6.746   9.939 -0.7777  0.7952 -0.5161
  101OSM    C8S10154   4.777   6.903   9.803 -0.2664  0.2061 -0.5887
  101OSM    H8S10155   4.858   6.855   9.744  1.0056  0.0613  1.1956
  101OSM    H8T10156   4.805   7.010   9.793  1.5339 -0.0137  1.4781
  101OSM    C9S10157   4.640   6.858   9.755  0.4679  0.3900 -0.4085
  101OSM    H9S10158   4.629   6.762   9.809 -0.5012  0.2155 -0.8950
  101OSM    H9T10159   4.647   6.833   9.647 -3.0350  0.9157 -0.8979
  101OSM   C10S10160   4.516   6.954   9.760  0.1140 -0.0438  0.2164
  101OSM   H10S10161   4.512   6.982   9.867 -1.4934  0.9350 -0.0619
  101OSM   H10T10162   4.421   6.905   9.728 -1.3323  2.0164  1.1323
  101OSM   C11S10163   4.529   7.088   9.682 -1.2102  0.2374 -0.5362
  101OSM   H11S10164   4.624   7.133   9.716 -1.5963 -0.8778  2.2149
  101OSM   H11T10165   4.453   7.158   9.723 -2.5151 -0.1750 -2.1377
  101OSM   C12S10166   4.513   7.073   9.531 -0.7549 -0.2979 -0.2595
  101OSM   H12S10167   4.414   7.025   9.512 -0.2290 -2.0459  1.1358
  101OSM   H12T10168   4.595   7.011   9.489  0.7187  1.8706 -0.7166
  101OSM   C13S10169   4.513   7.208   9.456 -0.1366  0.0203 -0.1915
  101OSM   H13S10170   4.614   7.256   9.459 -1.1700  2.3084  1.0049
  101OSM   H13T10171   4.443   7.274   9.512  2.1092  0.2765  2.5770
  101OSM   C14S10172   4.463   7.215   9.311 -0.1857 -0.0926 -0.1476
  101OSM   H14S10173   4.487   7.314   9.266 -1.7181  0.5339  0.3561
  101OSM   H14T10174   4.355   7.193   9.304 -0.1146 -0.6653  0.4682
  101OSM   C15S10175   4.549   7.114   9.225  0.4022 -0.2519  0.3000
  101OSM   H15S10176   4.536   7.014   9.272 -1.3260  0.4383  1.4414
  101OSM   H15T10177   4.656   7.142   9.234  0.6555 -0.6849 -1.1066
  101OSM   C16S10178   4.500   7.121   9.084 -0.2384  0.2748  0.2849
  101OSM   H16S10179   4.497   7.224   9.042  0.1783 -0.5006 -1.7448
  101OSM   H16T10180   4.396   7.083   9.083 -0.0654 -0.1998 -0.8115
  101OSM   C17S10181   4.570   7.041   8.977  0.2426  0.3100  0.5735
  101OSM   H17S10182   4.580   6.932   8.995  1.3033  0.4050  0.6413
  101OSM   H17T10183   4.671   7.086   8.972 -0.6199  2.2506 -0.7873
  101OSM   C18S10184   4.495   7.055   8.841  0.0470  0.5707 -0.0098
  101OSM   H18S10185   4.551   7.001   8.761 -0.9443 -0.4904 -0.0123
  101OSM   H18T10186   4.483   7.159   8.806 -1.5330  0.8180  1.1635
  101OSM   H18U10187   4.396   7.006   8.853  1.9623 -3.6880  0.3703
  101OSM    C1F10188   5.399   6.496  10.063 -0.4217  0.6034 -0.2629
  101OSM     OF10189   5.341   6.402  10.115  0.2210 -0.5523  0.4473
  101OSM    C2F10190   5.490   6.478   9.943 -0.2605  0.3498  0.2773
  101OSM    H2F10191   5.588   6.516   9.978  0.1593  1.3692 -1.8141
  101OSM    H2G10192   5.461   6.553   9.866 -0.6444 -2.1772 -2.1627
  101OSM    C3F10193   5.511   6.338   9.888  0.0567  0.3796  0.2202
  101OSM    H3F10194   5.418   6.285   9.859  0.1239  0.2474  0.2438
  101OSM    H3G10195   5.574   6.276   9.955  4.0423  2.0603 -1.6680
  101OSM    C4F10196   5.593   6.337   9.752 -0.8447 -0.1254 -0.3254
  101OSM    H4F10197   5.541   6.413   9.690 -1.4186  1.2939  1.7792
  101OSM    H4G10198   5.579   6.233   9.714 -1.0803 -0.5203  0.7900
  101OSM    C5F10199   5.743   6.375   9.768  0.5721 -0.1747  0.0033
  101OSM    H5F10200   5.792   6.286   9.813 -3.6965 -0.8164  4.2377
  101OSM    H5G10201   5.753   6.461   9.838  4.1995 -0.7030  0.3634
  101OSM    C6F10202   5.812   6.404   9.637  0.5728  0.1899  0.1751
  101OSM    H6F10203   5.769   6.504   9.613 -2.3814 -0.1018  3.5175
  101OSM    H6G10204   5.918   6.428   9.661  1.3291 -0.4071 -2.2926
  101OSM    C7F10205   5.802   6.295   9.535 -0.1315  1.2581  0.6163
  101OSM    H7F10206   5.697   6.278   9.503  1.2623 -2.4066 -2.8293
  101OSM    H7G10207   5.838   6.202   9.584  0.5726  0.3523 -1.5003
  101OSM    C8F10208   5.891   6.326   9.411 -0.7431  0.8115  0.0690
  101OSM    H8F10209   5.895   6.237   9.344  2.0222  0.1372  1.0210
  101OSM    H8G10210   5.995   6.345   9.445 -0.4846  2.5288 -1.4961
  101OSM    C9F10211   5.835   6.437   9.329  0.0846 -0.6539  0.2002
  101OSM    H9F10212   5.758   6.495   9.382 -0.4533 -1.2268  0.0710
  101OSM   C10F10213   5.854   6.468   9.196 -0.1091 -0.1562  0.1163
  101OSM   H10F10214   5.805   6.557   9.154  1.4652  0.3565 -0.7366
  101OSM   C11F10215   5.941   6.391   9.100  0.1622 -0.2802  0.4153
  101OSM   H11F10216   5.919   6.284   9.118  0.0612 -0.7868 -2.2904
  101OSM   H11G10217   6.049   6.410   9.116  0.0737 -0.0120  0.6960
  101OSM   C12F10218   5.895   6.417   8.957 -0.1112 -0.0975 -0.7661
  101OSM   H12F10219   5.901   6.525   8.934  0.9342  0.1092  0.3491
  101OSM   H12G10220   5.790   6.382   8.943 -0.8627  1.8522 -0.2372
  101OSM   C13F10221   5.985   6.349   8.853  0.2737 -0.0068  0.1470
  101OSM   H13F10222   6.024   6.254   8.895  1.6532 -0.3323 -1.7180
  101OSM   H13G10223   6.072   6.419   8.843 -0.9379  1.3394 -1.6313
  101OSM   C14F10224   5.922   6.341   8.706  0.1790  0.0228 -0.5546
  101OSM   H14F10225   6.003   6.327   8.631  0.1269  1.5286 -0.9316
  101OSM   H14G10226   5.895   6.446   8.682  0.9341  0.6939  1.3882
  101OSM   C15F10227   5.821   6.229   8.683  0.0830 -0.7292  0.3190
  101OSM   H15F10228   5.764   6.242   8.588 -0.0617  2.8048  0.7566
  101OSM   H15G10229   5.740   6.241   8.758 -1.6787 -0.0485 -1.5914
  101OSM   C16F10230   5.880   6.089   8.697 -0.4499  0.9276  0.6464
  101OSM   H16F10231   5.963   6.092   8.771  1.2298 -0.0867 -1.1054
  101OSM   H16G10232   5.937   6.067   8.605  0.7366  0.9141  1.3627
  101OSM   C17F10233   5.775   5.978   8.719  0.2210  1.2863 -0.6885
  101OSM   H17F10234   5.794   5.896   8.647 -1.4852 -0.4295  0.7171
  101OSM   H17G10235   5.673   6.018   8.701  0.5594  1.6317 -1.8690
  101OSM   C18F10236   5.778   5.913   8.855 -0.1995  0.1431 -0.4410
  101OSM   H18F10237   5.713   5.823   8.848 -0.2857  0.3226 -2.7633
  101OSM   H18G10238   5.730   5.982   8.928 -2.4650 -1.3712 -0.4146
  101OSM   H18H10239   5.884   5.893   8.883 -0.3297  0.9962  0.7510
  102OSM      N10240   4.965   1.286  10.835  0.1035 -0.3170  0.3074
  102OSM    C1510241   4.843   1.293  10.922 -0.2274 -0.4938  0.3322
  102OSM   H15A10242   4.851   1.218  10.999 -0.2472 -0.4154  0.4110
  102OSM   H15B10243   4.752   1.271  10.867 -0.3493  0.3762  0.1684
  102OSM   H15C10244   4.825   1.390  10.967  0.8935 -0.1838  0.1304
  102OSM    C1410245   5.090   1.332  10.909  0.0255 -0.2607  0.1262
  102OSM   H14A10246   5.170   1.365  10.844  1.3492  0.3594  1.9880
  102OSM   H14B10247   5.125   1.259  10.982  0.7276  0.5112  0.5783
  102OSM   H14C10248   5.071   1.420  10.968  0.5729 -0.9483  1.3695
  102OSM    C1310249   4.983   1.146  10.791 -0.2306 -0.4990 -0.1184
  102OSM   H13A10250   5.068   1.141  10.724 -1.4395  2.6355 -2.1450
  102OSM   H13B10251   4.894   1.116  10.737 -0.3673 -2.2060  0.9945
  102OSM   H13C10252   5.001   1.072  10.867  2.2886 -0.3988 -0.5547
  102OSM    C1210253   4.953   1.382  10.711 -0.5061  0.0188 -1.2020
  102OSM   H12A10254   4.945   1.480  10.754  1.0526  0.1908 -1.2478
  102OSM   H12B10255   4.853   1.380  10.669 -1.0885  0.1596  0.1446
  102OSM    C1110256   5.072   1.370  10.604 -0.0709  0.2942 -0.0448
  102OSM   H11A10257   5.039   1.415  10.509  1.5491  3.7223  0.8685
  102OSM   H11B10258   5.072   1.261  10.581  0.2634 -0.2173  2.1383
  102OSM      P10259   5.220   1.573  10.646 -0.1224  0.0723  0.1610
  102OSM    O1310260   5.119   1.648  10.721  0.0428  0.1077  0.1976
  102OSM    O1410261   5.358   1.609  10.685  0.2259  0.7805 -0.1558
  102OSM    O1110262   5.197   1.596  10.491 -0.4512 -0.5837 -0.4334
  102OSM    O1210263   5.197   1.415  10.652 -0.1049 -0.2475  0.2095
  102OSM    C1S10264   5.288   1.559  10.390  0.3950  0.0744 -0.1288
  102OSM    H1S10265   5.294   1.448  10.388  0.4853  0.0776 -0.0394
  102OSM    H1T10266   5.391   1.591  10.417  0.4294  2.8678 -3.0403
  102OSM     NF10267   5.350   1.579  10.157  0.2401  0.0601  0.7721
  102OSM    HNF10268   5.402   1.657  10.122 -1.5484  1.2582  0.6388
  102OSM    C2S10269   5.252   1.612  10.252 -0.1395  0.4303 -0.3944
  102OSM    H2S10270   5.156   1.562  10.230  1.0370 -1.4375 -1.5994
  102OSM    C3S10271   5.215   1.760  10.246  0.0106  0.6728  0.4304
  102OSM    H3S10272   5.309   1.816  10.260  0.4545  0.1354 -0.3149
  102OSM     O310273   5.137   1.809  10.356 -0.2544  0.4172 -0.0160
  102OSM    HO310274   5.125   1.733  10.413 -4.2431 -0.0723 -1.1796
  102OSM    C4S10275   5.159   1.799  10.107  0.4237 -0.8986  0.7058
  102OSM    H4S10276   5.236   1.827  10.034 -0.5293  1.2622  0.4428
  102OSM    C5S10277   5.027   1.794  10.074 -0.5276 -0.7637  0.2341
  102OSM    H5S10278   4.951   1.748  10.139 -1.0917 -0.4681 -0.2196
  102OSM    C6S10279   4.985   1.840   9.937  0.4420  0.1207  1.1071
  102OSM    H6S10280   4.932   1.936   9.956 -1.2009 -0.6577  0.6387
  102OSM    H6T10281   4.912   1.768   9.895  1.9238  0.1133 -1.7165
  102OSM    C7S10282   5.081   1.883   9.814 -0.2765 -0.2764 -0.7802
  102OSM    H7S10283   5.153   1.954   9.861 -1.0186  0.7615 -1.1753
  102OSM    H7T10284   5.009   1.930   9.744 -1.4011 -1.1674 -0.2386
  102OSM    C8S10285   5.161   1.769   9.752  0.1439  0.1975 -0.7821
  102OSM    H8S10286   5.092   1.683   9.743 -2.3779  1.8860  0.9076
  102OSM    H8T10287   5.243   1.740   9.821 -1.8311 -1.3146  1.0578
  102OSM    C9S10288   5.203   1.797   9.607 -0.1056 -0.2322 -0.3113
  102OSM    H9S10289   5.279   1.722   9.576 -0.1239 -0.1822 -0.4821
  102OSM    H9T10290   5.255   1.893   9.586 -0.1579 -0.8183 -3.6905
  102OSM   C10S10291   5.087   1.784   9.501 -0.1058 -0.6832  0.4134
  102OSM   H10S10292   5.002   1.844   9.539 -0.5379 -1.4458  0.6819
  102OSM   H10T10293   5.066   1.675   9.493 -0.2430 -0.7433  1.4683
  102OSM   C11S10294   5.126   1.849   9.366  0.3183  0.8472 -0.1218
  102OSM   H11S10295   5.155   1.953   9.391 -2.0338  1.7276 -0.7760
  102OSM   H11T10296   5.039   1.852   9.296  0.5438  1.6973 -0.3826
  102OSM   C12S10297   5.238   1.773   9.298 -0.4500 -0.5971 -0.1053
  102OSM   H12S10298   5.225   1.664   9.280  1.5653 -0.8468 -0.2362
  102OSM   H12T10299   5.330   1.773   9.361 -1.4426 -0.5990  1.4123
  102OSM   C13S10300   5.263   1.838   9.165  0.0891  0.1990 -0.0031
  102OSM   H13S10301   5.296   1.942   9.191  0.8754  0.5066 -2.0342
  102OSM   H13T10302   5.172   1.855   9.103 -1.2501  0.1291  1.8713
  102OSM   C14S10303   5.369   1.764   9.078 -0.4498 -0.6639  0.2023
  102OSM   H14S10304   5.313   1.694   9.012  0.3408 -0.0582 -1.1438
  102OSM   H14T10305   5.437   1.704   9.143 -2.7877 -1.6612  1.8642
  102OSM   C15S10306   5.456   1.863   9.001 -0.1142  0.4155  0.4874
  102OSM   H15S10307   5.549   1.812   8.970 -1.3194 -0.6399 -1.5360
  102OSM   H15T10308   5.473   1.956   9.060  1.7934  1.6895 -1.9258
  102OSM   C16S10309   5.391   1.912   8.872  0.1747 -0.5794  0.8204
  102OSM   H16S10310   5.299   1.970   8.893  0.0925 -0.6562  0.6737
  102OSM   H16T10311   5.354   1.828   8.809 -0.9365  0.9258 -0.6456
  102OSM   C17S10312   5.479   2.013   8.795  0.0395 -0.4040 -0.0485
  102OSM   H17S10313   5.573   1.961   8.767 -0.5122 -1.2388 -0.4036
  102OSM   H17T10314   5.500   2.087   8.876 -1.0189 -0.9300  0.7445
  102OSM   C18S10315   5.420   2.071   8.664  0.4100 -0.1102  0.6122
  102OSM   H18S10316   5.325   2.121   8.693  1.1701  0.6876  1.8540
  102OSM   H18T10317   5.386   1.992   8.594 -0.6752 -0.0041  0.9893
  102OSM   H18U10318   5.486   2.142   8.610 -0.3882  0.0205 -0.2114
  102OSM    C1F10319   5.394   1.461  10.117  0.5538  0.2061  0.5306
  102OSM     OF10320   5.374   1.352  10.168 -0.4556 -0.2823 -0.2614
  102OSM    C2F10321   5.466   1.459   9.985 -0.0099  0.4242  0.1983
  102OSM    H2F10322   5.568   1.502   9.993  0.3780 -0.1346 -1.3765
  102OSM    H2G10323   5.411   1.519   9.910 -0.4702  1.2538  1.1695
  102OSM    C3F10324   5.471   1.321   9.908 -0.1699  0.1738 -1.0188
  102OSM    H3F10325   5.368   1.279   9.906 -0.5302  0.8376  1.2814
  102OSM    H3G10326   5.533   1.261   9.977  1.0753  1.8648 -0.6008
  102OSM    C4F10327   5.530   1.328   9.768 -0.1851  0.8126  0.7150
  102OSM    H4F10328   5.536   1.225   9.726  0.1192  1.5879 -1.2284
  102OSM    H4G10329   5.629   1.378   9.776  1.5836 -2.5184  1.5930
  102OSM    C5F10330   5.442   1.407   9.670  0.2923 -0.2442  0.1568
  102OSM    H5F10331   5.435   1.510   9.709  1.2958 -0.5438  1.1859
  102OSM    H5G10332   5.342   1.359   9.661 -1.1217  2.4672  0.6019
  102OSM    C6F10333   5.493   1.405   9.525  0.1152  0.3554 -0.3173
  102OSM    H6F10334   5.506   1.300   9.493  1.0090 -0.1076  1.4658
  102OSM    H6G10335   5.597   1.440   9.540 -0.0529  0.2009  1.4362
  102OSM    C7F10336   5.403   1.483   9.430  0.1943 -0.2395 -0.1169
  102OSM    H7F10337   5.424   1.592   9.426 -2.5745  0.3386 -2.2604
  102OSM    H7G10338   5.293   1.486   9.447  0.4979  0.2908  2.0769
  102OSM    C8F10339   5.435   1.447   9.285 -1.4209 -0.1956 -0.5253
  102OSM    H8F10340   5.545   1.434   9.277 -1.7757 -3.0671 -2.1857
  102OSM    H8G10341   5.411   1.532   9.217  1.0358  0.6927 -0.3636
  102OSM    C9F10342   5.380   1.316   9.231  0.4099 -0.0367 -0.3195
  102OSM    H9F10343   5.387   1.232   9.303  1.1824  0.1485 -0.1694
  102OSM   C10F10344   5.335   1.290   9.109 -0.0169 -0.2705 -0.3636
  102OSM   H10F10345   5.292   1.190   9.092 -0.9735  0.1374 -0.4050
  102OSM   C11F10346   5.341   1.389   8.993  0.2356  0.8224  0.3062
  102OSM   H11F10347   5.369   1.492   9.025 -0.6591  1.6258 -1.3361
  102OSM   H11G10348   5.237   1.385   8.955  0.3278 -1.7297  0.1660
  102OSM   C12F10349   5.438   1.338   8.887 -1.1208  0.1151  0.4739
  102OSM   H12F10350   5.539   1.330   8.932  0.6887  1.0566 -3.0500
  102OSM   H12G10351   5.453   1.412   8.805 -2.4122  0.1365  0.2260
  102OSM   C13F10352   5.404   1.200   8.825 -0.2811  0.1162 -0.0819
  102OSM   H13F10353   5.432   1.117   8.893  1.3552 -1.2605 -2.2997
  102OSM   H13G10354   5.458   1.193   8.729 -0.9518  2.6280 -0.7181
  102OSM   C14F10355   5.259   1.186   8.791 -0.2640  0.3471  0.9122
  102OSM   H14F10356   5.213   1.284   8.765  0.2814  0.0632 -1.3092
  102OSM   H14G10357   5.213   1.146   8.884 -2.1717  1.1000  0.3425
  102OSM   C15F10358   5.228   1.105   8.667  0.8356  0.6184 -0.5522
  102OSM   H15F10359   5.270   1.003   8.678 -0.6712  0.2254  2.7876
  102OSM   H15G10360   5.274   1.142   8.573  0.9085 -0.2416 -0.8700
  102OSM   C16F10361   5.074   1.090   8.655  0.0203  0.3648  0.2110
  102OSM   H16F10362   5.017   1.185   8.662 -1.5600 -0.4991 -0.3649
  102OSM   H16G10363   5.033   1.026   8.736 -2.2374  0.2241 -0.9683
  102OSM   C17F10364   5.037   1.026   8.519 -0.3301  0.3727  0.0113
  102OSM   H17F10365   5.086   1.088   8.441  1.5779 -2.6935 -1.4693
  102OSM   H17G10366   4.927   1.035   8.512 -0.3841 -0.2435 -0.0472
  102OSM   C18F10367   5.078   0.877   8.503 -0.1476  0.0716 -0.5599
  102OSM   H18F10368   5.188   0.868   8.520 -0.3982  0.7272  1.7572
  102OSM   H18G10369   5.055   0.833   8.404 -0.0095 -1.5011  0.0832
  102OSM   H18H10370   5.019   0.822   8.579  0.0278 -0.0524 -0.5126
  103OSM      N10371   0.593   5.331  11.058  0.1626 -0.3580 -0.2179
  103OSM    C1510372   0.495   5.236  10.994  0.0286  0.0938  0.3029
  103OSM   H15A10373   0.514   5.135  11.030  1.8517  0.7945  1.4756
  103OSM   H15B10374   0.514   5.224  10.889  1.5720 -1.4698  0.6984
  103OSM   H15C10375   0.393   5.267  11.005  0.3574  1.8920 -1.3736
  103OSM    C1410376   0.570   5.340  11.209  0.4087 -0.5998 -0.0078
  103OSM   H14A10377   0.618   5.254  11.252  2.2317  0.0546 -0.6272
  103OSM   H14B10378   0.470   5.336  11.249  0.1143 -0.3970 -0.7223
  103OSM   H14C10379   0.628   5.420  11.254  0.4793 -0.6904  0.0652
  103OSM    C1310380   0.731   5.279  11.033  0.0812 -0.1331 -0.3986
  103OSM   H13A10381   0.799   5.350  11.079 -0.5225 -1.2085  2.3496
  103OSM   H13B10382   0.742   5.266  10.926 -0.9437 -1.0954 -0.4061
  103OSM   H13C10383   0.736   5.180  11.077 -0.0478  0.4046  0.8682
  103OSM    C1210384   0.571   5.470  11.004 -0.0470 -0.0413 -0.1320
  103OSM   H12A10385   0.617   5.549  11.062  0.2724 -1.4778  1.6567
  103OSM   H12B10386   0.468   5.498  11.020  0.2593  0.6016  0.8474
  103OSM    C1110387   0.610   5.491  10.858  0.2245  0.0233 -0.0280
  103OSM   H11A10388   0.563   5.580  10.811  2.3157  0.7211 -0.9177
  103OSM   H11B10389   0.576   5.401  10.803 -0.2812 -0.7940  1.5683
  103OSM      P10390   0.839   5.634  10.863 -0.3029  0.2926 -0.0697
  103OSM    O1310391   0.775   5.700  10.971  0.0943  0.3696  0.3496
  103OSM    O1410392   0.980   5.604  10.883  0.1287 -0.0050 -0.0271
  103OSM    O1110393   0.821   5.723  10.731 -0.4884  0.0362  0.0720
  103OSM    O1210394   0.754   5.498  10.838 -0.0675  0.1261  0.0262
  103OSM    C1S10395   0.906   5.695  10.615 -0.5691 -0.6036  0.3257
  103OSM    H1S10396   0.962   5.599  10.623 -0.3065 -0.4588  0.2089
  103OSM    H1T10397   0.978   5.779  10.607 -0.2123 -1.0374 -1.3536
  103OSM     NF10398   0.924   5.695  10.372  0.3705 -0.4905 -0.4424
  103OSM    HNF10399   0.927   5.775  10.313 -0.8200 -0.1888 -0.1183
  103OSM    C2S10400   0.822   5.697  10.480 -0.1903 -0.7938 -0.2077
  103OSM    H2S10401   0.768   5.600  10.479  1.6021 -1.8441  0.3342
  103OSM    C3S10402   0.729   5.817  10.470 -0.2176  0.4618  0.1868
  103OSM    H3S10403   0.790   5.909  10.466  1.5727 -0.6375  1.0189
  103OSM     O310404   0.637   5.831  10.576 -0.6831 -0.0956 -0.2070
  103OSM    HO310405   0.675   5.774  10.642 -0.9760 -0.4273 -0.3205
  103OSM    C4S10406   0.667   5.816  10.334  0.9922  0.1963  0.1636
  103OSM    H4S10407   0.724   5.865  10.253 -1.2919 -0.0609 -1.6966
  103OSM    C5S10408   0.552   5.753  10.301 -0.1483 -0.5622 -0.3451
  103OSM    H5S10409   0.497   5.706  10.384  1.2370  0.3373  1.1609
  103OSM    C6S10410   0.482   5.740  10.171  0.8152  0.7141  0.3236
  103OSM    H6S10411   0.396   5.811  10.170  1.6523  1.8192 -2.5458
  103OSM    H6T10412   0.438   5.642  10.148  2.9970  0.3816 -3.0604
  103OSM    C7S10413   0.567   5.762  10.037  0.3864  0.0721  0.2574
  103OSM    H7S10414   0.637   5.676  10.030  1.1079  0.6317  0.4615
  103OSM    H7T10415   0.617   5.861  10.042  0.0748  0.3516 -1.5598
  103OSM    C8S10416   0.490   5.785   9.904 -0.1782  0.5494 -0.7273
  103OSM    H8S10417   0.447   5.888   9.905  1.3213  1.1975 -0.7251
  103OSM    H8T10418   0.409   5.709   9.903  1.6426 -2.0006  4.9333
  103OSM    C9S10419   0.571   5.791   9.774  0.2206 -0.0943 -0.6230
  103OSM    H9S10420   0.658   5.726   9.797  0.6599  0.0524 -1.8045
  103OSM    H9T10421   0.612   5.894   9.769  1.8805 -0.7670 -1.5441
  103OSM   C10S10422   0.502   5.733   9.651  0.2111 -0.3562  0.5072
  103OSM   H10S10423   0.404   5.783   9.642  0.6743  0.4390 -0.2050
  103OSM   H10T10424   0.493   5.622   9.660 -0.3867 -0.3560 -0.0658
  103OSM   C11S10425   0.584   5.761   9.526  0.0212 -0.3853 -0.0908
  103OSM   H11S10426   0.681   5.707   9.534  0.4192  0.4472  0.9258
  103OSM   H11T10427   0.605   5.870   9.537  1.8297 -0.7693  0.5878
  103OSM   C12S10428   0.514   5.723   9.398  0.3465 -0.6636 -0.3356
  103OSM   H12S10429   0.420   5.783   9.391  1.2594  0.8084 -0.4698
  103OSM   H12T10430   0.476   5.619   9.409 -0.3532 -0.6340 -2.0823
  103OSM   C13S10431   0.610   5.745   9.282 -0.3491 -0.2928 -0.7754
  103OSM   H13S10432   0.712   5.709   9.307 -1.6861 -1.8666  3.0738
  103OSM   H13T10433   0.636   5.850   9.255  1.8948 -1.5066 -4.1293
  103OSM   C14S10434   0.547   5.669   9.161 -0.4704 -0.2169  0.3978
  103OSM   H14S10435   0.450   5.720   9.143 -1.5844 -1.5169  2.4692
  103OSM   H14T10436   0.532   5.561   9.180  0.8130 -0.4298  0.3117
  103OSM   C15S10437   0.635   5.692   9.037 -0.1064 -0.2174  0.0171
  103OSM   H15S10438   0.668   5.798   9.033  1.3748 -0.6634 -0.0489
  103OSM   H15T10439   0.564   5.677   8.953  0.7110  1.9816 -1.1248
  103OSM   C16S10440   0.758   5.597   9.042  1.0592 -0.6480  0.7020
  103OSM   H16S10441   0.731   5.502   9.093  0.9167 -1.4881 -0.8841
  103OSM   H16T10442   0.834   5.640   9.111  0.5694  1.8776 -0.2515
  103OSM   C17S10443   0.823   5.560   8.908 -0.0645  0.1058 -0.1601
  103OSM   H17S10444   0.765   5.481   8.855  2.9178 -2.3520 -0.0579
  103OSM   H17T10445   0.921   5.518   8.940  0.2088  0.1104 -0.9827
  103OSM   C18S10446   0.851   5.675   8.817  0.4076 -0.4934  0.2983
  103OSM   H18S10447   0.767   5.748   8.808  0.8293 -0.1232 -0.7300
  103OSM   H18T10448   0.878   5.643   8.714  2.0702  0.2751  0.4714
  103OSM   H18U10449   0.939   5.732   8.853 -0.8205  0.8626  1.2707
  103OSM    C1F10450   1.029   5.609  10.356 -0.2269  0.3930  0.2579
  103OSM     OF10451   1.049   5.511  10.428 -0.0626 -0.1729 -0.4960
  103OSM    C2F10452   1.137   5.646  10.258 -0.0295  0.0527  0.0207
  103OSM    H2F10453   1.237   5.636  10.305  0.2854  1.2134 -0.3544
  103OSM    H2G10454   1.123   5.751  10.223 -3.2384 -0.0039  0.8168
  103OSM    C3F10455   1.133   5.536  10.153  0.3159  0.1912  0.2786
  103OSM    H3F10456   1.039   5.534  10.094  0.2801 -0.0877  0.3468
  103OSM    H3G10457   1.141   5.437  10.202 -1.1633  0.3897  0.9563
  103OSM    C4F10458   1.239   5.553  10.045 -0.4466 -0.9754 -0.2077
  103OSM    H4F10459   1.333   5.594  10.088  0.0122 -2.7770  0.5836
  103OSM    H4G10460   1.188   5.630   9.983 -2.1924 -2.0322 -0.1522
  103OSM    C5F10461   1.275   5.425   9.964 -0.3339 -0.3493 -0.1395
  103OSM    H5F10462   1.186   5.360   9.949 -0.5958 -0.0457  0.0793
  103OSM    H5G10463   1.347   5.361  10.020  0.5563  2.1446  1.7587
  103OSM    C6F10464   1.324   5.457   9.820  0.2203  0.0624  0.1575
  103OSM    H6F10465   1.424   5.505   9.827  0.0316  0.3824  0.7570
  103OSM    H6G10466   1.253   5.523   9.766 -0.5583 -0.5695  0.3786
  103OSM    C7F10467   1.333   5.328   9.734 -0.0515  0.4990 -0.2207
  103OSM    H7F10468   1.234   5.284   9.758  0.0898  0.4217  0.2379
  103OSM    H7G10469   1.412   5.272   9.789  1.1584 -0.8605 -3.1360
  103OSM    C8F10470   1.364   5.346   9.586  0.0338  0.0853  0.3234
  103OSM    H8F10471   1.392   5.254   9.530 -0.4144  0.5570 -0.7131
  103OSM    H8G10472   1.452   5.412   9.568  0.0159 -0.0980 -0.5090
  103OSM    C9F10473   1.259   5.404   9.510  0.8495 -0.3338  0.4538
  103OSM    H9F10474   1.165   5.427   9.565  0.3412 -0.1637 -0.4701
  103OSM   C10F10475   1.259   5.410   9.376  0.5292  0.2839  0.7272
  103OSM   H10F10476   1.178   5.467   9.326 -1.0022 -1.9431  0.5065
  103OSM   C11F10477   1.381   5.387   9.292 -0.1087 -0.1780  0.0478
  103OSM   H11F10478   1.462   5.329   9.340 -0.7110 -0.8739  0.2534
  103OSM   H11G10479   1.415   5.489   9.262  1.6000 -0.2516  1.6087
  103OSM   C12F10480   1.332   5.301   9.170  0.1762  0.8171 -0.2571
  103OSM   H12F10481   1.249   5.354   9.119 -0.2991  0.3280 -0.0077
  103OSM   H12G10482   1.307   5.198   9.202  1.1045 -0.4369 -3.2062
  103OSM   C13F10483   1.450   5.288   9.073  0.3416 -0.4951  0.5361
  103OSM   H13F10484   1.468   5.179   9.062  2.2508 -0.3089  1.4376
  103OSM   H13G10485   1.544   5.319   9.124  1.5922 -3.3521  0.1470
  103OSM   C14F10486   1.428   5.351   8.936  0.2179 -0.0011  0.4898
  103OSM   H14F10487   1.334   5.312   8.890  0.7060 -0.6464  0.0120
  103OSM   H14G10488   1.509   5.323   8.865  1.8991  2.2441  1.3972
  103OSM   C15F10489   1.429   5.505   8.918 -0.6217 -0.1586 -0.0694
  103OSM   H15F10490   1.528   5.550   8.941 -1.6893  2.6320 -0.5403
  103OSM   H15G10491   1.359   5.544   8.995 -1.5538 -1.5737 -0.1570
  103OSM   C16F10492   1.384   5.557   8.785  0.1429  0.6010  0.6871
  103OSM   H16F10493   1.300   5.486   8.769 -0.2941  1.4556 -1.0808
  103OSM   H16G10494   1.458   5.541   8.704  0.9618  3.1974  0.8240
  103OSM   C17F10495   1.329   5.700   8.767 -0.2356  0.2566  0.1931
  103OSM   H17F10496   1.400   5.784   8.781 -2.4195  2.5381 -1.4971
  103OSM   H17G10497   1.239   5.720   8.828 -2.5014  0.3929 -2.9602
  103OSM   C18F10498   1.270   5.717   8.626  0.6176 -0.6122  0.0639
  103OSM   H18F10499   1.253   5.825   8.608  5.0620  0.2572 -0.1257
  103OSM   H18G10500   1.181   5.655   8.602 -0.1756  0.3412  0.4868
  103OSM   H18H10501   1.348   5.693   8.551  0.3909  1.2674 -0.8404
  104OSM      N10502   6.478   4.928  10.895  0.1172  0.5077 -0.0809
  104OSM    C1510503   6.402   4.909  11.021  0.0340  0.8146  0.6450
  104OSM   H15A10504   6.306   4.868  10.992 -1.6115  2.0813  3.8736
  104OSM   H15B10505   6.368   4.999  11.069  1.5242  1.0317  1.3467
  104OSM   H15C10506   6.452   4.838  11.085  0.1588  0.9855  0.7363
  104OSM    C1410507   6.492   4.792  10.835  0.3357  0.4615 -0.4294
  104OSM   H14A10508   6.540   4.726  10.907 -2.4149  0.8601  1.9443
  104OSM   H14B10509   6.542   4.795  10.739 -1.6346 -2.5175 -1.6825
  104OSM   H14C10510   6.391   4.754  10.832  0.7418 -0.6147 -1.1118
  104OSM    C1310511   6.404   5.024  10.805 -0.3832  0.2619  0.3289
  104OSM   H13A10512   6.394   5.124  10.845  2.2037  0.4677  0.6476
  104OSM   H13B10513   6.309   4.978  10.783  0.9654 -1.8212 -1.4609
  104OSM   H13C10514   6.457   5.026  10.712  2.5734  0.2844  1.9001
  104OSM    C1210515   6.611   4.978  10.932  0.1005  0.1212 -0.2315
  104OSM   H12A10516   6.654   4.911  11.006 -1.1338  0.5937  0.9625
  104OSM   H12B10517   6.593   5.073  10.981 -3.1352 -0.1321 -0.7330
  104OSM    C1110518   6.716   5.000  10.817  0.4600 -0.1181 -0.5629
  104OSM   H11A10519   6.710   5.107  10.788 -0.9681 -0.6162 -2.3372
  104OSM   H11B10520   6.686   4.948  10.724  0.2919  0.0186 -0.5857
  104OSM      P10521   6.900   4.828  10.858  0.3425  0.4103 -0.0763
  104OSM    O1310522   7.047   4.839  10.863  0.0325 -0.3564 -0.8486
  104OSM    O1410523   6.839   4.739  10.959  0.0063  0.1916  1.0625
  104OSM    O1110524   6.858   4.760  10.727  0.0659 -0.1719  0.4437
  104OSM    O1210525   6.846   4.971  10.863 -0.2563  0.0914  0.1640
  104OSM    C1S10526   6.931   4.794  10.603  0.2757  0.2428 -0.6881
  104OSM    H1S10527   7.040   4.782  10.619  0.0757 -0.2101  0.4455
  104OSM    H1T10528   6.906   4.896  10.568 -1.2354  0.3557  0.5920
  104OSM     NF10529   6.945   4.721  10.371  0.2177 -0.3591  0.4211
  104OSM    HNF10530   6.897   4.786  10.313  0.2687  1.0488  1.8809
  104OSM    C2S10531   6.877   4.696  10.494  0.4015  0.0945 -0.3171
  104OSM    H2S10532   6.906   4.595  10.531  0.6346 -0.7235 -2.5850
  104OSM    C3S10533   6.722   4.711  10.479 -1.1283  0.4369 -0.4776
  104OSM    H3S10534   6.699   4.818  10.458 -1.3940  0.9376  2.1056
  104OSM     O310535   6.640   4.668  10.590 -0.5931  0.3768 -0.1834
  104OSM    HO310536   6.701   4.657  10.663  0.1677 -1.7843 -1.0636
  104OSM    C4S10537   6.662   4.626  10.366 -0.1552 -0.2570  0.6179
  104OSM    H4S10538   6.684   4.519  10.375 -0.5647 -0.4190 -0.1979
  104OSM    C5S10539   6.592   4.666  10.262 -1.0275  0.2262  1.4104
  104OSM    H5S10540   6.583   4.773  10.238  1.1327  0.6742  2.3754
  104OSM    C6S10541   6.515   4.585  10.162 -0.2781  0.0068  0.6401
  104OSM    H6S10542   6.560   4.596  10.061  0.7914 -1.1206  0.9674
  104OSM    H6T10543   6.416   4.634  10.152 -0.1260  0.6778  2.2199
  104OSM    C7S10544   6.488   4.435  10.176  0.4872  0.5140  0.5993
  104OSM    H7S10545   6.463   4.417  10.283 -1.6156 -2.1022 -0.2028
  104OSM    H7T10546   6.568   4.363  10.149 -1.0537 -0.4306 -1.7742
  104OSM    C8S10547   6.350   4.393  10.118  0.5348  0.1021 -0.0173
  104OSM    H8S10548   6.270   4.468  10.137  0.4913  0.5594 -1.8091
  104OSM    H8T10549   6.325   4.305  10.181  0.4115 -0.4120 -0.7797
  104OSM    C9S10550   6.356   4.332   9.971  0.0154 -0.5072  0.2131
  104OSM    H9S10551   6.425   4.245   9.962 -1.3953 -1.6217 -0.2707
  104OSM    H9T10552   6.410   4.407   9.910 -0.5119 -0.5602 -0.3283
  104OSM   C10S10553   6.217   4.313   9.910  0.4463 -0.0950  0.9027
  104OSM   H10S10554   6.156   4.406   9.911 -0.8294 -0.8232 -1.1484
  104OSM   H10T10555   6.156   4.233   9.958  3.5269 -2.0261  1.9076
  104OSM   C11S10556   6.235   4.269   9.759 -0.6304  0.3287 -0.4094
  104OSM   H11S10557   6.253   4.164   9.729 -2.1209  0.7751 -3.2135
  104OSM   H11T10558   6.317   4.333   9.718 -1.0750 -0.8068 -3.2860
  104OSM   C12S10559   6.110   4.304   9.681  0.3918 -0.4353  0.1533
  104OSM   H12S10560   6.063   4.397   9.720  0.6579  0.0445 -0.6352
  104OSM   H12T10561   6.034   4.224   9.693 -0.8451  0.7661  0.6375
  104OSM   C13S10562   6.147   4.317   9.534  0.0366 -0.6259  0.6263
  104OSM   H13S10563   6.184   4.217   9.502  1.3440 -0.0733  0.3427
  104OSM   H13T10564   6.224   4.397   9.532 -1.3001  0.6958 -1.2577
  104OSM   C14S10565   6.030   4.350   9.442  0.2811 -0.5786 -0.3158
  104OSM   H14S10566   5.982   4.433   9.499 -1.7394 -1.1307 -1.1389
  104OSM   H14T10567   5.965   4.260   9.442  0.6974 -0.9102  1.1055
  104OSM   C15S10568   6.061   4.395   9.297 -0.1722 -0.2276  0.1034
  104OSM   H15S10569   6.101   4.498   9.299 -0.3417 -0.1773  1.5205
  104OSM   H15T10570   5.962   4.395   9.245 -0.3516  2.3359  0.3302
  104OSM   C16S10571   6.138   4.290   9.212 -0.2165  0.3381 -0.9257
  104OSM   H16S10572   6.065   4.208   9.196  0.8137 -1.1022  1.1616
  104OSM   H16T10573   6.224   4.243   9.264 -2.7823 -1.6722  1.9038
  104OSM   C17S10574   6.186   4.344   9.081  0.3768  0.1013  0.1582
  104OSM   H17S10575   6.242   4.270   9.021 -1.5084 -0.6202 -0.7882
  104OSM   H17T10576   6.252   4.433   9.084 -1.7967  1.8071  0.0630
  104OSM   C18S10577   6.071   4.379   8.984  0.1655  0.2240  0.1794
  104OSM   H18S10578   6.003   4.293   8.967  0.9272 -0.7032  1.6502
  104OSM   H18T10579   6.109   4.414   8.885 -0.9464  2.3121  0.4403
  104OSM   H18U10580   6.010   4.460   9.028  0.5491 -0.3254  1.7792
  104OSM    C1F10581   7.078   4.706  10.369 -0.3503 -0.0378  0.5885
  104OSM     OF10582   7.140   4.642  10.451  0.5809 -0.2415 -0.1171
  104OSM    C2F10583   7.148   4.763  10.249  0.3703 -0.5302 -0.9048
  104OSM    H2F10584   7.119   4.870  10.251  1.8685 -0.0704 -1.8065
  104OSM    H2G10585   7.102   4.724  10.155 -2.3193 -0.8367  0.4569
  104OSM    C3F10586   7.301   4.762  10.256  0.0191  0.4890 -0.3194
  104OSM    H3F10587   7.348   4.665  10.286 -1.3561 -0.5785 -1.5045
  104OSM    H3G10588   7.319   4.831  10.342  1.2228 -2.3857  1.9410
  104OSM    C4F10589   7.373   4.814  10.134  0.0006 -0.8997 -0.7719
  104OSM    H4F10590   7.380   4.733  10.058  1.4018 -0.9513 -0.6034
  104OSM    H4G10591   7.470   4.849  10.174 -2.2124  2.4439  2.2784
  104OSM    C5F10592   7.309   4.942  10.068  0.1732 -0.3232  0.1073
  104OSM    H5F10593   7.299   5.022  10.144  2.5065 -0.4321  0.6247
  104OSM    H5G10594   7.214   4.913  10.018  0.3623  1.7555 -1.6115
  104OSM    C6F10595   7.402   5.001   9.962 -0.2597 -0.8719  0.0498
  104OSM    H6F10596   7.491   5.043  10.012  2.4643 -0.9696 -4.2179
  104OSM    H6G10597   7.347   5.085   9.914  1.1946 -0.2216 -0.5558
  104OSM    C7F10598   7.458   4.903   9.854  0.3792 -0.6944 -0.2617
  104OSM    H7F10599   7.377   4.843   9.810 -1.4271 -0.6726  2.7797
  104OSM    H7G10600   7.523   4.831   9.908 -0.6295 -3.2146 -2.2292
  104OSM    C8F10601   7.529   4.980   9.744  0.2463 -0.1858 -0.3967
  104OSM    H8F10602   7.621   5.030   9.779 -0.7722  0.9299  0.8122
  104OSM    H8G10603   7.467   5.062   9.700  1.0913  2.1683  2.5099
  104OSM    C9F10604   7.578   4.877   9.647  0.2286 -0.6798  0.9580
  104OSM    H9F10605   7.648   4.804   9.691  0.0128 -3.7443 -3.2260
  104OSM   C10F10606   7.550   4.875   9.515  0.1224  0.4735 -0.2614
  104OSM   H10F10607   7.595   4.795   9.454 -1.9829 -0.9507 -0.0457
  104OSM   C11F10608   7.459   4.968   9.441  0.8014  0.5226 -0.3182
  104OSM   H11F10609   7.491   4.988   9.336  1.7070  3.0308  0.3499
  104OSM   H11G10610   7.444   5.070   9.484  1.2129  1.4905 -2.3642
  104OSM   C12F10611   7.309   4.915   9.433  0.2438  0.2057  0.2311
  104OSM   H12F10612   7.242   4.985   9.380  0.4449 -0.6727 -1.2438
  104OSM   H12G10613   7.276   4.894   9.537 -0.4023 -1.4199 -0.2713
  104OSM   C13F10614   7.301   4.784   9.351  0.2803 -0.5520  0.2202
  104OSM   H13F10615   7.377   4.709   9.382 -0.8760 -2.0170 -0.3917
  104OSM   H13G10616   7.325   4.813   9.246 -1.3724 -2.9705 -0.9052
  104OSM   C14F10617   7.163   4.713   9.345  0.8363 -0.5480 -0.2993
  104OSM   H14F10618   7.089   4.791   9.317  1.0867 -0.2622 -0.1753
  104OSM   H14G10619   7.122   4.681   9.443  0.3982  0.4182 -0.1571
  104OSM   C15F10620   7.144   4.603   9.235  0.5830 -0.1250 -0.7937
  104OSM   H15F10621   7.036   4.584   9.219 -0.0924  3.1419 -0.8235
  104OSM   H15G10622   7.197   4.509   9.263  2.1054  0.0529 -2.8463
  104OSM   C16F10623   7.206   4.638   9.096  0.3214 -0.3485  0.6039
  104OSM   H16F10624   7.316   4.643   9.111  0.3945  1.3645 -0.3213
  104OSM   H16G10625   7.175   4.737   9.058  1.8228 -0.0491  0.0950
  104OSM   C17F10626   7.179   4.524   8.994 -0.5843 -0.2531  0.2389
  104OSM   H17F10627   7.070   4.505   8.991 -0.5626 -0.8876  2.1191
  104OSM   H17G10628   7.216   4.426   9.031 -0.4779 -0.6269 -0.8064
  104OSM   C18F10629   7.231   4.542   8.848  0.1481  0.8417 -0.1829
  104OSM   H18F10630   7.342   4.542   8.836  0.2583  0.4313  0.7818
  104OSM   H18G10631   7.194   4.641   8.813  0.0961  1.1106  0.6066
  104OSM   H18H10632   7.187   4.456   8.794 -0.9775  1.0665  0.3508
  105OSM      N10633   4.455   2.056  10.747  0.9135  0.6694  0.5636
  105OSM    C1510634   4.515   2.120  10.631 -0.0805 -0.8134 -0.5238
  105OSM   H15A10635   4.462   2.208  10.595 -1.0087 -0.8713  0.6226
  105OSM   H15B10636   4.508   2.047  10.552 -1.4240  0.2687 -1.4573
  105OSM   H15C10637   4.619   2.144  10.643 -0.2060 -0.5611  0.1276
  105OSM    C1410638   4.553   1.950  10.792 -0.0933  0.1537  0.5368
  105OSM   H14A10639   4.637   2.003  10.836  1.1346 -1.4380  0.2019
  105OSM   H14B10640   4.584   1.878  10.718  2.9777 -0.7579  2.5082
  105OSM   H14C10641   4.517   1.891  10.875  1.3162 -0.5757  0.6614
  105OSM    C1310642   4.437   2.144  10.862  0.7928 -0.5292 -0.0086
  105OSM   H13A10643   4.531   2.195  10.879 -0.1852  0.7500  1.9044
  105OSM   H13B10644   4.395   2.098  10.951 -0.4665 -0.1973 -0.4087
  105OSM   H13C10645   4.371   2.224  10.831  2.2263  0.0870 -1.6275
  105OSM    C1210646   4.331   1.978  10.703 -0.4402 -0.0158 -0.2807
  105OSM   H12A10647   4.258   2.056  10.684  2.4911  3.5489  1.8432
  105OSM   H12B10648   4.305   1.912  10.784  1.3938 -2.2013 -1.3897
  105OSM    C1110649   4.336   1.894  10.575  0.0780 -0.2996  0.6402
  105OSM   H11A10650   4.325   1.963  10.489 -0.1816 -2.5330 -1.2185
  105OSM   H11B10651   4.238   1.841  10.576  0.2776 -0.6830  1.4058
  105OSM      P10652   4.432   1.648  10.554  0.1740  0.1572 -0.0043
  105OSM    O1310653   4.562   1.589  10.519 -0.2236 -0.2159  0.0367
  105OSM    O1410654   4.369   1.609  10.684  0.1100 -0.2931  0.0866
  105OSM    O1110655   4.318   1.625  10.446  0.8916 -0.1678 -0.7984
  105OSM    O1210656   4.456   1.811  10.558 -0.1036  0.0517  0.4750
  105OSM    C1S10657   4.337   1.672  10.315 -0.1756 -0.7852  0.3090
  105OSM    H1S10658   4.409   1.756  10.307 -0.1771 -0.9228 -1.5260
  105OSM    H1T10659   4.239   1.703  10.272  0.4646 -1.3010 -1.6346
  105OSM     NF10660   4.409   1.638  10.091 -0.3291  0.1259  0.1439
  105OSM    HNF10661   4.344   1.630  10.016 -0.9306 -1.9039  0.8419
  105OSM    C2S10662   4.380   1.563  10.213 -0.0952 -0.3177  0.7079
  105OSM    H2S10663   4.470   1.510  10.250  0.7129  0.3357 -0.2798
  105OSM    C3S10664   4.276   1.453  10.199 -0.3843  0.1319 -0.6033
  105OSM    H3S10665   4.181   1.507  10.181 -0.9380 -1.1302 -1.6433
  105OSM     O310666   4.235   1.392  10.326 -0.6167  0.2859 -0.2669
  105OSM    HO310667   4.256   1.457  10.394  1.7309  0.1023 -0.7172
  105OSM    C4S10668   4.305   1.359  10.092  0.5215  1.1116  0.3475
  105OSM    H4S10669   4.265   1.392   9.995 -0.0466 -0.3319  0.0733
  105OSM    C5S10670   4.360   1.233  10.097 -0.0926 -0.5884 -0.8378
  105OSM    H5S10671   4.390   1.187  10.192 -0.1009  0.6734 -0.2044
  105OSM    C6S10672   4.364   1.143   9.978 -0.6390 -0.2403 -0.2332
  105OSM    H6S10673   4.319   1.048  10.014  1.5948 -0.6834  1.6566
  105OSM    H6T10674   4.470   1.110   9.964 -0.7577 -0.0589 -1.6455
  105OSM    C7S10675   4.316   1.203   9.852  0.0552  0.2719 -0.2062
  105OSM    H7S10676   4.370   1.297   9.828  2.0024 -0.2727  1.7348
  105OSM    H7T10677   4.208   1.230   9.856  0.3375  1.5566 -0.7277
  105OSM    C8S10678   4.343   1.114   9.726  0.2980  0.2001  0.4692
  105OSM    H8S10679   4.292   1.016   9.738  0.2993 -0.2927 -2.6765
  105OSM    H8T10680   4.452   1.093   9.722 -0.0514 -1.7874  0.0542
  105OSM    C9S10681   4.295   1.178   9.599 -0.4049 -0.2145  0.1637
  105OSM    H9S10682   4.347   1.274   9.575 -0.7684 -0.5795 -2.4075
  105OSM    H9T10683   4.187   1.205   9.599 -0.8871 -1.9665 -0.9628
  105OSM   C10S10684   4.324   1.086   9.480 -0.0339  0.0425 -0.5627
  105OSM   H10S10685   4.259   0.997   9.495 -1.4200  0.4799 -3.3178
  105OSM   H10T10686   4.432   1.062   9.480 -0.1162 -0.3306 -0.6645
  105OSM   C11S10687   4.272   1.135   9.339 -0.3020  0.0679 -0.5902
  105OSM   H11S10688   4.337   1.223   9.319 -0.0556 -0.1633 -0.8267
  105OSM   H11T10689   4.163   1.152   9.341 -0.4802 -0.9713 -0.8688
  105OSM   C12S10690   4.312   1.031   9.228 -0.1787 -0.8586 -0.4243
  105OSM   H12S10691   4.278   0.940   9.282 -1.9459  0.3364  0.5822
  105OSM   H12T10692   4.423   1.037   9.227 -0.0580  0.0377  3.1005
  105OSM   C13S10693   4.230   1.041   9.103  0.1917  0.1815 -0.8096
  105OSM   H13S10694   4.223   1.139   9.050  0.9880 -0.0575 -1.3749
  105OSM   H13T10695   4.124   1.020   9.130  0.7833 -0.1202  1.4278
  105OSM   C14S10696   4.280   0.936   9.005 -0.2056  0.9487  0.1370
  105OSM   H14S10697   4.202   0.925   8.926  0.9009 -0.4402 -0.8097
  105OSM   H14T10698   4.283   0.844   9.067  0.3421  0.1433 -1.0441
  105OSM   C15S10699   4.401   0.996   8.934 -0.1202 -0.1861  0.2970
  105OSM   H15S10700   4.478   1.025   9.009  0.8899  1.4819 -1.2836
  105OSM   H15T10701   4.364   1.095   8.898  0.9550  1.4752  3.3377
  105OSM   C16S10702   4.450   0.915   8.814 -0.0810 -0.3709 -0.4382
  105OSM   H16S10703   4.365   0.879   8.753  0.3876 -1.0706 -0.6876
  105OSM   H16T10704   4.515   0.833   8.854 -2.6406 -2.9479 -1.2197
  105OSM   C17S10705   4.539   0.992   8.712 -0.0795 -0.3599  0.4385
  105OSM   H17S10706   4.493   1.092   8.699  0.5028  0.3457  3.1689
  105OSM   H17T10707   4.525   0.926   8.624  0.9650 -0.9365  0.6835
  105OSM   C18S10708   4.685   0.980   8.744  0.3382  0.5733 -0.0244
  105OSM   H18S10709   4.698   0.871   8.762  0.3490  0.7817  1.3322
  105OSM   H18T10710   4.706   1.035   8.838  2.3883  1.1438 -0.7668
  105OSM   H18U10711   4.756   1.007   8.662  0.3151 -1.0236 -0.5999
  105OSM    C1F10712   4.506   1.728  10.086 -1.2296  0.4625 -0.1718
  105OSM     OF10713   4.600   1.727  10.167 -0.3443 -0.0053 -0.2608
  105OSM    C2F10714   4.489   1.833   9.984  0.5512 -0.2238  0.2775
  105OSM    H2F10715   4.481   1.935  10.027  0.0514  0.9285 -2.3562
  105OSM    H2G10716   4.399   1.806   9.925 -0.1867  0.4504  1.0717
  105OSM    C3F10717   4.598   1.835   9.878 -0.7229  0.1644 -0.1385
  105OSM    H3F10718   4.611   1.737   9.827  1.6938 -1.0112  2.3890
  105OSM    H3G10719   4.691   1.859   9.935 -0.1614 -0.3762 -0.8100
  105OSM    C4F10720   4.576   1.937   9.767 -0.1284  0.3417  0.2956
  105OSM    H4F10721   4.578   2.038   9.814 -0.7333  0.2723  0.4749
  105OSM    H4G10722   4.481   1.913   9.715  0.8661  0.7136 -1.7790
  105OSM    C5F10723   4.681   1.936   9.650 -1.0141 -0.4348  0.1365
  105OSM    H5F10724   4.697   1.830   9.621  1.7630  0.6394 -2.8445
  105OSM    H5G10725   4.783   1.975   9.669 -0.9117  0.3051 -1.6820
  105OSM    C6F10726   4.640   2.004   9.521  0.2549  0.2201 -0.1840
  105OSM    H6F10727   4.616   2.112   9.531  0.2652  0.2604 -0.5664
  105OSM    H6G10728   4.546   1.960   9.481  1.0540 -1.4257 -0.3278
  105OSM    C7F10729   4.741   1.985   9.405 -0.0595  0.4669  1.2223
  105OSM    H7F10730   4.757   1.878   9.383 -1.6964  0.4422 -0.0783
  105OSM    H7G10731   4.838   2.026   9.441 -0.5782  2.3228  0.6578
  105OSM    C8F10732   4.691   2.055   9.279 -0.1048 -0.5774  0.1796
  105OSM    H8F10733   4.773   2.078   9.208 -2.4759  0.1952 -2.5000
  105OSM    H8G10734   4.665   2.160   9.306 -2.4698 -0.0739 -3.3737
  105OSM    C9F10735   4.575   1.981   9.211 -0.3687 -0.0270 -0.2116
  105OSM    H9F10736   4.479   1.988   9.263  0.2602  0.0030  0.9864
  105OSM   C10F10737   4.585   1.908   9.093  0.0144  0.3830 -0.2818
  105OSM   H10F10738   4.488   1.870   9.056  0.7763 -2.2373  0.2400
  105OSM   C11F10739   4.700   1.896   9.001 -0.4377 -0.1384 -0.0644
  105OSM   H11F10740   4.791   1.935   9.050 -1.8345  2.5214  0.6524
  105OSM   H11G10741   4.684   1.972   8.922  1.6239  0.7576  0.3204
  105OSM   C12F10742   4.713   1.753   8.956 -0.3881  0.5286 -0.1509
  105OSM   H12F10743   4.617   1.727   8.906 -0.1433 -1.8099  0.4956
  105OSM   H12G10744   4.718   1.682   9.041 -0.8252  0.4997 -0.1503
  105OSM   C13F10745   4.830   1.726   8.860 -0.2753  0.1211 -0.0790
  105OSM   H13F10746   4.832   1.810   8.787 -1.1618 -0.1379 -0.4109
  105OSM   H13G10747   4.799   1.634   8.806  0.3054 -0.5844  0.7656
  105OSM   C14F10748   4.964   1.700   8.912 -0.6586  0.5824 -0.6243
  105OSM   H14F10749   4.960   1.610   8.976  0.2220  0.6714 -0.4394
  105OSM   H14G10750   5.000   1.785   8.974 -1.0642  1.4725 -1.5593
  105OSM   C15F10751   5.078   1.695   8.807  0.2150  0.0479  0.4930
  105OSM   H15F10752   5.181   1.676   8.845  1.3663  1.5951 -1.6534
  105OSM   H15G10753   5.083   1.796   8.760 -0.3082 -0.1345  0.0426
  105OSM   C16F10754   5.052   1.579   8.707 -0.1023  0.4421 -0.6893
  105OSM   H16F10755   4.954   1.605   8.662 -0.6829  1.5639  1.1050
  105OSM   H16G10756   5.034   1.487   8.766  0.7661 -0.2224 -1.4346
  105OSM   C17F10757   5.155   1.553   8.600 -0.3366 -0.3509 -0.1340
  105OSM   H17F10758   5.236   1.509   8.661 -2.7963 -2.0138  2.1998
  105OSM   H17G10759   5.194   1.642   8.546 -1.4575 -0.2374 -0.7896
  105OSM   C18F10760   5.100   1.453   8.500  0.2515  0.5336  0.5812
  105OSM   H18F10761   5.041   1.380   8.558 -0.4894  0.9182  0.3342
  105OSM   H18G10762   5.180   1.406   8.439  1.9329  1.2084  2.2016
  105OSM   H18H10763   5.024   1.497   8.432 -0.7107 -1.0206  0.6064
  106OSM      N10764   3.008   1.687  10.727 -0.2798  0.1266 -0.3592
  106OSM    C1510765   2.980   1.547  10.691 -0.6655  0.1672 -0.0497
  106OSM   H15A10766   2.952   1.546  10.587  2.8211  1.3192 -1.1432
  106OSM   H15B10767   2.901   1.510  10.756 -1.7394 -1.1752 -2.0103
  106OSM   H15C10768   3.064   1.481  10.703 -0.9222 -0.1481  0.0217
  106OSM    C1410769   2.873   1.745  10.750 -0.3403  0.3704 -0.1755
  106OSM   H14A10770   2.878   1.853  10.741 -1.6551  0.4712  0.1401
  106OSM   H14B10771   2.822   1.721  10.842  0.1373  0.4720  0.1225
  106OSM   H14C10772   2.807   1.717  10.669 -0.1513 -1.0693  0.1339
  106OSM    C1310773   3.086   1.686  10.859 -0.2708  0.5293  0.2090
  106OSM   H13A10774   3.117   1.783  10.894  2.3241 -0.6785  1.5377
  106OSM   H13B10775   3.179   1.631  10.848  0.2496  1.1194  1.3967
  106OSM   H13C10776   3.032   1.633  10.937  0.4208 -2.2465 -1.0503
  106OSM    C1210777   3.096   1.756  10.623  0.5416  0.4993 -0.2366
  106OSM   H12A10778   3.182   1.696  10.598 -0.1938 -0.2754 -0.9805
  106OSM   H12B10779   3.118   1.854  10.664  0.5398  0.0185  0.9349
  106OSM    C1110780   3.031   1.772  10.484 -0.3158 -0.0763  0.7753
  106OSM   H11A10781   3.100   1.844  10.436 -0.2478 -0.4915  0.2508
  106OSM   H11B10782   2.930   1.819  10.494 -0.1813  0.2488  0.6115
  106OSM      P10783   3.154   1.585  10.346  0.1169 -0.2664 -0.3611
  106OSM    O1310784   3.263   1.569  10.448 -0.3505  0.3468  0.3819
  106OSM    O1410785   3.110   1.469  10.274  0.0341 -0.1807  0.6108
  106OSM    O1110786   3.194   1.700  10.248 -0.2708 -0.2516 -0.4144
  106OSM    O1210787   3.024   1.648  10.412  0.2004 -0.1854  0.0031
  106OSM    C1S10788   3.317   1.701  10.177 -0.5520  0.5912  0.1488
  106OSM    H1S10789   3.374   1.607  10.192 -2.0530 -0.1802  1.2745
  106OSM    H1T10790   3.383   1.779  10.220  0.0952  0.5923 -0.8120
  106OSM     NF10791   3.442   1.674   9.967  0.6703 -0.6965 -0.7265
  106OSM    HNF10792   3.508   1.747   9.952 -0.8976  0.4192 -2.5749
  106OSM    C2S10793   3.316   1.717  10.023 -0.0978 -0.5739  0.2908
  106OSM    H2S10794   3.235   1.656   9.977  1.7765 -1.8900 -1.3958
  106OSM    C3S10795   3.283   1.875   9.992 -0.1352 -0.2636  0.0244
  106OSM    H3S10796   3.380   1.925  10.014  0.4064  0.0474 -2.7116
  106OSM     O310797   3.183   1.941  10.071  0.1582  0.1366  0.4282
  106OSM    HO310798   3.159   1.874  10.136 -3.1230  1.8403  1.2377
  106OSM    C4S10799   3.258   1.901   9.849  0.7430 -0.0903 -0.6025
  106OSM    H4S10800   3.345   1.935   9.790  1.2989 -2.3672 -1.2063
  106OSM    C5S10801   3.145   1.885   9.776  0.2516  0.7802  0.2647
  106OSM    H5S10802   3.050   1.849   9.819 -0.1601  2.1144  0.5071
  106OSM    C6S10803   3.151   1.914   9.628  0.4658  0.6375  0.3770
  106OSM    H6S10804   3.244   1.970   9.604  0.2248  1.1256  0.5650
  106OSM    H6T10805   3.062   1.970   9.590  0.0827 -0.3590 -0.2351
  106OSM    C7S10806   3.164   1.780   9.542 -0.4696  0.2196 -0.2970
  106OSM    H7S10807   3.083   1.708   9.566 -0.8378  0.6510 -0.2098
  106OSM    H7T10808   3.261   1.731   9.561  0.5146  1.9373 -0.7010
  106OSM    C8S10809   3.152   1.807   9.389 -0.0079  0.5405  0.6086
  106OSM    H8S10810   3.239   1.868   9.358  0.1042  0.2123  0.2702
  106OSM    H8T10811   3.059   1.862   9.368  1.1792  2.3524 -0.1695
  106OSM    C9S10812   3.155   1.672   9.313  0.1723  0.4465 -0.5538
  106OSM    H9S10813   3.082   1.601   9.357 -1.9699  1.5275 -2.1652
  106OSM    H9T10814   3.255   1.625   9.328  0.0130 -0.6970 -2.6014
  106OSM   C10S10815   3.131   1.675   9.159  0.0119  0.7420 -0.6239
  106OSM   H10S10816   3.216   1.732   9.115  0.2999  0.0066 -1.0439
  106OSM   H10T10817   3.037   1.731   9.141 -1.3155 -1.0868  0.1912
  106OSM   C11S10818   3.116   1.538   9.091  0.2023 -0.2298  0.4293
  106OSM   H11S10819   3.034   1.469   9.123  0.4979 -1.4096 -1.2162
  106OSM   H11T10820   3.213   1.490   9.117  0.4372 -0.2283 -0.4253
  106OSM   C12S10821   3.108   1.555   8.939  1.0010  0.2316  0.2167
  106OSM   H12S10822   3.176   1.630   8.894 -1.5805  1.1848 -2.3840
  106OSM   H12T10823   3.008   1.596   8.913  0.6239  0.0474  1.2979
  106OSM   C13S10824   3.134   1.421   8.872  0.2939  0.2626  0.2401
  106OSM   H13S10825   3.048   1.358   8.903  0.4694  1.4250  3.5610
  106OSM   H13T10826   3.230   1.385   8.915  1.0521 -2.2640 -3.1279
  106OSM   C14S10827   3.158   1.439   8.720 -0.0116 -0.1161  0.3332
  106OSM   H14S10828   3.252   1.497   8.706  0.0534 -0.5548 -1.3602
  106OSM   H14T10829   3.083   1.507   8.675 -1.3224 -2.1506 -0.7107
  106OSM   C15S10830   3.164   1.313   8.640 -0.7503 -0.1267 -0.3649
  106OSM   H15S10831   3.066   1.263   8.657 -2.2807  3.0971  1.1913
  106OSM   H15T10832   3.245   1.250   8.682 -1.0770 -0.6745 -0.5473
  106OSM   C16S10833   3.185   1.330   8.486  0.1653 -0.0475  0.0920
  106OSM   H16S10834   3.083   1.362   8.455 -0.1848 -0.9246  0.3322
  106OSM   H16T10835   3.205   1.233   8.437  1.5711  0.3446 -0.1549
  106OSM   C17S10836   3.273   1.444   8.437 -0.1768 -0.2068  0.0954
  106OSM   H17S10837   3.362   1.454   8.503  1.0103  1.3498 -1.6470
  106OSM   H17T10838   3.219   1.540   8.446  1.5600  0.8339 -0.0227
  106OSM   C18S10839   3.323   1.432   8.297  0.3003 -0.0731 -0.0836
  106OSM   H18S10840   3.406   1.361   8.278 -0.1683 -1.0281  1.2666
  106OSM   H18T10841   3.358   1.527   8.252 -1.0229  2.0350  2.9780
  106OSM   H18U10842   3.242   1.396   8.229 -0.2717  0.2854  0.4002
  106OSM    C1F10843   3.475   1.548   9.960 -0.4440  0.1443 -0.3408
  106OSM     OF10844   3.392   1.454   9.989  0.2373 -0.1267 -0.0046
  106OSM    C2F10845   3.620   1.508   9.930  0.0041 -0.3365  0.0882
  106OSM    H2F10846   3.664   1.467  10.023 -1.6232  0.5492  1.2980
  106OSM    H2G10847   3.679   1.601   9.911  0.4772  0.1787  3.5038
  106OSM    C3F10848   3.634   1.394   9.822  0.4791  0.2192 -0.2585
  106OSM    H3F10849   3.585   1.300   9.857  0.4852 -0.1412 -1.1828
  106OSM    H3G10850   3.739   1.362   9.808  1.6711  3.1703  1.0382
  106OSM    C4F10851   3.569   1.428   9.686  0.4515 -0.8425  0.2486
  106OSM    H4F10852   3.458   1.416   9.688  0.0836  1.7844  2.3859
  106OSM    H4G10853   3.608   1.357   9.611  1.0746  0.4393 -0.6769
  106OSM    C5F10854   3.599   1.574   9.649 -0.2751  0.6067 -0.7005
  106OSM    H5F10855   3.706   1.595   9.668 -0.0869 -1.5233  1.0605
  106OSM    H5G10856   3.544   1.650   9.708 -0.1943 -1.4390  2.1910
  106OSM    C6F10857   3.581   1.607   9.501  0.1677  0.6606  0.0754
  106OSM    H6F10858   3.479   1.582   9.463  0.9094 -1.8051 -0.5144
  106OSM    H6G10859   3.651   1.534   9.455  0.3395 -0.3594  1.8782
  106OSM    C7F10860   3.615   1.749   9.470 -0.2257 -0.4060  0.1982
  106OSM    H7F10861   3.723   1.760   9.497  0.7245 -0.2322 -3.1492
  106OSM    H7G10862   3.548   1.807   9.537  1.9856  0.9580  1.3610
  106OSM    C8F10863   3.605   1.805   9.327 -0.2379  0.0000 -0.2049
  106OSM    H8F10864   3.654   1.905   9.331  2.7645 -1.3677 -0.3291
  106OSM    H8G10865   3.499   1.813   9.294 -0.0228  0.4074 -0.8308
  106OSM    C9F10866   3.703   1.729   9.232 -0.1075 -0.1421 -0.3125
  106OSM    H9F10867   3.807   1.760   9.249 -0.7671  1.3396  1.3019
  106OSM   C10F10868   3.673   1.629   9.144  0.1745  0.0277  0.2234
  106OSM   H10F10869   3.748   1.579   9.082  0.2411 -0.2353  0.5141
  106OSM   C11F10870   3.528   1.588   9.115 -0.3730  0.2404  0.2038
  106OSM   H11F10871   3.469   1.647   9.042  0.5513  1.9129  0.7660
  106OSM   H11G10872   3.465   1.582   9.206 -0.1928  1.5299  0.4288
  106OSM   C12F10873   3.526   1.440   9.062  0.7547 -0.0877  0.0229
  106OSM   H12F10874   3.418   1.416   9.074  0.0134  3.0983  0.6742
  106OSM   H12G10875   3.589   1.390   9.138  0.4630  1.1744  1.1362
  106OSM   C13F10876   3.572   1.431   8.917  0.5454  0.0009  0.0851
  106OSM   H13F10877   3.669   1.486   8.909  1.2200 -1.2722 -0.7734
  106OSM   H13G10878   3.502   1.471   8.841  0.3853 -0.0946  0.1825
  106OSM   C14F10879   3.608   1.288   8.867 -0.0270  0.1280  0.2643
  106OSM   H14F10880   3.541   1.215   8.918  1.8168 -1.4134  0.6193
  106OSM   H14G10881   3.714   1.268   8.893  0.1614  2.0684  1.1096
  106OSM   C15F10882   3.605   1.286   8.716 -0.7558 -0.1112  0.4882
  106OSM   H15F10883   3.645   1.380   8.672 -0.0433 -0.7737 -0.3080
  106OSM   H15G10884   3.497   1.288   8.691 -0.1145  0.0985 -2.6128
  106OSM   C16F10885   3.691   1.163   8.662  0.0817 -0.3686  0.3064
  106OSM   H16F10886   3.662   1.062   8.698  1.7346 -1.6241 -1.6643
  106OSM   H16G10887   3.789   1.188   8.707  0.0138  1.4099 -0.4512
  106OSM   C17F10888   3.708   1.164   8.511  0.1571 -0.7748 -0.3059
  106OSM   H17F10889   3.790   1.098   8.473  0.8521  0.8923 -1.8110
  106OSM   H17G10890   3.737   1.260   8.464  0.6770 -1.2840 -1.0451
  106OSM   C18F10891   3.576   1.127   8.453  0.0303 -0.6345  0.9082
  106OSM   H18F10892   3.549   1.031   8.503 -0.8249 -0.5501  0.6286
  106OSM   H18G10893   3.587   1.109   8.344  0.3737 -3.2306  1.3139
  106OSM   H18H10894   3.510   1.215   8.467  1.7691  1.1368 -1.3030
  107OSM      N10895   5.485   5.123  10.485 -0.3317 -0.0771  0.0088
  107OSM    C1510896   5.525   5.237  10.567 -0.4560  0.0106  0.1938
  107OSM   H15A10897   5.633   5.237  10.577 -0.3551 -1.7362 -0.4116
  107OSM   H15B10898   5.491   5.238  10.670  2.9797 -3.1401  1.6081
  107OSM   H15C10899   5.501   5.333  10.524 -0.0305 -1.1525 -2.9059
  107OSM    C1410900   5.549   5.141  10.350  0.2585 -0.8611  0.0119
  107OSM   H14A10901   5.656   5.151  10.346  0.2729 -0.9238  0.2509
  107OSM   H14B10902   5.514   5.231  10.301  1.6417  0.1139  0.7820
  107OSM   H14C10903   5.531   5.055  10.287  0.2396 -1.6553  1.0728
  107OSM    C1310904   5.536   4.991  10.539  0.3032 -0.6800  0.3332
  107OSM   H13A10905   5.514   4.904  10.480 -1.6191 -1.1113  1.6135
  107OSM   H13B10906   5.499   4.980  10.640 -0.0375 -2.4188  0.0371
  107OSM   H13C10907   5.643   4.997  10.555 -0.0466 -0.1995  3.0130
  107OSM    C1210908   5.332   5.114  10.473 -0.0004  0.9679  0.0670
  107OSM   H12A10909   5.293   5.063  10.560  2.3622  1.1772  1.3191
  107OSM   H12B10910   5.315   5.049  10.388 -1.6129  0.4626  0.7300
  107OSM    C1110911   5.257   5.244  10.455 -0.0479  0.0203 -0.1343
  107OSM   H11A10912   5.157   5.217  10.414 -0.2858  0.4337  0.1684
  107OSM   H11B10913   5.301   5.313  10.381 -1.1777 -1.9587 -2.8128
  107OSM      P10914   5.226   5.469  10.584 -0.4548 -0.1040  0.5773
  107OSM    O1310915   5.165   5.512  10.704 -0.0943  0.7381  0.0687
  107OSM    O1410916   5.368   5.511  10.552 -0.0186  0.8453 -0.0930
  107OSM    O1110917   5.133   5.511  10.459 -0.2697  0.1868  0.3127
  107OSM    O1210918   5.226   5.305  10.584 -0.2869 -0.3879 -0.0033
  107OSM    C1S10919   5.157   5.621  10.379 -0.4080  0.8347 -0.1224
  107OSM    H1S10920   5.225   5.696  10.424 -2.0442  1.3005  1.6921
  107OSM    H1T10921   5.059   5.672  10.392 -0.1460  0.8267  2.2492
  107OSM     NF10922   5.231   5.695  10.163  0.4463  0.6017  0.2484
  107OSM    HNF10923   5.175   5.720  10.085 -1.1454  0.8292  1.4040
  107OSM    C2S10924   5.198   5.581  10.234  0.5647  0.3160 -0.5684
  107OSM    H2S10925   5.288   5.515  10.233  1.6420  1.6472 -3.3081
  107OSM    C3S10926   5.085   5.496  10.164 -0.2638 -0.0393  0.0069
  107OSM    H3S10927   4.992   5.556  10.168  0.5199  1.1692  0.5050
  107OSM     O310928   5.074   5.367  10.230 -0.2582 -0.2708  0.1746
  107OSM    HO310929   5.109   5.389  10.316 -0.1139  1.4741 -0.2950
  107OSM    C4S10930   5.123   5.464  10.019  0.0167  0.0429 -0.5789
  107OSM    H4S10931   5.218   5.409  10.009  0.6048  0.3674  2.3130
  107OSM    C5S10932   5.064   5.510   9.908  0.1258  0.7764  0.2168
  107OSM    H5S10933   4.981   5.582   9.909  0.1218  0.8024  2.3754
  107OSM    C6S10934   5.105   5.469   9.769 -1.3475 -0.2013  0.0611
  107OSM    H6S10935   5.017   5.418   9.725 -0.9224 -1.5127  0.6819
  107OSM    H6T10936   5.188   5.394   9.765 -1.5305 -0.3641 -1.1649
  107OSM    C7S10937   5.153   5.588   9.679  0.5867  0.4875 -0.1574
  107OSM    H7S10938   5.240   5.639   9.724  1.2966  0.8768 -1.9040
  107OSM    H7T10939   5.080   5.669   9.658  0.5176  0.1560 -1.2539
  107OSM    C8S10940   5.194   5.523   9.547  0.6957 -0.7297  0.7016
  107OSM    H8S10941   5.099   5.476   9.514  0.3370 -0.9832  2.0605
  107OSM    H8T10942   5.260   5.437   9.571 -0.1706 -1.4808  0.4656
  107OSM    C9S10943   5.255   5.613   9.436 -0.1338  1.0488  0.2100
  107OSM    H9S10944   5.354   5.649   9.472  1.2760 -1.8749 -0.4901
  107OSM    H9T10945   5.184   5.698   9.438 -1.9651 -0.4165  2.7181
  107OSM   C10S10946   5.252   5.557   9.290 -0.2600  0.5506 -0.7208
  107OSM   H10S10947   5.185   5.472   9.265 -0.3283  0.2377  0.4643
  107OSM   H10T10948   5.354   5.520   9.265 -0.7833 -1.1100 -0.5396
  107OSM   C11S10949   5.227   5.663   9.183 -0.3404 -0.9836 -0.6083
  107OSM   H11S10950   5.292   5.753   9.194  0.2599 -1.4046 -0.6374
  107OSM   H11T10951   5.126   5.709   9.193  0.3947  0.9252 -1.5238
  107OSM   C12S10952   5.262   5.615   9.042  0.1797  0.2039  0.1658
  107OSM   H12S10953   5.185   5.540   9.011  1.9254 -0.7798 -2.1404
  107OSM   H12T10954   5.358   5.559   9.044  2.4572  3.7286 -1.6569
  107OSM   C13S10955   5.293   5.723   8.935  0.3140  0.9746  0.6001
  107OSM   H13S10956   5.403   5.740   8.929  0.3515  0.6677  0.3899
  107OSM   H13T10957   5.236   5.809   8.974 -2.4897 -0.1009 -0.8864
  107OSM   C14S10958   5.234   5.713   8.797  0.2480  0.0338  0.7342
  107OSM   H14S10959   5.170   5.802   8.775  0.3224  0.1724  1.0686
  107OSM   H14T10960   5.170   5.623   8.797  2.1311 -1.3627 -0.2289
  107OSM   C15S10961   5.338   5.691   8.685 -0.1578  0.1636  0.0665
  107OSM   H15S10962   5.407   5.607   8.708  0.9272  0.8139 -0.7455
  107OSM   H15T10963   5.407   5.777   8.672  1.2501 -1.1657 -1.7921
  107OSM   C16S10964   5.266   5.647   8.557 -0.2594 -0.1774 -0.1512
  107OSM   H16S10965   5.182   5.716   8.539 -0.4185 -0.2653  0.2354
  107OSM   H16T10966   5.224   5.545   8.572  2.0920 -1.4173 -1.4272
  107OSM   C17S10967   5.350   5.643   8.427  0.0290 -0.2412  0.3640
  107OSM   H17S10968   5.452   5.600   8.441  0.4569  0.3221 -0.9116
  107OSM   H17T10969   5.357   5.749   8.394 -3.1188  0.5983  1.9729
  107OSM   C18S10970   5.276   5.575   8.316  0.0223 -0.1626 -0.0052
  107OSM   H18S10971   5.296   5.465   8.312 -1.0782 -0.4138  1.0870
  107OSM   H18T10972   5.322   5.595   8.216  1.7400 -2.5029  0.2194
  107OSM   H18U10973   5.166   5.591   8.319  0.1102  0.4333  0.0839
  107OSM    C1F10974   5.335   5.768  10.186 -0.1021 -0.4157 -0.4768
  107OSM     OF10975   5.435   5.723  10.240  0.7801 -0.2650  0.0585
  107OSM    C2F10976   5.325   5.916  10.155 -0.0047  0.2990 -0.5402
  107OSM    H2F10977   5.358   5.983  10.238  0.2567 -0.6329  0.1229
  107OSM    H2G10978   5.221   5.944  10.130  0.2822  0.5527 -1.4809
  107OSM    C3F10979   5.430   5.954  10.056 -0.4054 -0.0710 -0.2834
  107OSM    H3F10980   5.530   5.925  10.096  0.0053 -1.3565 -2.1153
  107OSM    H3G10981   5.424   6.065  10.046 -1.3754 -0.1989 -1.2756
  107OSM    C4F10982   5.412   5.878   9.924 -0.1211  0.2947 -0.5080
  107OSM    H4F10983   5.318   5.916   9.878 -0.6236  0.5688  0.7223
  107OSM    H4G10984   5.409   5.769   9.943  2.2053  0.1764 -0.5797
  107OSM    C5F10985   5.529   5.904   9.824  0.4926  0.4547  0.3018
  107OSM    H5F10986   5.615   5.846   9.863  0.0784 -1.4806 -1.5031
  107OSM    H5G10987   5.559   6.011   9.836 -0.2160  0.6071  0.8091
  107OSM    C6F10988   5.497   5.889   9.674  0.3459  0.1071 -0.1811
  107OSM    H6F10989   5.393   5.927   9.663 -1.3314 -3.3182  2.0562
  107OSM    H6G10990   5.495   5.779   9.665  0.4672  0.0636  0.3080
  107OSM    C7F10991   5.587   5.945   9.564  0.3868 -0.0008  0.0067
  107OSM    H7F10992   5.689   5.910   9.589  0.1548 -1.3952 -0.8855
  107OSM    H7G10993   5.593   6.055   9.547 -0.1633  0.1744  0.8523
  107OSM    C8F10994   5.553   5.895   9.417  0.2231 -0.9838 -0.8234
  107OSM    H8F10995   5.458   5.948   9.392 -1.0020 -2.3776  0.6368
  107OSM    H8G10996   5.523   5.788   9.426 -0.2636 -0.7803  0.0972
  107OSM    C9F10997   5.659   5.921   9.319  0.0559  0.2155  0.3714
  107OSM    H9F10998   5.731   5.839   9.309  3.2172  2.5614  1.9475
  107OSM   C10F10999   5.679   6.027   9.236  0.1569 -0.2624 -0.0010
  107OSM   H10F11000   5.755   6.010   9.158 -1.5446 -1.2220 -1.5134
  107OSM   C11F11001   5.595   6.155   9.229 -0.0440 -0.4045 -0.5822
  107OSM   H11F11002   5.645   6.230   9.294  0.0797  0.2392 -1.4044
  107OSM   H11G11003   5.493   6.143   9.272 -0.6339 -0.2417 -1.8848
  107OSM   C12F11004   5.570   6.193   9.082 -0.3427  0.6160  0.3553
  107OSM   H12F11005   5.672   6.195   9.038 -0.6238  0.4690 -0.3137
  107OSM   H12G11006   5.540   6.299   9.068 -0.2492  0.4620 -1.1665
  107OSM   C13F11007   5.467   6.108   9.002 -0.0148 -0.2768 -0.0674
  107OSM   H13F11008   5.378   6.082   9.063  0.2488  0.5118  0.6672
  107OSM   H13G11009   5.513   6.010   8.977 -1.9118 -0.9207 -1.2827
  107OSM   C14F11010   5.432   6.178   8.865  0.6511  0.8567  0.7751
  107OSM   H14F11011   5.524   6.222   8.821  1.0924  0.7101  1.5442
  107OSM   H14G11012   5.367   6.256   8.910  1.5207 -0.7924  5.4258
  107OSM   C15F11013   5.360   6.084   8.763 -0.3443 -0.5011  0.1062
  107OSM   H15F11014   5.273   6.034   8.811  0.1676 -1.8898 -0.3589
  107OSM   H15G11015   5.428   5.999   8.741  0.0478 -0.2123  0.2018
  107OSM   C16F11016   5.314   6.153   8.637  0.2172  0.9797  0.2811
  107OSM   H16F11017   5.399   6.191   8.575  3.6089 -3.9868  1.2254
  107OSM   H16G11018   5.243   6.237   8.647 -0.0375  0.8937 -0.7027
  107OSM   C17F11019   5.247   6.044   8.543 -0.6365 -0.3026  0.2867
  107OSM   H17F11020   5.173   5.993   8.608 -1.1445 -0.0750 -0.1086
  107OSM   H17G11021   5.324   5.964   8.534  0.7269  0.6577  2.5265
  107OSM   C18F11022   5.197   6.104   8.413 -0.7388  0.1147 -0.5874
  107OSM   H18F11023   5.124   6.185   8.437  1.8662  2.5790 -0.4662
  107OSM   H18G11024   5.149   6.026   8.350 -1.2234  2.1425 -2.9038
  107OSM   H18H11025   5.286   6.150   8.364  0.1901 -0.3815  0.5831
  108OSM      N11026   3.232   0.995  10.435  0.3587 -0.5087  0.2475
  108OSM    C1511027   3.223   0.912  10.307 -0.6202 -0.4477  0.3181
  108OSM   H15A11028   3.228   0.807  10.332 -0.6064 -1.0443 -1.9533
  108OSM   H15B11029   3.303   0.934  10.239 -0.7955 -2.3253 -0.5626
  108OSM   H15C11030   3.117   0.906  10.285 -1.0586  0.5690  1.9533
  108OSM    C1411031   3.228   1.139  10.395 -0.4037  0.7680  0.2606
  108OSM   H14A11032   3.327   1.165  10.362  0.0794 -2.0044 -0.7048
  108OSM   H14B11033   3.193   1.208  10.471 -1.9196 -0.9402  1.1976
  108OSM   H14C11034   3.156   1.157  10.317  0.7772  0.0969 -1.0283
  108OSM    C1311035   3.117   0.965  10.520  0.5148 -0.3569 -0.6635
  108OSM   H13A11036   3.111   1.021  10.612 -3.3868  0.2409 -1.0847
  108OSM   H13B11037   3.118   0.862  10.552  0.2553 -0.0230  0.4600
  108OSM   H13C11038   3.028   0.993  10.465 -0.0722  2.6197  1.5445
  108OSM    C1211039   3.366   0.965  10.504  0.6941 -0.8395 -0.0067
  108OSM   H12A11040   3.384   1.046  10.572  2.1676  0.6683 -2.0627
  108OSM   H12B11041   3.444   0.961  10.429 -0.2768  2.1312 -1.3524
  108OSM    C1111042   3.377   0.834  10.580  0.1996 -0.0375  0.3087
  108OSM   H11A11043   3.321   0.847  10.675  0.8321 -2.1648  1.0240
  108OSM   H11B11044   3.481   0.826  10.619  0.9338  1.8140 -1.1067
  108OSM      P11045   3.239   0.610  10.542  0.3757  0.0746  0.0380
  108OSM    O1311046   3.308   0.487  10.576 -0.1234 -0.0357 -0.3245
  108OSM    O1411047   3.128   0.660  10.630 -0.6127  0.2512 -0.3025
  108OSM    O1111048   3.174   0.591  10.401 -0.5193 -0.1060  0.5948
  108OSM    O1211049   3.343   0.722  10.500  0.2191 -0.0368 -0.4647
  108OSM    C1S11050   3.042   0.626  10.366  0.0756 -0.7302  0.7969
  108OSM    H1S11051   3.014   0.732  10.385 -0.5514 -0.2673 -2.2891
  108OSM    H1T11052   2.965   0.562  10.414 -1.5951 -1.0454 -2.0726
  108OSM     NF11053   2.887   0.656  10.176  0.5977  0.0824  0.1745
  108OSM    HNF11054   2.832   0.583  10.134  2.1866  0.9988 -4.0620
  108OSM    C2S11055   3.024   0.630  10.214 -0.1013 -0.0075  0.0043
  108OSM    H2S11056   3.077   0.709  10.158 -0.3120  1.1093  1.3206
  108OSM    C3S11057   3.062   0.490  10.157 -0.4845 -0.1098  0.4788
  108OSM    H3S11058   2.987   0.413  10.183 -1.6923 -0.7872 -4.1130
  108OSM     O311059   3.180   0.420  10.201 -0.2627  0.1484  0.3258
  108OSM    HO311060   3.202   0.478  10.275 -0.8740 -0.7145  1.2182
  108OSM    C4S11061   3.064   0.502  10.002  0.1609  0.0246  0.0291
  108OSM    H4S11062   2.962   0.494   9.962  0.1714 -1.8294  0.2809
  108OSM    C5S11063   3.171   0.507   9.919 -0.5572 -0.7259  0.3267
  108OSM    H5S11064   3.273   0.507   9.961  0.2598  1.8656 -1.3978
  108OSM    C6S11065   3.168   0.531   9.770 -1.0966 -0.4391  0.0026
  108OSM    H6S11066   3.237   0.462   9.716 -1.2500 -0.0064 -0.7646
  108OSM    H6T11067   3.212   0.631   9.748  2.1221 -1.4448  1.1874
  108OSM    C7S11068   3.028   0.520   9.707 -0.4936 -0.3340  0.1311
  108OSM    H7S11069   2.958   0.568   9.778  1.0344 -0.3726  1.7255
  108OSM    H7T11070   2.991   0.415   9.703 -1.9005  0.1726 -2.0635
  108OSM    C8S11071   3.008   0.566   9.567 -1.4730 -0.1359  0.4438
  108OSM    H8S11072   3.057   0.501   9.492  0.6172  1.2483  0.5247
  108OSM    H8T11073   3.051   0.669   9.561  0.7378 -0.9691  1.3276
  108OSM    C9S11074   2.853   0.573   9.527 -0.1530 -0.1709  0.0552
  108OSM    H9S11075   2.819   0.656   9.591  1.4731  1.3668 -0.9621
  108OSM    H9T11076   2.813   0.470   9.543 -0.2981 -0.5793 -2.5282
  108OSM   C10S11077   2.839   0.628   9.385  0.4348 -0.0445 -0.0202
  108OSM   H10S11078   2.904   0.566   9.319 -0.6869 -1.9488  0.5907
  108OSM   H10T11079   2.872   0.734   9.382 -1.0153  0.5354  2.3084
  108OSM   C11S11080   2.693   0.605   9.326 -0.1053  0.0964  0.3825
  108OSM   H11S11081   2.619   0.631   9.404 -1.6304 -2.5444 -0.0814
  108OSM   H11T11082   2.676   0.497   9.306 -0.8899  0.4137 -0.8045
  108OSM   C12S11083   2.676   0.681   9.194 -0.5984  0.1304 -0.4475
  108OSM   H12S11084   2.762   0.652   9.130  1.6252  1.0440  1.9494
  108OSM   H12T11085   2.681   0.790   9.214  0.0549 -0.1673  1.1605
  108OSM   C13S11086   2.547   0.648   9.115 -0.7809 -0.0537 -0.5151
  108OSM   H13S11087   2.455   0.692   9.159  0.2744  1.2903  0.4298
  108OSM   H13T11088   2.549   0.537   9.121  1.7566 -0.0113  0.8989
  108OSM   C14S11089   2.555   0.695   8.972 -0.7115  0.6394  0.3398
  108OSM   H14S11090   2.638   0.649   8.916  0.6295  0.8241  2.0883
  108OSM   H14T11091   2.565   0.805   8.985  0.4288  0.5919 -0.0473
  108OSM   C15S11092   2.440   0.656   8.882 -0.0318 -0.0215  0.7293
  108OSM   H15S11093   2.339   0.680   8.922  0.2357 -1.5869  2.4989
  108OSM   H15T11094   2.437   0.546   8.867  0.3588 -0.2686  2.2919
  108OSM   C16S11095   2.454   0.728   8.745 -0.0738 -0.1924  0.2406
  108OSM   H16S11096   2.519   0.678   8.671  0.0197 -1.5526  1.1970
  108OSM   H16T11097   2.498   0.829   8.760  1.2983 -0.9786  1.8774
  108OSM   C17S11098   2.320   0.758   8.675  0.2734 -0.4866 -0.7073
  108OSM   H17S11099   2.267   0.845   8.720  0.6203 -0.6304 -0.0146
  108OSM   H17T11100   2.253   0.669   8.682  0.6899 -0.6859  1.3790
  108OSM   C18S11101   2.329   0.789   8.522  0.5475  0.6238 -0.2819
  108OSM   H18S11102   2.233   0.819   8.474  2.3116  1.8825 -3.2826
  108OSM   H18T11103   2.370   0.699   8.472 -2.1656 -1.0113  0.2026
  108OSM   H18U11104   2.391   0.879   8.501 -1.3073  1.8621 -0.6958
  108OSM    C1F11105   2.828   0.774  10.195 -0.5078 -0.3487 -0.0608
  108OSM     OF11106   2.893   0.865  10.245 -0.4956  0.1524 -0.2686
  108OSM    C2F11107   2.679   0.787  10.182 -0.9527  0.6420 -0.2636
  108OSM    H2F11108   2.646   0.831  10.278  0.7002  2.9867 -0.6709
  108OSM    H2G11109   2.632   0.687  10.171 -0.2536  0.2757  0.0235
  108OSM    C3F11110   2.639   0.878  10.071 -0.0845  0.8681  0.1810
  108OSM    H3F11111   2.664   0.981  10.105  0.0508  0.4261  1.4497
  108OSM    H3G11112   2.530   0.868  10.051 -0.1598 -1.3379  1.4397
  108OSM    C4F11113   2.702   0.849   9.933  0.3842 -0.3936  0.3081
  108OSM    H4F11114   2.811   0.871   9.926  0.7466 -2.2515 -0.3572
  108OSM    H4G11115   2.655   0.908   9.852  0.6322 -0.1258  0.3570
  108OSM    C5F11116   2.682   0.702   9.883  0.5220 -0.1673  0.0543
  108OSM    H5F11117   2.726   0.627   9.953  0.7675  1.0910  1.2825
  108OSM    H5G11118   2.734   0.689   9.786 -0.3726  0.0090 -0.4559
  108OSM    C6F11119   2.533   0.667   9.868 -0.6015 -0.5720  0.7297
  108OSM    H6F11120   2.492   0.713   9.775 -0.7581 -2.5294 -0.2328
  108OSM    H6G11121   2.467   0.693   9.953 -0.4035  1.0995  0.4061
  108OSM    C7F11122   2.516   0.523   9.822  0.3407  0.7683  0.0541
  108OSM    H7F11123   2.561   0.442   9.883 -1.8033 -0.3825  0.1900
  108OSM    H7G11124   2.574   0.518   9.728 -0.5146 -0.1672 -0.4364
  108OSM    C8F11125   2.367   0.489   9.801 -0.4519  0.5904 -0.0675
  108OSM    H8F11126   2.318   0.571   9.743 -1.7227  0.9802  1.4746
  108OSM    H8G11127   2.312   0.480   9.898 -0.5309  0.2066 -0.1455
  108OSM    C9F11128   2.353   0.359   9.731  0.1509 -0.0580 -0.2994
  108OSM    H9F11129   2.393   0.276   9.790 -1.6733  0.4695  1.8433
  108OSM   C10F11130   2.306   0.340   9.604 -0.0281  0.6375 -0.0320
  108OSM   H10F11131   2.299   0.242   9.556  1.8485  0.2550  0.3815
  108OSM   C11F11132   2.249   0.446   9.519 -0.5120 -0.7015 -0.2996
  108OSM   H11F11133   2.330   0.522   9.516 -0.0676 -0.8657  3.0745
  108OSM   H11G11134   2.164   0.501   9.566  1.9944  2.4965  0.8657
  108OSM   C12F11135   2.213   0.407   9.380 -0.1589  0.1626 -0.5393
  108OSM   H12F11136   2.150   0.316   9.375  0.4869 -0.3611  0.4911
  108OSM   H12G11137   2.311   0.387   9.332  0.0881  2.2623 -1.0375
  108OSM   C13F11138   2.135   0.521   9.302 -0.6181  0.2905  0.7089
  108OSM   H13F11139   2.212   0.602   9.303 -0.4992  0.2082 -0.3715
  108OSM   H13G11140   2.045   0.546   9.361 -2.4764 -2.7571 -0.6101
  108OSM   C14F11141   2.097   0.495   9.157  0.1988 -0.0047  0.4108
  108OSM   H14F11142   2.040   0.400   9.152  1.1156 -0.5686  0.3972
  108OSM   H14G11143   2.185   0.465   9.097  0.7276 -1.1309  1.7055
  108OSM   C15F11144   2.026   0.607   9.094  0.5656  0.5109 -0.7044
  108OSM   H15F11145   2.097   0.692   9.089 -0.2723  1.3116  0.4417
  108OSM   H15G11146   1.945   0.642   9.161  0.5184  2.7977 -1.8484
  108OSM   C16F11147   1.976   0.578   8.950  0.4328 -0.1735  0.0088
  108OSM   H16F11148   1.901   0.497   8.953  0.9112 -0.5900  0.9475
  108OSM   H16G11149   2.067   0.553   8.891 -0.2596  0.0222 -1.1737
  108OSM   C17F11150   1.920   0.701   8.875 -0.5115  0.6860 -0.6017
  108OSM   H17F11151   1.865   0.663   8.786 -1.3331  1.4126 -0.4117
  108OSM   H17G11152   2.009   0.762   8.848 -0.4553  0.5695 -0.6820
  108OSM   C18F11153   1.819   0.787   8.953 -0.2975  0.3254 -0.5336
  108OSM   H18F11154   1.777   0.862   8.883 -0.8890 -1.2108 -1.8648
  108OSM   H18G11155   1.862   0.844   9.039 -0.8753  1.6980 -1.1212
  108OSM   H18H11156   1.743   0.723   9.002  2.1819 -1.4925  1.1778
  109OSM      N11157   0.293   3.485  10.886 -0.0523 -0.0938  0.8388
  109OSM    C1511158   0.149   3.540  10.879  0.2032  0.4136  0.1433
  109OSM   H15A11159   0.152   3.643  10.913  0.1015  0.6191 -0.4502
  109OSM   H15B11160   0.084   3.494  10.952  0.7333  0.9445  0.9671
  109OSM   H15C11161   0.103   3.539  10.782  0.5884 -0.7698 -0.0410
  109OSM    C1411162   0.331   3.478  11.034 -0.2995  0.8756 -0.5411
  109OSM   H14A11163   0.428   3.445  11.069 -0.2446  1.2772 -0.3106
  109OSM   H14B11164   0.256   3.412  11.075 -0.4824  1.5659  0.2670
  109OSM   H14C11165   0.320   3.568  11.092  2.2980 -0.0971  1.7285
  109OSM    C1311166   0.271   3.357  10.820 -0.1336  0.0018 -0.5241
  109OSM   H13A11167   0.234   3.364  10.718  0.4544  2.1330 -0.6317
  109OSM   H13B11168   0.203   3.292  10.872  0.5497 -0.7864 -0.5958
  109OSM   H13C11169   0.363   3.303  10.834 -0.4808  0.2994  4.3997
  109OSM    C1211170   0.396   3.571  10.813  0.8738  0.1145  0.4684
  109OSM   H12A11171   0.360   3.575  10.711 -2.5261  0.2483  1.5635
  109OSM   H12B11172   0.495   3.527  10.813  0.7677 -0.2049 -1.3124
  109OSM    C1111173   0.433   3.723  10.850 -0.1872  0.5173  0.2364
  109OSM   H11A11174   0.504   3.757  10.773 -1.6060 -0.8821 -1.7795
  109OSM   H11B11175   0.486   3.717  10.948 -2.0970 -0.4861  1.2761
  109OSM      P11176   0.282   3.898  10.737  0.0190  0.1695 -0.1940
  109OSM    O1311177   0.141   3.883  10.701  0.4802 -0.0214 -0.0310
  109OSM    O1411178   0.330   4.036  10.772 -0.1379 -0.5397  0.3342
  109OSM    O1111179   0.359   3.844  10.609  0.4893  0.1937  0.7184
  109OSM    O1211180   0.316   3.807  10.856 -0.2313 -0.3265 -0.6636
  109OSM    C1S11181   0.339   3.926  10.482  0.1970  0.1568 -0.3230
  109OSM    H1S11182   0.411   4.011  10.482  1.2058 -0.6724  0.3752
  109OSM    H1T11183   0.235   3.965  10.477 -0.3562 -1.3711 -2.3757
  109OSM     NF11184   0.350   3.940  10.225  0.5305 -0.3124  0.3030
  109OSM    HNF11185   0.265   3.938  10.172  0.1402 -1.5129  0.9302
  109OSM    C2S11186   0.353   3.852  10.344 -0.6462 -0.3608  0.7214
  109OSM    H2S11187   0.454   3.805  10.349 -0.8780 -0.8988  0.5101
  109OSM    C3S11188   0.246   3.744  10.341 -0.3322 -0.0689  0.7607
  109OSM    H3S11189   0.149   3.786  10.373 -2.0795 -1.8561 -1.7983
  109OSM     O311190   0.269   3.638  10.436  0.0968 -0.5863 -0.0701
  109OSM    HO311191   0.310   3.682  10.511  1.4664  0.5010 -1.3962
  109OSM    C4S11192   0.224   3.684  10.202 -0.3594 -0.4927 -0.0884
  109OSM    H4S11193   0.312   3.668  10.139  1.1595  2.3029  1.1254
  109OSM    C5S11194   0.104   3.634  10.154  0.0793 -0.8897 -0.1682
  109OSM    H5S11195   0.018   3.640  10.222  0.9877 -1.9159  1.1131
  109OSM    C6S11196   0.071   3.571  10.017 -0.3285 -0.2180 -0.3566
  109OSM    H6S11197  -0.001   3.639   9.966  0.2586  1.0591  0.4594
  109OSM    H6T11198   0.040   3.468  10.044  0.0958 -0.0492  0.8480
  109OSM    C7S11199   0.198   3.561   9.925  0.3173 -0.1368  0.0169
  109OSM    H7S11200   0.283   3.506   9.970  2.2259  1.3827 -1.5383
  109OSM    H7T11201   0.231   3.663   9.897 -0.0400 -0.0757 -0.1939
  109OSM    C8S11202   0.158   3.498   9.795  0.1606  0.2809  0.6142
  109OSM    H8S11203   0.070   3.547   9.748 -0.5111 -1.0605  0.4069
  109OSM    H8T11204   0.125   3.396   9.824  1.6783  0.2082  2.2665
  109OSM    C9S11205   0.270   3.480   9.696  0.4543  0.7351 -0.3243
  109OSM    H9S11206   0.333   3.392   9.722 -1.2292  0.0874  1.9961
  109OSM    H9T11207   0.336   3.568   9.708 -0.3093  1.1494  1.1069
  109OSM   C10S11208   0.225   3.467   9.550 -0.2099 -0.1012 -0.3462
  109OSM   H10S11209   0.141   3.395   9.544  0.2654 -0.5589 -2.2367
  109OSM   H10T11210   0.309   3.421   9.494  0.4699  0.9923 -0.2649
  109OSM   C11S11211   0.166   3.605   9.492 -0.3285 -0.3211  0.2171
  109OSM   H11S11212   0.219   3.686   9.547  2.5272 -1.7014 -0.2931
  109OSM   H11T11213   0.058   3.627   9.502 -0.0617  0.9170  0.4765
  109OSM   C12S11214   0.212   3.624   9.344 -0.1136  0.0491  0.1574
  109OSM   H12S11215   0.230   3.519   9.313  0.3431  0.7140 -2.0750
  109OSM   H12T11216   0.312   3.672   9.349  1.0760 -2.3778  1.0900
  109OSM   C13S11217   0.118   3.707   9.255  0.5127 -0.1005  0.8628
  109OSM   H13S11218   0.143   3.809   9.288 -0.8773  0.4750  0.2362
  109OSM   H13T11219   0.018   3.669   9.285  0.4584  0.7217  1.7361
  109OSM   C14S11220   0.141   3.681   9.106  0.1579  0.6449  0.0364
  109OSM   H14S11221   0.091   3.584   9.087 -3.3855  2.1266  1.0665
  109OSM   H14T11222   0.247   3.667   9.074  0.8953 -0.7645  2.7237
  109OSM   C15S11223   0.083   3.793   9.019  0.4382 -0.2795 -0.1601
  109OSM   H15S11224   0.137   3.889   9.032 -2.0980  0.9659  2.2448
  109OSM   H15T11225  -0.026   3.806   9.041  0.1173 -1.0445 -1.2341
  109OSM   C16S11226   0.087   3.766   8.865  0.8392 -0.4516 -0.2462
  109OSM   H16S11227   0.032   3.849   8.816  1.2178  0.6414  1.1277
  109OSM   H16T11228   0.047   3.665   8.842  1.3536 -0.9572  1.0017
  109OSM   C17S11229   0.227   3.782   8.813 -0.0898 -0.1519  0.0364
  109OSM   H17S11230   0.263   3.679   8.835 -2.0430 -1.1319 -1.1136
  109OSM   H17T11231   0.293   3.855   8.864  1.1851 -0.6764 -0.8003
  109OSM   C18S11232   0.242   3.819   8.666  0.2819  0.5213 -0.2252
  109OSM   H18S11233   0.194   3.918   8.651  1.1556  0.7713 -1.5329
  109OSM   H18T11234   0.187   3.744   8.606 -2.8145  1.4505  1.2320
  109OSM   H18U11235   0.350   3.820   8.641 -0.2443 -0.3708 -2.7797
  109OSM    C1F11236   0.456   4.016  10.195 -0.0344 -0.0437 -0.1545
  109OSM     OF11237   0.553   4.011  10.264  0.2806 -0.3053 -0.3275
  109OSM    C2F11238   0.433   4.123  10.096  0.1987  0.4027  0.1832
  109OSM    H2F11239   0.427   4.219  10.152  0.8998  0.2037  0.6005
  109OSM    H2G11240   0.340   4.101  10.038  0.6858 -1.7653  0.1396
  109OSM    C3F11241   0.559   4.117  10.004  0.2250  0.8166 -0.2038
  109OSM    H3F11242   0.649   4.083  10.059 -1.2959 -2.8553  0.3094
  109OSM    H3G11243   0.576   4.216   9.956  1.0968  1.3597  1.1494
  109OSM    C4F11244   0.541   4.016   9.890 -0.1579  0.0383 -0.2481
  109OSM    H4F11245   0.466   4.039   9.811 -0.6093 -2.6873 -0.6884
  109OSM    H4G11246   0.509   3.917   9.929  0.8153 -0.1089  0.2232
  109OSM    C5F11247   0.666   4.013   9.804  0.0084 -0.0692  0.3931
  109OSM    H5F11248   0.759   3.999   9.863  0.4204 -2.0372 -0.6284
  109OSM    H5G11249   0.673   4.110   9.750  0.6238  2.3987  4.5210
  109OSM    C6F11250   0.654   3.899   9.706  0.2562 -0.2362  0.2732
  109OSM    H6F11251   0.546   3.880   9.687  0.5266 -0.5042 -1.1087
  109OSM    H6G11252   0.702   3.815   9.761 -0.3352  0.4683  1.9274
  109OSM    C7F11253   0.727   3.911   9.572 -0.1989  0.4226 -0.1721
  109OSM    H7F11254   0.830   3.947   9.594 -0.0418 -0.5540  0.8005
  109OSM    H7G11255   0.677   3.989   9.510  0.1102 -0.0480 -1.0268
  109OSM    C8F11256   0.739   3.778   9.493 -0.1365  0.1999 -0.8481
  109OSM    H8F11257   0.808   3.714   9.553 -0.0114 -0.0554 -1.2570
  109OSM    H8G11258   0.795   3.791   9.398  2.5571 -0.4332  0.5560
  109OSM    C9F11259   0.607   3.699   9.483  0.1793  0.1792  0.6485
  109OSM    H9F11260   0.529   3.699   9.561  0.4480 -3.2577  1.0537
  109OSM   C10F11261   0.589   3.602   9.392  0.9236  0.0357  0.0181
  109OSM   H10F11262   0.499   3.538   9.388  1.5693 -0.8358 -1.1490
  109OSM   C11F11263   0.680   3.559   9.279 -0.4319 -0.3308  0.1711
  109OSM   H11F11264   0.708   3.452   9.284 -1.5042 -0.8451 -2.8173
  109OSM   H11G11265   0.772   3.620   9.267 -0.8587  0.7082  1.8318
  109OSM   C12F11266   0.613   3.573   9.139  0.2444  0.2779 -0.4385
  109OSM   H12F11267   0.607   3.682   9.122  1.7675  0.4384 -0.0790
  109OSM   H12G11268   0.507   3.543   9.121  0.6784 -1.9241  0.2836
  109OSM   C13F11269   0.697   3.506   9.036  0.1482  0.8768  1.0520
  109OSM   H13F11270   0.800   3.541   9.059 -0.1730  1.3988  1.7206
  109OSM   H13G11271   0.675   3.539   8.932 -1.1607 -0.0713  1.0023
  109OSM   C14F11272   0.700   3.351   9.036 -0.5854  0.9556  0.1997
  109OSM   H14F11273   0.760   3.317   9.124  2.3468  0.3880 -1.8702
  109OSM   H14G11274   0.760   3.336   8.944 -1.7664  0.0794 -0.4603
  109OSM   C15F11275   0.562   3.285   9.030  0.4155 -0.3355 -0.2870
  109OSM   H15F11276   0.515   3.299   8.930 -1.2683 -1.7663  0.2620
  109OSM   H15G11277   0.492   3.331   9.103  0.4742 -2.3991  1.1275
  109OSM   C16F11278   0.569   3.130   9.050 -0.3725 -0.1927 -0.1736
  109OSM   H16F11279   0.657   3.123   9.119 -0.4898  0.5968  0.0727
  109OSM   H16G11280   0.575   3.072   8.956  1.8843 -3.4553  1.7813
  109OSM   C17F11281   0.449   3.071   9.127 -0.9496 -0.3090 -0.2244
  109OSM   H17F11282   0.431   3.133   9.218 -0.4425  2.1977 -1.7267
  109OSM   H17G11283   0.471   2.966   9.156  0.8689  0.2345  0.5222
  109OSM   C18F11284   0.322   3.093   9.051  0.5519 -0.7375  0.1276
  109OSM   H18F11285   0.288   3.199   9.048 -2.4820 -1.5722  0.9983
  109OSM   H18G11286   0.238   3.037   9.099  0.8409  0.2779  1.9094
  109OSM   H18H11287   0.337   3.069   8.944  1.4773  0.2639  0.0208
  110OSM      N11288   0.526   4.691  10.676  0.1555  0.0709  0.0710
  110OSM    C1511289   0.416   4.589  10.702  0.8982 -0.1186  0.6324
  110OSM   H15A11290   0.351   4.614  10.784 -0.0009  0.7354 -0.3132
  110OSM   H15B11291   0.453   4.488  10.714 -1.0367 -0.7711  1.3760
  110OSM   H15C11292   0.343   4.595  10.622 -1.3287 -0.4110  2.5568
  110OSM    C1411293   0.615   4.648  10.566 -0.7429 -0.2400 -0.1499
  110OSM   H14A11294   0.698   4.714  10.545 -0.9628  0.4566  1.0917
  110OSM   H14B11295   0.554   4.619  10.481 -1.5416 -2.1900  1.0204
  110OSM   H14C11296   0.678   4.567  10.599  1.0350  1.3727  0.5790
  110OSM    C1311297   0.460   4.822  10.626 -0.2262 -0.4593  0.5070
  110OSM   H13A11298   0.396   4.858  10.705 -0.7486 -0.6100  0.1580
  110OSM   H13B11299   0.395   4.805  10.541 -0.9655  1.5970  0.5874
  110OSM   H13C11300   0.537   4.897  10.618  1.8005 -2.4841  0.0603
  110OSM    C1211301   0.599   4.713  10.810 -0.0958  0.3797  0.2147
  110OSM   H12A11302   0.528   4.758  10.878 -0.6780 -1.5022  0.9189
  110OSM   H12B11303   0.674   4.789  10.795  0.0624  0.0559 -0.7032
  110OSM    C1111304   0.660   4.592  10.891 -0.5096  0.1649  0.1465
  110OSM   H11A11305   0.574   4.538  10.935 -0.3773  0.5164  0.8460
  110OSM   H11B11306   0.723   4.644  10.967  1.3365 -2.0331  0.2396
  110OSM      P11307   0.793   4.370  10.881 -0.1164 -0.1944 -0.1042
  110OSM    O1311308   0.927   4.339  10.830  0.0746 -0.4895 -0.0274
  110OSM    O1411309   0.783   4.377  11.028 -0.4476  0.1930 -0.1133
  110OSM    O1111310   0.688   4.267  10.828  0.0684 -0.5658  0.6957
  110OSM    O1211311   0.747   4.510  10.804 -0.1288  0.2678 -0.6750
  110OSM    C1S11312   0.640   4.266  10.698  0.5652  0.0721 -0.0962
  110OSM    H1S11313   0.616   4.370  10.668  2.4702  0.9063  1.1022
  110OSM    H1T11314   0.546   4.208  10.707  0.8264 -0.2862  0.3363
  110OSM     NF11315   0.702   4.240  10.465 -0.9483  0.0123 -0.2629
  110OSM    HNF11316   0.625   4.192  10.423 -1.3600  1.6081 -1.4572
  110OSM    C2S11317   0.742   4.202  10.602 -0.3814  0.5031 -0.2656
  110OSM    H2S11318   0.839   4.253  10.616  0.3833 -0.4111 -1.9591
  110OSM    C3S11319   0.764   4.050  10.631 -0.7632 -0.0201  0.5314
  110OSM    H3S11320   0.673   3.992  10.605  0.0714 -0.9285 -0.4367
  110OSM     O311321   0.801   4.026  10.768 -0.0313  0.0977 -0.7259
  110OSM    HO311322   0.765   4.103  10.812 -3.1558 -1.2250 -0.7165
  110OSM    C4S11323   0.876   3.997  10.537  0.6138  0.1818 -0.3478
  110OSM    H4S11324   0.973   4.049  10.544  0.2486  0.9567 -0.9216
  110OSM    C5S11325   0.867   3.918  10.432  0.5992  1.1749  0.3430
  110OSM    H5S11326   0.770   3.886  10.393  0.7717  0.1008  0.7497
  110OSM    C6S11327   0.982   3.876  10.338  0.1556  0.0235  0.3553
  110OSM    H6S11328   0.978   3.765  10.339 -1.8754  0.0382  2.4092
  110OSM    H6T11329   1.071   3.907  10.396  0.5620 -1.0877  0.3491
  110OSM    C7S11330   0.997   3.936  10.199 -0.0786  0.2117 -0.2670
  110OSM    H7S11331   0.901   3.927  10.143 -0.2558  1.8136 -0.2747
  110OSM    H7T11332   1.076   3.879  10.144  0.5396  0.9612 -0.1726
  110OSM    C8S11333   1.042   4.083  10.188  0.2372  0.3641  0.1594
  110OSM    H8S11334   1.142   4.096  10.235 -0.0912 -0.2363  1.0430
  110OSM    H8T11335   0.974   4.156  10.236 -0.8979 -0.0951 -0.7038
  110OSM    C9S11336   1.067   4.130  10.041  0.6970  0.3366  0.6097
  110OSM    H9S11337   1.135   4.218  10.049  1.1590  0.2492 -1.6725
  110OSM    H9T11338   0.973   4.172   9.998  0.4171 -1.4586 -0.6332
  110OSM   C10S11339   1.138   4.028   9.952 -0.1847  0.3426 -0.8386
  110OSM   H10S11340   1.072   3.940   9.939 -0.5193  0.2377  1.2085
  110OSM   H10T11341   1.223   3.996  10.017 -1.6592 -1.6485  0.1903
  110OSM   C11S11342   1.185   4.086   9.817  0.5167  0.3397 -0.9423
  110OSM   H11S11343   1.267   4.019   9.783 -1.5802 -2.4826 -0.8023
  110OSM   H11T11344   1.228   4.187   9.833  0.8003  0.3324 -1.6239
  110OSM   C12S11345   1.079   4.100   9.714 -0.6369  0.0762  0.4286
  110OSM   H12S11346   1.007   4.183   9.728 -2.0659 -0.9652 -0.4297
  110OSM   H12T11347   1.017   4.009   9.694 -0.1132 -0.3253  0.6119
  110OSM   C13S11348   1.146   4.126   9.579 -0.7052  0.3005  0.3225
  110OSM   H13S11349   1.240   4.069   9.564  1.1247  2.8114  1.4839
  110OSM   H13T11350   1.183   4.231   9.580  0.9759 -0.1567 -2.4554
  110OSM   C14S11351   1.055   4.098   9.453  0.8038  0.4415  0.5144
  110OSM   H14S11352   0.958   4.148   9.473 -0.5852 -0.9186 -2.2341
  110OSM   H14T11353   1.022   3.992   9.454  0.7490  0.4442  2.2897
  110OSM   C15S11354   1.106   4.160   9.327 -0.4722 -0.1474 -0.4443
  110OSM   H15S11355   1.209   4.124   9.308  0.0331  0.6598  0.6260
  110OSM   H15T11356   1.112   4.269   9.349 -0.6880 -0.4825  1.4098
  110OSM   C16S11357   1.015   4.129   9.203 -0.1803 -0.6381 -0.4010
  110OSM   H16S11358   0.910   4.155   9.228 -0.0902 -0.2079 -0.4639
  110OSM   H16T11359   1.015   4.019   9.185  0.7178 -0.9615  1.3594
  110OSM   C17S11360   1.047   4.208   9.076 -0.1585  0.8935 -0.2817
  110OSM   H17S11361   1.156   4.201   9.061 -0.1454 -0.4547  0.3261
  110OSM   H17T11362   1.026   4.317   9.087  2.4510  1.5388 -1.0661
  110OSM   C18S11363   0.976   4.167   8.945 -0.4466 -0.3550  1.0904
  110OSM   H18S11364   0.995   4.242   8.866  2.6499 -0.4606  1.6321
  110OSM   H18T11365   0.867   4.151   8.958 -0.1005 -2.5182  1.7602
  110OSM   H18U11366   1.017   4.071   8.908  0.1607  0.4831 -0.4962
  110OSM    C1F11367   0.756   4.350  10.410  0.7387 -0.9491  0.7603
  110OSM     OF11368   0.819   4.424  10.475  0.0150 -0.1693 -0.3526
  110OSM    C2F11369   0.724   4.374  10.262  0.5659  0.6018  1.1697
  110OSM    H2F11370   0.630   4.433  10.263  0.1454  0.1336 -1.4297
  110OSM    H2G11371   0.720   4.273  10.215  0.5426  0.9383  0.4229
  110OSM    C3F11372   0.831   4.458  10.196  0.3301  0.8621 -0.5656
  110OSM    H3F11373   0.934   4.423  10.218 -0.3212 -1.1238 -0.4818
  110OSM    H3G11374   0.810   4.554  10.248  0.9244  0.8906 -0.3809
  110OSM    C4F11375   0.813   4.469  10.041 -0.1705 -0.3380 -0.2028
  110OSM    H4F11376   0.812   4.361  10.012 -0.9000 -0.5853  0.6898
  110OSM    H4G11377   0.899   4.524   9.998 -0.6433 -0.6896 -1.6662
  110OSM    C5F11378   0.681   4.530   9.988 -0.8072  0.4685 -0.3218
  110OSM    H5F11379   0.682   4.639  10.006  0.2651  0.4075  0.0578
  110OSM    H5G11380   0.591   4.499  10.046 -3.0051  4.1173 -1.4931
  110OSM    C6F11381   0.645   4.488   9.848  0.0327 -0.3115 -0.1834
  110OSM    H6F11382   0.662   4.381   9.823 -1.7564 -0.3702 -1.2776
  110OSM    H6G11383   0.698   4.554   9.776 -1.6469  1.2699 -0.0465
  110OSM    C7F11384   0.490   4.501   9.834  0.1657  0.1394  0.7090
  110OSM    H7F11385   0.467   4.609   9.830 -0.2679  0.0768  1.4111
  110OSM    H7G11386   0.451   4.457   9.928 -1.8686 -0.8935 -0.5414
  110OSM    C8F11387   0.436   4.435   9.710  0.8110  0.5474 -0.2461
  110OSM    H8F11388   0.329   4.463   9.710  0.4759 -0.6737 -0.1871
  110OSM    H8G11389   0.427   4.325   9.717  0.3479  0.6681  3.7270
  110OSM    C9F11390   0.503   4.477   9.585 -0.2822  0.1180  0.6144
  110OSM    H9F11391   0.535   4.582   9.587 -1.5938  0.5941 -1.1086
  110OSM   C10F11392   0.522   4.402   9.473  0.5429  0.1946  0.8927
  110OSM   H10F11393   0.559   4.462   9.388  0.6119  1.2318  1.6390
  110OSM   C11F11394   0.488   4.254   9.453 -0.3294 -0.0275  0.4687
  110OSM   H11F11395   0.390   4.226   9.499 -0.5944  1.8658  1.1264
  110OSM   H11G11396   0.568   4.186   9.488  0.2560  0.1141 -0.5394
  110OSM   C12F11397   0.487   4.229   9.302  0.3735 -0.3360 -0.3158
  110OSM   H12F11398   0.581   4.262   9.252 -0.6279  0.8025 -1.5412
  110OSM   H12G11399   0.411   4.298   9.259 -0.3615  0.1082  1.5974
  110OSM   C13F11400   0.446   4.089   9.256 -0.4291  0.2097 -0.6817
  110OSM   H13F11401   0.347   4.059   9.299  0.4378 -2.0613 -0.1429
  110OSM   H13G11402   0.511   4.005   9.288  0.6779  1.7809  1.4569
  110OSM   C14F11403   0.430   4.069   9.104 -0.7242  0.1863  0.5317
  110OSM   H14F11404   0.370   4.151   9.059  0.3465  2.2127  2.5952
  110OSM   H14G11405   0.380   3.973   9.081  1.4983 -0.8996 -0.0648
  110OSM   C15F11406   0.564   4.038   9.024 -0.4039 -0.2065 -0.8412
  110OSM   H15F11407   0.614   3.957   9.082  0.2218  1.0489  0.4556
  110OSM   H15G11408   0.619   4.134   9.013 -0.8339  0.0961 -0.3998
  110OSM   C16F11409   0.534   4.001   8.878  0.0785 -0.0965  0.0570
  110OSM   H16F11410   0.448   4.054   8.831 -0.2302 -0.0284  0.6864
  110OSM   H16G11411   0.498   3.896   8.878  0.2737 -0.1833  1.5381
  110OSM   C17F11412   0.661   4.014   8.793 -0.2560 -0.2426 -0.3709
  110OSM   H17F11413   0.737   3.970   8.862 -0.3688  1.7588  1.1177
  110OSM   H17G11414   0.678   4.122   8.774 -2.9553  0.4475  0.6896
  110OSM   C18F11415   0.650   3.923   8.667 -0.4202 -0.2575 -0.4300
  110OSM   H18F11416   0.559   3.948   8.609  0.8707  0.9056 -2.0689
  110OSM   H18G11417   0.644   3.822   8.713  3.9625 -1.7799 -2.6064
  110OSM   H18H11418   0.745   3.920   8.610 -1.6376 -2.4155 -2.4892
  111OSM      N11419   1.274   2.576  10.985 -0.1615 -0.8165  0.3288
  111OSM    C1511420   1.343   2.545  11.117  0.5243 -0.5904  0.4216
  111OSM   H15A11421   1.414   2.464  11.104  2.3398  0.9636  0.1364
  111OSM   H15B11422   1.270   2.510  11.188 -1.7037  1.5755 -0.6615
  111OSM   H15C11423   1.390   2.633  11.158 -1.4479  1.2164 -1.0193
  111OSM    C1411424   1.207   2.459  10.927  0.0885  0.2606 -0.3336
  111OSM   H14A11425   1.136   2.416  10.997 -1.4202 -0.1790 -2.0699
  111OSM   H14B11426   1.283   2.388  10.900  0.7384  1.0068 -0.4816
  111OSM   H14C11427   1.157   2.491  10.837 -0.2043 -0.3526 -0.3895
  111OSM    C1311428   1.179   2.689  11.004 -0.8053  0.2381  0.3392
  111OSM   H13A11429   1.100   2.657  11.070  0.2725 -1.2217  0.9817
  111OSM   H13B11430   1.130   2.732  10.918  0.7610  0.7390 -0.3401
  111OSM   H13C11431   1.230   2.765  11.061  0.8923 -2.3852  2.6247
  111OSM    C1211432   1.371   2.628  10.888  0.3544 -0.7557 -0.1685
  111OSM   H12A11433   1.452   2.557  10.879  1.8287  0.9475 -1.1914
  111OSM   H12B11434   1.408   2.724  10.921 -1.4442  0.0925 -0.5058
  111OSM    C1111435   1.327   2.645  10.743 -0.1846  0.2343 -0.8795
  111OSM   H11A11436   1.279   2.555  10.699 -1.2481  0.3664 -0.0625
  111OSM   H11B11437   1.422   2.659  10.688  1.1364 -2.1948  0.5949
  111OSM      P11438   1.290   2.903  10.744  0.1476  0.0336  0.0286
  111OSM    O1311439   1.167   2.990  10.729 -0.1089 -0.2807  0.1367
  111OSM    O1411440   1.362   2.919  10.875  0.0432  0.1820  0.1600
  111OSM    O1111441   1.390   2.948  10.636 -0.2637 -0.2576  0.0857
  111OSM    O1211442   1.244   2.753  10.724 -0.3725 -0.8288  0.9112
  111OSM    C1S11443   1.363   2.913  10.500  0.1548  0.1153  0.2623
  111OSM    H1S11444   1.277   2.971  10.460 -0.6809 -0.1098  1.6593
  111OSM    H1T11445   1.348   2.803  10.492 -0.8337  0.2380  0.2641
  111OSM     NF11446   1.464   2.944  10.277 -0.1378 -0.1725  0.2791
  111OSM    HNF11447   1.504   2.861  10.239  0.0883  0.6291 -1.2771
  111OSM    C2S11448   1.492   2.948  10.415  0.1891 -0.2177 -0.0130
  111OSM    H2S11449   1.519   3.054  10.432 -0.4497  0.0842 -0.8465
  111OSM    C3S11450   1.602   2.860  10.464  0.2782  0.3717 -0.1692
  111OSM    H3S11451   1.574   2.753  10.461  1.8007 -0.0189 -1.3051
  111OSM     O311452   1.654   2.882  10.598  0.5113  0.2010  0.3461
  111OSM    HO311453   1.583   2.932  10.638 -0.3496 -1.3556  0.8212
  111OSM    C4S11454   1.717   2.891  10.372 -0.8835  0.0742 -0.0293
  111OSM    H4S11455   1.775   2.982  10.393 -3.6656  1.6441  1.5432
  111OSM    C5S11456   1.774   2.791  10.295 -0.3166  0.5505 -0.2553
  111OSM    H5S11457   1.734   2.689  10.309 -1.6223  1.0412 -0.2247
  111OSM    C6S11458   1.895   2.809  10.210 -0.6782  0.6031 -0.3088
  111OSM    H6S11459   1.916   2.714  10.155 -0.9386 -0.0146  0.6511
  111OSM    H6T11460   1.988   2.822  10.270 -1.5373  1.6254  0.8307
  111OSM    C7S11461   1.896   2.924  10.112  0.7755 -0.1426  0.5700
  111OSM    H7S11462   1.994   2.925  10.060 -0.4083 -0.8167 -1.8197
  111OSM    H7T11463   1.872   3.018  10.165 -2.0638 -0.3893 -0.0724
  111OSM    C8S11464   1.792   2.905  10.005  0.3384 -0.7517  0.2822
  111OSM    H8S11465   1.764   3.003   9.960 -1.9744 -0.4628  2.1540
  111OSM    H8T11466   1.698   2.874  10.055 -0.2468  0.8239  0.2130
  111OSM    C9S11467   1.814   2.799   9.905 -0.2401  1.1698 -0.5723
  111OSM    H9S11468   1.719   2.779   9.850  0.3787  0.2369 -1.3494
  111OSM    H9T11469   1.852   2.712   9.962  1.0036  0.1125 -2.8667
  111OSM   C10S11470   1.925   2.828   9.807  0.0295  0.3645  0.0359
  111OSM   H10S11471   2.026   2.827   9.853  1.8049 -1.4633 -3.5228
  111OSM   H10T11472   1.915   2.928   9.760  2.2925 -0.1357 -1.6804
  111OSM   C11S11473   1.915   2.724   9.693 -0.1591  0.2410 -0.1485
  111OSM   H11S11474   1.818   2.747   9.646 -0.2773  1.4072  0.6293
  111OSM   H11T11475   1.896   2.622   9.733  1.1110  0.0108 -0.0840
  111OSM   C12S11476   2.032   2.720   9.591  0.8317 -0.0127 -0.5275
  111OSM   H12S11477   2.037   2.611   9.573  0.8695 -0.4437  1.7769
  111OSM   H12T11478   2.129   2.747   9.637  0.1995  0.7890  0.4015
  111OSM   C13S11479   2.006   2.803   9.464 -0.1711 -0.0349 -0.1466
  111OSM   H13S11480   2.089   2.877   9.462 -0.4459  0.2905  0.4883
  111OSM   H13T11481   1.913   2.858   9.490 -0.1052  0.1192 -0.2372
  111OSM   C14S11482   1.981   2.728   9.328 -0.0716  0.6240  0.4840
  111OSM   H14S11483   1.895   2.664   9.353  0.0857 -0.5659 -1.7688
  111OSM   H14T11484   2.073   2.672   9.302 -1.2461 -1.0002 -0.3249
  111OSM   C15S11485   1.938   2.834   9.223 -0.2934  0.7857  0.5231
  111OSM   H15S11486   2.021   2.903   9.196  0.1485  1.4015  3.1938
  111OSM   H15T11487   1.861   2.899   9.270 -0.1533  0.9028  0.5929
  111OSM   C16S11488   1.895   2.772   9.090  0.1216  0.1642 -0.5289
  111OSM   H16S11489   1.806   2.711   9.118  1.2521 -0.7515  1.1923
  111OSM   H16T11490   1.962   2.689   9.059 -0.7513 -1.4221  1.6085
  111OSM   C17S11491   1.873   2.868   8.972 -0.1471  0.2102  0.1609
  111OSM   H17S11492   1.853   2.815   8.877  0.5121  0.3546 -0.0631
  111OSM   H17T11493   1.970   2.916   8.947 -0.3012 -0.1714 -1.1943
  111OSM   C18S11494   1.777   2.980   9.005 -1.0825  0.0580  0.0622
  111OSM   H18S11495   1.774   3.041   8.912  0.1287 -1.9022 -1.3297
  111OSM   H18T11496   1.808   3.037   9.095  1.1375 -3.0051  1.3892
  111OSM   H18U11497   1.680   2.929   9.024  0.1137 -1.8469  1.4397
  111OSM    C1F11498   1.384   3.028  10.209 -0.9521  0.0120  0.7102
  111OSM     OF11499   1.323   3.113  10.264 -0.1982 -0.6789  0.3449
  111OSM    C2F11500   1.372   2.991  10.059  0.3900 -0.3949  0.3117
  111OSM    H2F11501   1.267   3.004  10.027 -0.3143 -0.8775  2.2721
  111OSM    H2G11502   1.390   2.882  10.048  1.2254 -0.4018  1.5379
  111OSM    C3F11503   1.464   3.076   9.965 -0.4176 -0.1755  0.2057
  111OSM    H3F11504   1.554   3.111  10.020 -1.3331  1.0310  0.9704
  111OSM    H3G11505   1.407   3.170   9.946 -1.5564 -0.7571  0.6541
  111OSM    C4F11506   1.482   2.996   9.835 -0.5091 -0.2499  0.3870
  111OSM    H4F11507   1.550   2.912   9.859 -1.0791 -0.3651  1.7229
  111OSM    H4G11508   1.527   3.055   9.753 -0.6515 -1.1001 -0.3122
  111OSM    C5F11509   1.356   2.954   9.766  0.3491  0.5154  0.4361
  111OSM    H5F11510   1.295   3.046   9.761  2.3998  2.1030  2.4883
  111OSM    H5G11511   1.306   2.870   9.818 -1.4172  0.3808 -1.3632
  111OSM    C6F11512   1.383   2.886   9.623 -0.7876 -0.1305  0.2438
  111OSM    H6F11513   1.288   2.834   9.600 -0.0711 -1.0518 -0.7560
  111OSM    H6G11514   1.453   2.801   9.631 -1.4594 -0.9995 -2.2419
  111OSM    C7F11515   1.429   2.980   9.513 -0.2735  0.2080 -0.3059
  111OSM    H7F11516   1.509   3.051   9.545  1.7075 -2.7285  1.7759
  111OSM    H7G11517   1.350   3.050   9.480 -0.7576 -0.3095 -0.2426
  111OSM    C8F11518   1.478   2.903   9.382 -0.2054 -0.2379  0.1624
  111OSM    H8F11519   1.392   2.848   9.338  0.1428  0.0385 -0.8943
  111OSM    H8G11520   1.567   2.839   9.402 -1.2530 -1.6421  0.4811
  111OSM    C9F11521   1.548   2.998   9.280 -0.2559 -1.0014 -0.3980
  111OSM    H9F11522   1.653   3.006   9.312 -0.8885 -0.4128  1.6886
  111OSM   C10F11523   1.491   3.084   9.195 -0.9350  0.8097  0.2965
  111OSM   H10F11524   1.562   3.130   9.124  0.1599 -2.0274 -0.6036
  111OSM   C11F11525   1.345   3.083   9.154  0.1938 -0.0836 -0.0117
  111OSM   H11F11526   1.304   3.186   9.147  1.4312  0.3027 -3.2671
  111OSM   H11G11527   1.287   3.021   9.226 -0.8500 -1.8525 -2.2439
  111OSM   C12F11528   1.324   3.040   9.004 -0.0934  0.4861  0.2297
  111OSM   H12F11529   1.398   3.093   8.940 -0.3575  0.9314  0.2856
  111OSM   H12G11530   1.219   3.070   8.981 -0.7111 -1.4360  0.3194
  111OSM   C13F11531   1.342   2.884   8.978 -0.1189  0.5643  0.5361
  111OSM   H13F11532   1.260   2.827   9.029 -2.7511  1.4408 -2.3743
  111OSM   H13G11533   1.440   2.859   9.022  0.4834  0.5716 -0.7554
  111OSM   C14F11534   1.346   2.867   8.821 -0.1670  0.0030 -0.4210
  111OSM   H14F11535   1.427   2.933   8.782  1.7016 -1.3492  0.9995
  111OSM   H14G11536   1.247   2.900   8.781 -0.8770 -3.0959 -1.5238
  111OSM   C15F11537   1.370   2.727   8.759  0.2903 -0.1095 -0.3570
  111OSM   H15F11538   1.301   2.659   8.814  1.3887 -0.2944  0.8501
  111OSM   H15G11539   1.470   2.687   8.786  0.3143  0.2953  0.1569
  111OSM   C16F11540   1.341   2.715   8.607 -0.1772 -0.3190 -0.5954
  111OSM   H16F11541   1.358   2.609   8.578  0.3112 -0.4253  0.0515
  111OSM   H16G11542   1.422   2.770   8.553 -0.2358  2.5896  1.9754
  111OSM   C17F11543   1.207   2.759   8.547 -0.7849  0.5253  0.0076
  111OSM   H17F11544   1.191   2.868   8.563 -1.7455  0.3424  0.3279
  111OSM   H17G11545   1.123   2.711   8.601 -0.4791  1.4920  1.3898
  111OSM   C18F11546   1.214   2.730   8.400  0.5980 -0.0175  0.3979
  111OSM   H18F11547   1.208   2.620   8.386 -1.5434 -0.1275  1.7814
  111OSM   H18G11548   1.301   2.786   8.358 -0.8087  2.3341  0.3898
  111OSM   H18H11549   1.127   2.777   8.348 -0.2791 -1.3829  0.5817
  112OSM      N11550   3.370   5.525  11.356  0.5608  0.8176 -0.0268
  112OSM    C1511551   3.258   5.560  11.439  0.2586 -0.3672 -0.5535
  112OSM   H15A11552   3.204   5.468  11.458  0.8017 -0.2394  1.9673
  112OSM   H15B11553   3.187   5.627  11.392  0.7620  0.6047  0.0512
  112OSM   H15C11554   3.277   5.603  11.536  0.4053  2.1034 -1.6028
  112OSM    C1411555   3.451   5.647  11.332 -0.2979 -0.8361  0.5417
  112OSM   H14A11556   3.487   5.687  11.426  2.5418 -1.1454 -0.3038
  112OSM   H14B11557   3.386   5.719  11.285  0.0814 -2.3754 -2.5735
  112OSM   H14C11558   3.527   5.623  11.259 -0.2979 -2.0391  0.9223
  112OSM    C1311559   3.454   5.430  11.429  0.0574 -0.1747  0.1521
  112OSM   H13A11560   3.510   5.476  11.510 -2.1878  3.5320 -0.1873
  112OSM   H13B11561   3.535   5.405  11.362 -0.5367  3.7273 -2.2972
  112OSM   H13C11562   3.409   5.335  11.456  0.0858  0.2875  1.9847
  112OSM    C1211563   3.329   5.466  11.223  0.0848 -0.5653 -0.0551
  112OSM   H12A11564   3.280   5.372  11.245  3.2125 -2.5345 -0.8159
  112OSM   H12B11565   3.414   5.433  11.165 -0.3920 -2.8326  0.4614
  112OSM    C1111566   3.235   5.556  11.132 -0.1359  0.8668  0.0171
  112OSM   H11A11567   3.167   5.607  11.203 -0.7675  0.5933 -0.3863
  112OSM   H11B11568   3.174   5.496  11.061 -0.2988  0.3644  0.5815
  112OSM      P11569   3.427   5.598  10.952 -0.1623 -0.3109  0.1056
  112OSM    O1311570   3.471   5.704  10.851 -0.5014 -0.0107  0.0251
  112OSM    O1411571   3.544   5.538  11.019  0.1172  0.4364 -0.1908
  112OSM    O1111572   3.336   5.487  10.878  0.1314  0.1328  0.8824
  112OSM    O1211573   3.319   5.650  11.056 -0.1385 -0.3442  0.1228
  112OSM    C1S11574   3.230   5.528  10.788 -0.6094 -0.3739 -0.4190
  112OSM    H1S11575   3.261   5.607  10.716  0.8973  0.2544  0.8827
  112OSM    H1T11576   3.153   5.574  10.853  2.9069  2.4755  2.0945
  112OSM     NF11577   3.083   5.454  10.602 -0.2329  0.4553  0.4398
  112OSM    HNF11578   3.001   5.398  10.610 -0.5840  0.6455 -1.2812
  112OSM    C2S11579   3.192   5.412  10.687 -0.3265  0.4715 -0.1707
  112OSM    H2S11580   3.284   5.401  10.624  0.3362 -1.7509  1.0696
  112OSM    C3S11581   3.176   5.272  10.762 -0.3460  0.1513 -0.0973
  112OSM    H3S11582   3.080   5.283  10.817  0.4388 -0.1044  1.3637
  112OSM     O311583   3.257   5.238  10.869 -0.0753  0.1132  0.9052
  112OSM    HO311584   3.301   5.321  10.886  0.6824 -0.5378  2.3075
  112OSM    C4S11585   3.168   5.168  10.656 -0.1685 -0.1004  0.4668
  112OSM    H4S11586   3.075   5.151  10.600  0.2772 -4.4433  0.6962
  112OSM    C5S11587   3.258   5.067  10.629 -0.6748 -0.0756 -0.4350
  112OSM    H5S11588   3.351   5.058  10.688 -2.0169 -1.0562  1.6722
  112OSM    C6S11589   3.229   4.958  10.529 -0.2875 -0.1124  0.5862
  112OSM    H6S11590   3.150   4.982  10.456 -1.2927 -0.0626  1.6669
  112OSM    H6T11591   3.212   4.861  10.581  0.8927  1.0621  3.3964
  112OSM    C7S11592   3.349   4.951  10.421  0.1891  0.0431 -0.6544
  112OSM    H7S11593   3.341   4.854  10.366  1.5259 -1.0120  0.9394
  112OSM    H7T11594   3.450   4.939  10.465 -0.5616 -0.0623  1.1145
  112OSM    C8S11595   3.369   5.070  10.329 -0.0058  0.3511  0.3169
  112OSM    H8S11596   3.410   5.157  10.385 -1.0391  0.0585  1.5976
  112OSM    H8T11597   3.270   5.102  10.291 -0.8103  0.1132  2.0963
  112OSM    C9S11598   3.473   5.026  10.223  0.1424 -0.3742 -0.1168
  112OSM    H9S11599   3.471   4.915  10.220  1.0729 -0.4580  1.2552
  112OSM    H9T11600   3.577   5.045  10.255  0.4145  0.9116 -1.6019
  112OSM   C10S11601   3.446   5.087  10.085  0.0946  0.3451  0.6385
  112OSM   H10S11602   3.432   5.197  10.090 -2.2493  0.1482 -0.1689
  112OSM   H10T11603   3.353   5.033  10.055 -0.3191  0.7819  1.0983
  112OSM   C11S11604   3.556   5.034   9.995  0.4026  0.0017  0.6318
  112OSM   H11S11605   3.545   4.923   9.994 -0.7884  0.1115 -0.1139
  112OSM   H11T11606   3.652   5.063  10.043  0.5301 -1.0975  1.0767
  112OSM   C12S11607   3.533   5.089   9.856 -0.5890  0.3295 -0.0583
  112OSM   H12S11608   3.527   5.198   9.876  1.1652  0.2435  1.2128
  112OSM   H12T11609   3.437   5.052   9.813  0.5093 -0.8614 -1.6109
  112OSM   C13S11610   3.643   5.074   9.751 -0.5514 -0.5034  0.2686
  112OSM   H13S11611   3.671   4.968   9.733 -1.5827 -0.3718 -2.5977
  112OSM   H13T11612   3.729   5.129   9.795 -2.0148  1.2008  1.1135
  112OSM   C14S11613   3.606   5.134   9.611  0.2215 -0.4983  0.2316
  112OSM   H14S11614   3.542   5.223   9.632 -1.9472 -2.3021  1.6950
  112OSM   H14T11615   3.542   5.063   9.555  1.0046 -0.5939 -0.5622
  112OSM   C15S11616   3.722   5.187   9.521  0.2127 -0.1734 -0.0982
  112OSM   H15S11617   3.775   5.102   9.473  0.3481 -1.7833  2.6718
  112OSM   H15T11618   3.796   5.229   9.593  1.8538 -0.5574 -1.4807
  112OSM   C16S11619   3.688   5.291   9.419  1.0077  0.4157 -1.2234
  112OSM   H16S11620   3.772   5.358   9.390  1.2445  1.3192  1.2960
  112OSM   H16T11621   3.599   5.349   9.453  1.3430  0.1559  0.1678
  112OSM   C17S11622   3.648   5.206   9.299 -0.5327 -0.2352  0.2647
  112OSM   H17S11623   3.570   5.131   9.325 -0.9608 -0.0358 -0.4348
  112OSM   H17T11624   3.737   5.158   9.253 -0.3024  0.5303 -0.1024
  112OSM   C18S11625   3.586   5.287   9.192  0.1081  0.3854  0.0688
  112OSM   H18S11626   3.631   5.386   9.170 -2.3425  1.2194 -1.5948
  112OSM   H18T11627   3.486   5.320   9.228  0.8100  2.7465  0.0211
  112OSM   H18U11628   3.576   5.235   9.094  1.7001  1.2635 -0.5905
  112OSM    C1F11629   3.111   5.540  10.500  0.7267 -0.1379 -0.5845
  112OSM     OF11630   3.224   5.584  10.491  0.5097  0.0440 -0.1875
  112OSM    C2F11631   2.987   5.582  10.416 -0.5981  0.1658  0.1894
  112OSM    H2F11632   2.955   5.679  10.460 -2.0487 -0.2475  0.0990
  112OSM    H2G11633   2.903   5.509  10.420 -1.0946  0.5998 -1.4237
  112OSM    C3F11634   3.020   5.596  10.265  0.3988  1.1431 -1.1340
  112OSM    H3F11635   3.095   5.677  10.273  2.0430 -0.4588  0.5497
  112OSM    H3G11636   2.935   5.635  10.204 -0.0483  1.0634 -0.5676
  112OSM    C4F11637   3.091   5.474  10.199 -0.0430  0.6552  0.0244
  112OSM    H4F11638   3.048   5.377  10.230 -0.4666 -0.8936 -4.7125
  112OSM    H4G11639   3.198   5.494  10.221  0.2827  0.7966 -1.5525
  112OSM    C5F11640   3.070   5.486  10.044  0.4865  0.0810  0.3410
  112OSM    H5F11641   3.116   5.579  10.005 -0.7572  0.4213 -0.3652
  112OSM    H5G11642   2.963   5.489  10.012  1.1738 -1.0189 -2.3412
  112OSM    C6F11643   3.121   5.360   9.971 -0.3799  0.3665  0.2764
  112OSM    H6F11644   3.103   5.263  10.022 -0.4967 -0.8864 -2.0047
  112OSM    H6G11645   3.226   5.369   9.938 -0.6201  0.6800 -0.4161
  112OSM    C7F11646   3.050   5.347   9.839  0.1115 -0.0995  0.0432
  112OSM    H7F11647   3.071   5.434   9.773 -1.4276 -0.1514 -0.5703
  112OSM    H7G11648   2.941   5.355   9.862  0.2998  0.3518  0.8147
  112OSM    C8F11649   3.083   5.217   9.759  0.5431 -0.0704  0.7567
  112OSM    H8F11650   3.057   5.129   9.821  0.5726  0.3445  1.3712
  112OSM    H8G11651   3.192   5.218   9.737  0.8582  0.2523  2.1840
  112OSM    C9F11652   3.006   5.218   9.630 -0.5244 -0.0877 -0.0990
  112OSM    H9F11653   2.904   5.246   9.659  0.3642 -1.0066  4.7030
  112OSM   C10F11654   3.036   5.190   9.501 -0.0044  0.5645 -0.4895
  112OSM   H10F11655   2.957   5.195   9.425  0.8510 -2.5920 -1.7907
  112OSM   C11F11656   3.165   5.134   9.450  0.3199 -0.2892  0.1749
  112OSM   H11F11657   3.193   5.033   9.488  0.8905 -0.8650 -1.6671
  112OSM   H11G11658   3.246   5.203   9.482 -0.5539  1.1352 -0.5816
  112OSM   C12F11659   3.172   5.141   9.298 -0.5043  0.2063 -0.9520
  112OSM   H12F11660   3.104   5.073   9.242 -0.2716  0.7097 -1.8720
  112OSM   H12G11661   3.277   5.109   9.278  0.3485  0.3103  2.6887
  112OSM   C13F11662   3.168   5.286   9.238  0.9267 -0.5410 -0.8531
  112OSM   H13F11663   3.238   5.356   9.288 -0.1912  0.0414 -0.0680
  112OSM   H13G11664   3.065   5.327   9.240  1.5299  1.1534 -2.2822
  112OSM   C14F11665   3.201   5.295   9.089  0.0393  0.5537  0.4619
  112OSM   H14F11666   3.285   5.226   9.063 -1.1441 -2.4782  3.8146
  112OSM   H14G11667   3.200   5.401   9.058 -2.9552  0.0042 -1.8726
  112OSM   C15F11668   3.087   5.222   8.998  0.0095 -0.4155  0.2707
  112OSM   H15F11669   2.993   5.225   9.058  0.6367  0.5948  1.2283
  112OSM   H15G11670   3.107   5.112   8.995  0.5848 -0.3276  0.8385
  112OSM   C16F11671   3.065   5.275   8.856  0.2850 -0.2874 -0.2750
  112OSM   H16F11672   3.148   5.346   8.837  1.0366 -0.6521  1.4176
  112OSM   H16G11673   2.968   5.320   8.828 -0.1815  0.3446  2.1558
  112OSM   C17F11674   3.096   5.159   8.752 -0.0517 -0.1581 -0.6707
  112OSM   H17F11675   3.188   5.116   8.797  0.9352  1.8974 -0.5859
  112OSM   H17G11676   3.115   5.205   8.652 -0.2090 -2.1588 -1.6874
  112OSM   C18F11677   2.982   5.050   8.736  0.6099  0.3291 -0.3856
  112OSM   H18F11678   2.887   5.088   8.695 -0.0615 -0.8815 -0.0259
  112OSM   H18G11679   2.953   5.017   8.839 -0.1273 -0.2099 -0.7584
  112OSM   H18H11680   3.021   4.967   8.673  0.8892  1.8800 -2.3454
  113OSM      N11681   4.484   5.645  10.846 -0.0117  0.0562 -0.2555
  113OSM    C1511682   4.423   5.761  10.911 -0.1206  0.1880 -0.2619
  113OSM   H15A11683   4.340   5.726  10.971  1.8916 -2.7429  1.0213
  113OSM   H15B11684   4.390   5.838  10.842 -2.4463 -2.1781 -1.9769
  113OSM   H15C11685   4.489   5.804  10.985 -1.2010 -1.8096  2.0280
  113OSM    C1411686   4.610   5.679  10.768  0.2445 -0.3256 -0.3121
  113OSM   H14A11687   4.678   5.596  10.755  0.6489 -0.2245  0.9457
  113OSM   H14B11688   4.667   5.752  10.824 -0.4684 -0.4522  0.6138
  113OSM   H14C11689   4.588   5.722  10.672  0.0161 -1.2520 -0.6815
  113OSM    C1311690   4.533   5.555  10.960 -0.4969 -0.1462  0.2027
  113OSM   H13A11691   4.446   5.539  11.022 -1.1335  1.9624 -0.0841
  113OSM   H13B11692   4.613   5.612  11.005 -0.4681  0.2788 -0.3755
  113OSM   H13C11693   4.576   5.462  10.925  0.0883 -0.6718  2.1754
  113OSM    C1211694   4.375   5.573  10.757  0.1117  0.2871  0.2308
  113OSM   H12A11695   4.293   5.523  10.807 -0.3128 -0.2214 -0.9298
  113OSM   H12B11696   4.425   5.495  10.701 -0.1652 -1.9751  2.9409
  113OSM    C1111697   4.312   5.668  10.644 -0.4950  0.0150 -0.3683
  113OSM   H11A11698   4.229   5.607  10.604 -1.7394 -0.4037  2.5971
  113OSM   H11B11699   4.386   5.691  10.564  1.1338 -0.2061  1.0170
  113OSM      P11700   4.180   5.901  10.614  0.5563 -0.0788 -0.2039
  113OSM    O1311701   4.052   5.945  10.681 -0.0667 -0.2644  0.1359
  113OSM    O1411702   4.280   6.008  10.593 -0.3280  0.0508 -0.0632
  113OSM    O1111703   4.137   5.834  10.480  0.4369  0.2101 -0.0590
  113OSM    O1211704   4.236   5.783  10.698  0.0578  0.1613 -0.0811
  113OSM    C1S11705   4.069   5.903  10.374 -0.1884  0.3926 -0.4686
  113OSM    H1S11706   4.039   6.006  10.403  2.8947  0.8987  1.3266
  113OSM    H1T11707   3.968   5.860  10.359 -1.1753  2.1012  0.9140
  113OSM     NF11708   4.088   5.993  10.155 -0.1393 -1.0111 -0.0269
  113OSM    HNF11709   4.011   5.955  10.105  0.6157 -3.4623  0.5000
  113OSM    C2S11710   4.141   5.895  10.243  0.2631 -0.1142  0.1632
  113OSM    H2S11711   4.252   5.900  10.251  0.5588 -0.9547 -2.4274
  113OSM    C3S11712   4.112   5.753  10.185 -0.3552 -0.2006 -0.2779
  113OSM    H3S11713   4.004   5.729  10.175 -0.0887 -1.9491  0.6128
  113OSM     O311714   4.140   5.653  10.281 -0.3514  0.4255 -0.3211
  113OSM    HO311715   4.136   5.701  10.364 -1.6492  1.4938 -0.9593
  113OSM    C4S11716   4.181   5.731  10.054 -0.4285  0.1182 -0.5820
  113OSM    H4S11717   4.110   5.740   9.970 -3.0513 -0.6937  1.4344
  113OSM    C5S11718   4.313   5.703  10.033  0.5517  0.7212 -0.2674
  113OSM    H5S11719   4.380   5.685  10.118 -0.2059 -0.7964  0.0439
  113OSM    C6S11720   4.379   5.697   9.897  0.0413 -0.0292  0.0073
  113OSM    H6S11721   4.441   5.605   9.891  1.0382  0.6503 -0.2900
  113OSM    H6T11722   4.459   5.774   9.892 -0.3077  0.5155  1.8676
  113OSM    C7S11723   4.286   5.693   9.772  0.0056 -0.4365 -0.2955
  113OSM    H7S11724   4.240   5.794   9.773  2.2990  0.6850  1.2625
  113OSM    H7T11725   4.208   5.615   9.782  0.4302 -0.7856  0.3500
  113OSM    C8S11726   4.362   5.678   9.643 -0.1162  0.4006 -0.4416
  113OSM    H8S11727   4.384   5.569   9.634 -3.2467 -0.4056  0.3836
  113OSM    H8T11728   4.456   5.737   9.649 -0.4865  0.9834 -0.2519
  113OSM    C9S11729   4.271   5.731   9.529 -0.0838  0.6451 -0.1808
  113OSM    H9S11730   4.238   5.836   9.544 -0.7038  0.3522  0.5586
  113OSM    H9T11731   4.184   5.663   9.522  1.0146 -0.7709 -0.5549
  113OSM   C10S11732   4.333   5.711   9.389  0.6310 -0.2443  0.1442
  113OSM   H10S11733   4.392   5.617   9.384  1.4612 -0.0464  3.5113
  113OSM   H10T11734   4.405   5.793   9.371 -0.6861  1.0973  0.7448
  113OSM   C11S11735   4.241   5.716   9.261 -0.0754  0.0640  0.5737
  113OSM   H11S11736   4.199   5.819   9.253  1.5730  0.7352  0.0684
  113OSM   H11T11737   4.155   5.647   9.269  1.2234 -1.7435 -0.2513
  113OSM   C12S11738   4.324   5.698   9.132  0.6893  0.8184  0.4297
  113OSM   H12S11739   4.400   5.622   9.161 -0.5760 -0.5037  0.4330
  113OSM   H12T11740   4.385   5.786   9.103 -1.6449  2.0214 -1.1528
  113OSM   C13S11741   4.247   5.652   9.008 -0.0134 -0.1291  0.4987
  113OSM   H13S11742   4.183   5.569   9.047 -1.1224 -0.0461 -1.0779
  113OSM   H13T11743   4.311   5.611   8.928  0.9086 -0.8398  1.5653
  113OSM   C14S11744   4.171   5.774   8.943 -0.7345 -0.3787  0.3966
  113OSM   H14S11745   4.191   5.869   8.995  0.6493 -0.4490  0.0299
  113OSM   H14T11746   4.062   5.751   8.949 -1.0423  1.1968  1.1677
  113OSM   C15S11747   4.210   5.794   8.791 -0.6487 -0.1903  0.0860
  113OSM   H15S11748   4.317   5.779   8.769 -0.4590  1.8426 -0.6176
  113OSM   H15T11749   4.184   5.899   8.766 -1.3732 -0.4037 -0.0881
  113OSM   C16S11750   4.141   5.681   8.707  0.1894  0.0861  0.2312
  113OSM   H16S11751   4.036   5.668   8.741  0.0301  1.3883  0.2897
  113OSM   H16T11752   4.201   5.590   8.728  2.2145  0.8676 -1.6780
  113OSM   C17S11753   4.167   5.696   8.552  0.0465  0.0266 -0.4456
  113OSM   H17S11754   4.273   5.675   8.528 -0.1037  0.3212 -1.4066
  113OSM   H17T11755   4.149   5.802   8.527 -0.5209  0.6547  2.3128
  113OSM   C18S11756   4.075   5.608   8.470  0.0412  0.6665 -0.0496
  113OSM   H18S11757   4.115   5.504   8.468  0.5584  0.8437  0.7165
  113OSM   H18T11758   4.071   5.643   8.364 -0.0577  0.7094 -0.0324
  113OSM   H18U11759   3.967   5.604   8.496  0.2621  0.3910  0.8375
  113OSM    C1F11760   4.110   6.121  10.173 -0.3521  0.2915  0.2968
  113OSM     OF11761   4.189   6.167  10.256  0.3139 -0.6051  0.1159
  113OSM    C2F11762   4.054   6.204  10.072 -0.0962  0.5143  0.6941
  113OSM    H2F11763   4.130   6.285  10.062  1.8423 -1.3990 -1.1382
  113OSM    H2G11764   3.960   6.253  10.106 -1.8980 -2.4435  0.3382
  113OSM    C3F11765   4.011   6.131   9.937 -0.5448 -0.4528 -0.4994
  113OSM    H3F11766   3.930   6.056   9.954 -0.4131 -0.7129 -0.9962
  113OSM    H3G11767   4.090   6.071   9.886  1.0563  1.1464  0.0008
  113OSM    C4F11768   3.951   6.242   9.842  0.2321  0.2263  1.0929
  113OSM    H4F11769   4.021   6.324   9.813 -0.8364  0.0659 -2.4545
  113OSM    H4G11770   3.856   6.288   9.877 -0.5520 -0.4043 -0.1557
  113OSM    C5F11771   3.918   6.171   9.708 -1.0393 -0.1323 -0.8065
  113OSM    H5F11772   3.831   6.102   9.712 -1.6055  0.6332  0.7973
  113OSM    H5G11773   4.001   6.101   9.686  0.1194  1.7753 -2.8515
  113OSM    C6F11774   3.913   6.274   9.600 -0.0674  0.1926 -0.8604
  113OSM    H6F11775   4.013   6.321   9.600  0.3644 -0.6683  0.3626
  113OSM    H6G11776   3.839   6.355   9.622  0.3783  0.2099  0.6890
  113OSM    C7F11777   3.898   6.220   9.463  0.0494 -0.6218 -0.0236
  113OSM    H7F11778   3.809   6.155   9.467 -0.2073 -0.5269 -2.6219
  113OSM    H7G11779   3.989   6.163   9.435 -1.3969 -2.6732 -0.8104
  113OSM    C8F11780   3.881   6.335   9.358 -0.4505 -0.5733 -0.3303
  113OSM    H8F11781   3.824   6.420   9.400  1.9419  0.9067  0.1350
  113OSM    H8G11782   3.824   6.289   9.274 -0.9943 -3.1858  1.3485
  113OSM    C9F11783   4.020   6.383   9.305  0.5998 -0.5691  0.2454
  113OSM    H9F11784   4.054   6.478   9.348  0.2329 -0.6479  0.7263
  113OSM   C10F11785   4.085   6.346   9.197 -0.0804 -0.3001  0.3053
  113OSM   H10F11786   4.192   6.371   9.202  0.2526 -1.4037 -0.6336
  113OSM   C11F11787   4.044   6.242   9.094 -0.1728  0.2001  0.0491
  113OSM   H11F11788   3.951   6.186   9.115  0.3953 -1.8522 -2.4012
  113OSM   H11G11789   4.127   6.170   9.081 -2.1846 -2.1757 -0.3638
  113OSM   C12F11790   4.022   6.301   8.962  0.2789 -0.6325  0.8990
  113OSM   H12F11791   4.003   6.213   8.897 -1.8400  0.3633  0.0927
  113OSM   H12G11792   4.108   6.362   8.924 -0.3666 -0.6001 -0.5676
  113OSM   C13F11793   3.916   6.406   8.940  0.2206  0.2225  0.6198
  113OSM   H13F11794   3.956   6.502   8.981 -2.1597  2.0029 -0.9899
  113OSM   H13G11795   3.826   6.381   8.999 -0.3821 -0.8449 -0.7025
  113OSM   C14F11796   3.867   6.424   8.801 -0.1198  0.4146 -0.1127
  113OSM   H14F11797   3.765   6.465   8.790  0.0906  1.3817  1.2387
  113OSM   H14G11798   3.877   6.336   8.734  1.4008  0.2215  0.3252
  113OSM   C15F11799   3.952   6.535   8.720  0.2530 -0.0653 -0.5538
  113OSM   H15F11800   4.049   6.491   8.688 -0.0088 -1.1467  0.1008
  113OSM   H15G11801   3.973   6.605   8.804 -1.1399  0.4584 -0.6108
  113OSM   C16F11802   3.886   6.602   8.606 -0.1646  0.1882 -0.0630
  113OSM   H16F11803   3.859   6.531   8.524 -0.0595 -0.8521  0.7910
  113OSM   H16G11804   3.962   6.670   8.560  0.9612 -0.7919  0.2987
  113OSM   C17F11805   3.773   6.699   8.647  0.1891 -0.0952  0.3551
  113OSM   H17F11806   3.810   6.757   8.734  1.8914  0.4076 -0.6624
  113OSM   H17G11807   3.691   6.637   8.690  1.3359  0.8165  4.2809
  113OSM   C18F11808   3.704   6.785   8.548 -0.5779  0.5004  0.4225
  113OSM   H18F11809   3.717   6.894   8.567 -3.0402  0.6361  1.6264
  113OSM   H18G11810   3.595   6.769   8.541 -0.5299  0.5688 -0.5992
  113OSM   H18H11811   3.749   6.771   8.447 -1.1389 -0.4487  0.2943
  114OSM      N11812   2.626   4.781  11.442 -0.2722  0.0014  0.0556
  114OSM    C1511813   2.600   4.758  11.296  0.2177  0.0501  0.1322
  114OSM   H15A11814   2.698   4.765  11.252  0.7187 -0.1416  1.1997
  114OSM   H15B11815   2.533   4.830  11.251 -0.8148 -0.9510  0.0174
  114OSM   H15C11816   2.570   4.655  11.285 -2.0572  0.3375  2.5830
  114OSM    C1411817   2.504   4.745  11.519 -0.2604 -0.1630  1.1489
  114OSM   H14A11818   2.424   4.807  11.482 -0.6927 -1.2435  0.1901
  114OSM   H14B11819   2.514   4.766  11.624 -2.1611  2.2588  0.9158
  114OSM   H14C11820   2.475   4.641  11.511 -1.1713  0.1633 -0.1489
  114OSM    C1311821   2.733   4.684  11.479  0.1342  0.0267 -0.1691
  114OSM   H13A11822   2.718   4.582  11.446 -0.2428  0.1348 -0.3377
  114OSM   H13B11823   2.767   4.681  11.581  0.3257 -1.1367 -0.2515
  114OSM   H13C11824   2.813   4.723  11.417 -1.4661  1.3387 -1.5318
  114OSM    C1211825   2.672   4.925  11.459 -0.0486  0.1787 -0.7903
  114OSM   H12A11826   2.703   4.949  11.559  1.2458 -1.1578 -0.8414
  114OSM   H12B11827   2.591   4.987  11.423 -1.2056 -1.3324 -0.8415
  114OSM    C1111828   2.799   4.965  11.367 -0.0527 -0.3287  0.6527
  114OSM   H11A11829   2.808   5.076  11.367  1.2117 -0.4020 -0.5900
  114OSM   H11B11830   2.768   4.933  11.266 -0.1734  0.1104  0.5477
  114OSM      P11831   3.057   4.919  11.342 -0.0394  0.2399  0.3466
  114OSM    O1311832   3.051   5.030  11.244  0.0995 -0.1929 -0.4430
  114OSM    O1411833   3.171   4.914  11.434  0.1471 -0.5124  0.6710
  114OSM    O1111834   3.066   4.789  11.257 -0.0250  0.3573 -0.2816
  114OSM    O1211835   2.917   4.907  11.418 -0.9248 -0.1187 -0.0806
  114OSM    C1S11836   2.998   4.753  11.140 -0.1145  0.5196 -0.0575
  114OSM    H1S11837   2.917   4.826  11.120  1.1690  1.8374 -0.6390
  114OSM    H1T11838   2.945   4.657  11.157  0.7692  0.0103 -0.1589
  114OSM     NF11839   3.000   4.682  10.902  0.5378 -0.1187 -0.5038
  114OSM    HNF11840   3.021   4.588  10.874  0.3408 -0.2763 -0.1350
  114OSM    C2S11841   3.082   4.739  11.001 -0.0839  0.3368  1.1063
  114OSM    H2S11842   3.114   4.842  10.973  1.1204  0.2806  2.2132
  114OSM    C3S11843   3.213   4.655  11.018 -0.8374 -0.4413 -0.1565
  114OSM    H3S11844   3.181   4.552  11.046 -0.7365 -0.2567  0.6838
  114OSM     O311845   3.290   4.702  11.133 -0.1563  0.3753 -0.8212
  114OSM    HO311846   3.212   4.727  11.181 -0.5621  2.0995 -2.2705
  114OSM    C4S11847   3.301   4.649  10.896  0.6335 -0.9578  0.0630
  114OSM    H4S11848   3.279   4.564  10.830 -0.0614  0.8249 -2.1487
  114OSM    C5S11849   3.397   4.737  10.863  0.5141  0.6203 -0.0495
  114OSM    H5S11850   3.405   4.826  10.927  2.3398 -1.7825  3.3698
  114OSM    C6S11851   3.493   4.728  10.747 -0.5602 -0.4327 -0.7739
  114OSM    H6S11852   3.599   4.724  10.781 -0.6482 -0.2588 -0.4756
  114OSM    H6T11853   3.491   4.820  10.685  1.6921 -0.6870 -1.2910
  114OSM    C7S11854   3.491   4.606  10.652 -0.0848  0.1960  0.2684
  114OSM    H7S11855   3.383   4.583  10.638 -0.5553  2.5183 -0.2816
  114OSM    H7T11856   3.533   4.514  10.697  0.7795  0.6343  0.3657
  114OSM    C8S11857   3.564   4.635  10.519 -1.0031  0.4521 -0.5287
  114OSM    H8S11858   3.665   4.681  10.530 -0.6093 -0.7386  1.1721
  114OSM    H8T11859   3.508   4.718  10.471  2.2528  4.1696  1.4005
  114OSM    C9S11860   3.584   4.511  10.435 -0.3152 -0.6265  0.1615
  114OSM    H9S11861   3.498   4.441  10.444  0.3990 -1.6280 -0.5966
  114OSM    H9T11862   3.672   4.454  10.471 -1.1037 -1.2830  1.1217
  114OSM   C10S11863   3.593   4.559  10.290 -0.1539  0.0816 -0.5385
  114OSM   H10S11864   3.668   4.638  10.274 -0.1871 -0.1833 -2.2275
  114OSM   H10T11865   3.498   4.609  10.263 -0.9661 -1.9526 -1.7211
  114OSM   C11S11866   3.619   4.442  10.198  0.8252  0.3489  0.0659
  114OSM   H11S11867   3.542   4.361  10.196  0.4034  0.6848  1.4207
  114OSM   H11T11868   3.714   4.395  10.231  1.5353  3.2027  2.6125
  114OSM   C12S11869   3.647   4.486  10.045  0.5660  0.3821 -0.2472
  114OSM   H12S11870   3.662   4.595  10.035  0.8757  0.4115  0.4573
  114OSM   H12T11871   3.552   4.464   9.992  1.4917 -2.1634 -1.0106
  114OSM   C13S11872   3.753   4.396   9.983  0.4586  0.2547  0.2069
  114OSM   H13S11873   3.754   4.301  10.041  0.9732 -0.3633 -0.7864
  114OSM   H13T11874   3.852   4.438  10.011  1.6811 -1.2731 -1.5207
  114OSM   C14S11875   3.744   4.378   9.834  0.1119 -0.4442 -0.4362
  114OSM   H14S11876   3.740   4.478   9.786 -1.9799 -2.0186 -3.8941
  114OSM   H14T11877   3.654   4.325   9.797  0.9620  0.3108 -4.0385
  114OSM   C15S11878   3.866   4.299   9.777 -0.0886 -0.3915  0.5586
  114OSM   H15S11879   3.869   4.198   9.825  0.2840 -0.0738  1.2109
  114OSM   H15T11880   3.964   4.344   9.802  0.2781 -1.2036  0.6200
  114OSM   C16S11881   3.847   4.274   9.626  0.2966  0.4250  0.0908
  114OSM   H16S11882   3.846   4.373   9.575  3.6619  0.7588  0.4587
  114OSM   H16T11883   3.741   4.239   9.618  0.3096  0.3322  0.3323
  114OSM   C17S11884   3.953   4.191   9.554  0.6006  0.3311  0.2209
  114OSM   H17S11885   3.935   4.086   9.587 -0.0456  0.0979 -0.8106
  114OSM   H17T11886   4.054   4.227   9.582  0.8300  0.6435 -0.9547
  114OSM   C18S11887   3.943   4.186   9.404 -0.0780 -0.2779  0.1654
  114OSM   H18S11888   4.031   4.135   9.360  0.9650  1.1799  0.4667
  114OSM   H18T11889   3.956   4.285   9.354  1.0690 -1.4596 -1.9935
  114OSM   H18U11890   3.847   4.137   9.376  0.7298 -2.3938  0.9057
  114OSM    C1F11891   2.893   4.737  10.863  0.9738 -0.2296  0.2357
  114OSM     OF11892   2.850   4.844  10.901  0.5224  0.0598  0.5415
  114OSM    C2F11893   2.803   4.651  10.773  0.2468  0.2247 -0.1193
  114OSM    H2F11894   2.701   4.673  10.808  0.2297 -0.9994  0.6530
  114OSM    H2G11895   2.830   4.546  10.798  1.2919  0.3546 -0.6428
  114OSM    C3F11896   2.835   4.678  10.621  0.0255  0.1591  0.8425
  114OSM    H3F11897   2.856   4.784  10.599 -0.2899  0.2451  0.9565
  114OSM    H3G11898   2.750   4.640  10.561  1.0985  2.6502 -2.5269
  114OSM    C4F11899   2.965   4.607  10.567 -0.1241 -0.0015 -0.3824
  114OSM    H4F11900   2.944   4.500  10.587 -0.0826 -0.1483 -1.1166
  114OSM    H4G11901   3.055   4.640  10.624 -0.7078  0.6390  0.1840
  114OSM    C5F11902   2.996   4.623  10.416 -0.6257  1.1304  0.1878
  114OSM    H5F11903   3.026   4.729  10.398 -1.0411  0.8290 -2.5912
  114OSM    H5G11904   2.910   4.611  10.346 -0.3259 -0.4017  0.0492
  114OSM    C6F11905   3.114   4.539  10.372  0.8184 -0.1960  0.1503
  114OSM    H6F11906   3.109   4.431  10.395  0.8624 -0.7325 -2.0919
  114OSM    H6G11907   3.208   4.579  10.417  1.3242 -0.6352 -0.4910
  114OSM    C7F11908   3.125   4.532  10.213 -0.6834  0.1068  0.0899
  114OSM    H7F11909   3.137   4.635  10.173  2.1701  0.8598  2.4961
  114OSM    H7G11910   3.034   4.485  10.170 -0.5215  0.8183 -1.0848
  114OSM    C8F11911   3.248   4.451  10.152 -0.2312 -0.4508 -0.3572
  114OSM    H8F11912   3.338   4.494  10.201  0.3401 -0.4148 -1.3867
  114OSM    H8G11913   3.250   4.478  10.044 -0.5847 -2.5752 -0.9371
  114OSM    C9F11914   3.241   4.302  10.172 -0.1227 -0.5097  0.4494
  114OSM    H9F11915   3.248   4.269  10.276 -2.3283  0.6359  1.0297
  114OSM   C10F11916   3.220   4.213  10.073 -0.1180 -0.4556  0.1812
  114OSM   H10F11917   3.187   4.119  10.119 -1.7845  0.5736  1.2023
  114OSM   C11F11918   3.198   4.242   9.923 -0.7340 -0.1870  0.2089
  114OSM   H11F11919   3.171   4.345   9.891 -1.0811 -0.6645 -1.1335
  114OSM   H11G11920   3.114   4.181   9.884 -0.7729  0.1726 -0.2811
  114OSM   C12F11921   3.323   4.195   9.843  0.7333  0.4260  0.1532
  114OSM   H12F11922   3.341   4.089   9.868  0.4950  0.8516  2.3170
  114OSM   H12G11923   3.414   4.253   9.871  1.8383 -0.0172 -2.2235
  114OSM   C13F11924   3.301   4.195   9.693  0.2397  0.1240 -0.0989
  114OSM   H13F11925   3.281   4.298   9.656  0.7151 -1.1617 -4.4736
  114OSM   H13G11926   3.209   4.135   9.676  0.5001 -0.3597  0.1784
  114OSM   C14F11927   3.416   4.132   9.615  0.5931  0.3841 -0.5826
  114OSM   H14F11928   3.421   4.025   9.645 -1.2451  0.4967  0.2580
  114OSM   H14G11929   3.514   4.166   9.653  1.5654 -1.2315 -1.5160
  114OSM   C15F11930   3.396   4.151   9.463 -0.7004  0.2321  1.1213
  114OSM   H15F11931   3.490   4.131   9.407 -1.6666  0.2498 -0.5698
  114OSM   H15G11932   3.369   4.256   9.436 -1.6352  0.2637  2.1074
  114OSM   C16F11933   3.287   4.059   9.405 -0.2813  0.0675  0.0227
  114OSM   H16F11934   3.194   4.084   9.460  0.8228 -0.8478  2.4498
  114OSM   H16G11935   3.316   3.954   9.427 -1.6074 -0.5430 -1.0306
  114OSM   C17F11936   3.259   4.088   9.261  0.4133  0.2538  0.3368
  114OSM   H17F11937   3.244   4.198   9.258 -0.4814  0.1291 -2.1770
  114OSM   H17G11938   3.162   4.043   9.231  1.1704 -1.9414  0.9530
  114OSM   C18F11939   3.359   4.025   9.161  0.0212  0.0100 -0.2712
  114OSM   H18F11940   3.448   4.090   9.169 -0.8999  1.3170 -0.2335
  114OSM   H18G11941   3.314   4.035   9.060 -1.5820  0.6544  0.4707
  114OSM   H18H11942   3.387   3.923   9.193 -1.3134 -0.2350  0.1940
  115OSM      N11943   6.216   0.863   5.827 -0.1438 -0.1417 -1.6477
  115OSM    C1511944   6.158   0.776   5.724 -0.4398  0.2425  0.3436
  115OSM   H15A11945   6.241   0.725   5.678 -0.4494  0.4060  0.1442
  115OSM   H15B11946   6.099   0.829   5.651  1.7889  0.8214 -1.1291
  115OSM   H15C11947   6.097   0.698   5.768  0.5987 -1.2559 -0.7708
  115OSM    C1411948   6.332   0.930   5.760 -0.1664  0.7846  0.3377
  115OSM   H14A11949   6.408   0.857   5.736 -0.0995  1.0170 -0.1794
  115OSM   H14B11950   6.371   0.997   5.836 -0.3789  0.9622  0.2920
  115OSM   H14C11951   6.301   0.985   5.672  0.2881  0.2092 -0.1925
  115OSM    C1311952   6.112   0.964   5.854 -0.4840  0.5779 -0.1544
  115OSM   H13A11953   6.150   1.029   5.932  1.8130 -2.5863  1.6197
  115OSM   H13B11954   6.022   0.920   5.892  0.3222 -2.7691 -1.7173
  115OSM   H13C11955   6.091   1.024   5.766 -3.0350  0.9065  0.6079
  115OSM    C1211956   6.262   0.788   5.954  0.2461  0.8393 -0.3882
  115OSM   H12A11957   6.175   0.751   6.006 -0.0689  0.5201 -1.1219
  115OSM   H12B11958   6.314   0.861   6.013 -0.5216  0.6854  0.5010
  115OSM    C1111959   6.352   0.665   5.949  0.2367 -0.0131  0.1792
  115OSM   H11A11960   6.289   0.595   5.890 -1.1346  1.6160 -0.3810
  115OSM   H11B11961   6.346   0.630   6.055  0.8785  0.2885  0.3200
  115OSM      P11962   6.589   0.741   5.988  0.6155 -0.1545 -0.1621
  115OSM    O1311963   6.721   0.717   5.930 -0.2032  0.1665  0.6609
  115OSM    O1411964   6.553   0.882   6.006  0.3398 -0.1514 -0.2226
  115OSM    O1111965   6.571   0.660   6.123 -0.4217 -0.2515  0.3192
  115OSM    O1211966   6.473   0.692   5.896 -0.5070 -0.0972  0.9242
  115OSM    C1S11967   6.644   0.711   6.235 -0.2673  0.1333  0.4100
  115OSM    H1S11968   6.595   0.803   6.273 -0.4915 -0.2102  0.9584
  115OSM    H1T11969   6.753   0.727   6.218 -0.3346 -0.0876 -0.2626
  115OSM     NF11970   6.698   0.672   6.468 -0.0277  0.5728 -0.1924
  115OSM    HNF11971   6.797   0.664   6.472 -0.0964 -0.8022 -0.6875
  115OSM    C2S11972   6.645   0.610   6.352 -0.1889 -0.2267  0.5512
  115OSM    H2S11973   6.538   0.582   6.361  0.1204 -1.1068  1.6552
  115OSM    C3S11974   6.701   0.472   6.324  0.1417  0.0628  0.2755
  115OSM    H3S11975   6.809   0.485   6.305  0.0768  0.3740  0.1130
  115OSM     O311976   6.653   0.412   6.200  0.2047  0.4464 -0.5840
  115OSM    HO311977   6.617   0.485   6.149 -1.5103  1.5557  2.0251
  115OSM    C4S11978   6.680   0.379   6.440  0.1922 -0.2989  0.1194
  115OSM    H4S11979   6.769   0.352   6.499 -0.9186 -3.8364  0.4332
  115OSM    C5S11980   6.579   0.315   6.480  0.4520  0.4696  0.3030
  115OSM    H5S11981   6.482   0.331   6.430  0.1280 -1.9377  0.0305
  115OSM    C6S11982   6.574   0.232   6.604 -0.4106  0.0914  0.3661
  115OSM    H6S11983   6.670   0.235   6.661  0.1414 -0.6632 -0.4895
  115OSM    H6T11984   6.547   0.130   6.570  1.6207  0.3004 -2.1669
  115OSM    C7S11985   6.468   0.276   6.708 -0.4553  0.1437  0.8347
  115OSM    H7S11986   6.371   0.264   6.654 -0.7296  1.2776  1.0616
  115OSM    H7T11987   6.472   0.385   6.726 -0.7404  0.0891  1.2718
  115OSM    C8S11988   6.454   0.193   6.830  0.0659 -0.0823 -0.9198
  115OSM    H8S11989   6.546   0.197   6.892 -1.0568  0.5398  0.7900
  115OSM    H8T11990   6.442   0.085   6.808  0.8086 -0.3499 -0.0851
  115OSM    C9S11991   6.355   0.248   6.936  0.3197  0.4539  0.1738
  115OSM    H9S11992   6.256   0.251   6.886 -0.0242  3.9787  0.7863
  115OSM    H9T11993   6.387   0.353   6.954  2.0972  0.0467 -0.4613
  115OSM   C10S11994   6.349   0.173   7.071  0.5237  0.0557  0.2591
  115OSM   H10S11995   6.439   0.208   7.126  2.0317 -0.4470 -1.7451
  115OSM   H10T11996   6.364   0.065   7.052  1.5379  0.5549 -2.2799
  115OSM   C11S11997   6.224   0.202   7.158  0.9786 -0.4567 -0.0014
  115OSM   H11S11998   6.138   0.168   7.097  0.9667  1.3850 -1.1030
  115OSM   H11T11999   6.210   0.311   7.180  0.0202 -0.8778  1.7421
  115OSM   C12S12000   6.239   0.140   7.299 -0.3480  0.1895  0.9296
  115OSM   H12S12001   6.336   0.169   7.344 -0.5320  0.7437  0.9795
  115OSM   H12T12002   6.242   0.031   7.278  2.9032  0.2452  0.6035
  115OSM   C13S12003   6.119   0.170   7.385 -0.3153  0.1726 -0.4656
  115OSM   H13S12004   6.035   0.132   7.324  0.7711 -1.5783 -0.9519
  115OSM   H13T12005   6.110   0.277   7.414 -0.2855 -0.7442  3.6105
  115OSM   C14S12006   6.125   0.085   7.513  0.3098  0.1796  0.0290
  115OSM   H14S12007   6.192   0.142   7.581  0.6209  0.3829 -0.4387
  115OSM   H14T12008   6.166  -0.013   7.480 -0.2834  0.8025 -2.8455
  115OSM   C15S12009   5.989   0.067   7.584 -0.6608 -0.1117 -0.2282
  115OSM   H15S12010   5.936  -0.009   7.522 -0.6506  1.1548 -1.8634
  115OSM   H15T12011   5.932   0.162   7.591 -0.0348  0.2489  0.0389
  115OSM   C16S12012   6.004   0.013   7.730  0.9187 -0.2847 -0.1979
  115OSM   H16S12013   6.063  -0.081   7.727  0.1279 -0.8073  0.2160
  115OSM   H16T12014   5.907  -0.008   7.781  1.4551 -1.0465  0.5207
  115OSM   C17S12015   6.088   0.102   7.816  0.1379 -0.2384 -0.1542
  115OSM   H17S12016   6.053   0.208   7.814  0.2890 -0.1749 -2.3873
  115OSM   H17T12017   6.191   0.104   7.773  0.5822  1.1745  0.9003
  115OSM   C18S12018   6.095   0.058   7.962 -0.2900 -0.5342 -0.5939
  115OSM   H18S12019   5.993   0.046   8.005 -0.4238 -0.5742 -0.9211
  115OSM   H18T12020   6.138   0.141   8.023 -1.2886 -1.1585  1.0218
  115OSM   H18U12021   6.155  -0.035   7.975  2.9625  1.5065  0.1622
  115OSM    C1F12022   6.637   0.775   6.531 -1.1952  0.0711 -0.3124
  115OSM     OF12023   6.529   0.811   6.512  0.4820 -0.0872  0.2652
  115OSM    C2F12024   6.733   0.854   6.619 -0.3697 -0.2099  0.5455
  115OSM    H2F12025   6.773   0.926   6.544  0.8619 -2.7595 -1.4034
  115OSM    H2G12026   6.823   0.802   6.658 -2.4117 -2.1187  3.1754
  115OSM    C3F12027   6.688   0.918   6.751  0.2462 -0.5632  0.0982
  115OSM    H3F12028   6.673   0.836   6.825  2.4632  1.2441  2.7945
  115OSM    H3G12029   6.591   0.971   6.744 -0.3651 -1.4999  1.1694
  115OSM    C4F12030   6.787   1.016   6.816  0.3559  0.1858  0.3907
  115OSM    H4F12031   6.734   1.066   6.900 -0.0477  0.0268  0.2378
  115OSM    H4G12032   6.817   1.092   6.741  0.0045  0.1806  0.2426
  115OSM    C5F12033   6.929   0.969   6.854  0.6409 -0.1918 -0.6198
  115OSM    H5F12034   6.994   1.050   6.891 -0.4638 -0.3793  1.9213
  115OSM    H5G12035   6.980   0.930   6.763  2.2685 -2.6040  1.1856
  115OSM    C6F12036   6.925   0.866   6.970  0.4022  0.0220  0.1585
  115OSM    H6F12037   6.844   0.790   6.970  2.3052 -2.1218  1.3536
  115OSM    H6G12038   6.903   0.927   7.060  1.1005  1.5660 -0.6631
  115OSM    C7F12039   7.060   0.794   6.973 -0.6258 -0.0729  0.6938
  115OSM    H7F12040   7.145   0.865   6.964  0.5545 -1.1826  2.5682
  115OSM    H7G12041   7.057   0.729   6.883  2.0026 -2.6879  2.3309
  115OSM    C8F12042   7.082   0.694   7.085  0.1107 -0.3692  0.2463
  115OSM    H8F12043   6.986   0.646   7.112  0.9219 -1.6816  0.8661
  115OSM    H8G12044   7.113   0.753   7.174 -0.7800 -0.1524  0.4226
  115OSM    C9F12045   7.192   0.590   7.050  0.2667  0.6116 -0.7236
  115OSM    H9F12046   7.174   0.545   6.952 -0.5547  1.3347 -0.9135
  115OSM   C10F12047   7.299   0.563   7.120  0.5737 -0.1244  0.1921
  115OSM   H10F12048   7.366   0.485   7.082 -2.6020 -2.4140 -1.1655
  115OSM   C11F12049   7.348   0.634   7.253 -0.1013  0.5284  0.5494
  115OSM   H11F12050   7.270   0.702   7.295 -0.7210  0.3066 -0.2228
  115OSM   H11G12051   7.442   0.689   7.231 -0.0118  0.9738  1.9294
  115OSM   C12F12052   7.370   0.526   7.358  0.0758  0.4677 -0.0403
  115OSM   H12F12053   7.433   0.445   7.315 -0.0554 -0.4920  1.5066
  115OSM   H12G12054   7.281   0.466   7.387  2.1334 -2.1010  1.4430
  115OSM   C13F12055   7.449   0.578   7.485  0.0303 -0.1005  1.1189
  115OSM   H13F12056   7.383   0.654   7.532  0.4798 -0.3389  2.1536
  115OSM   H13G12057   7.539   0.638   7.461  0.4098 -1.0328  0.1194
  115OSM   C14F12058   7.475   0.460   7.574 -0.2580 -0.4613 -0.1638
  115OSM   H14F12059   7.499   0.374   7.509 -1.7664 -0.4856 -0.7335
  115OSM   H14G12060   7.386   0.424   7.630 -2.5698  1.7679 -2.1679
  115OSM   C15F12061   7.586   0.476   7.685 -0.4554 -0.4092 -0.3534
  115OSM   H15F12062   7.691   0.482   7.650 -0.1998  0.2107  0.4738
  115OSM   H15G12063   7.579   0.386   7.749  1.9753 -2.0863 -2.2837
  115OSM   C16F12064   7.575   0.594   7.768  0.1864  0.4352 -0.1522
  115OSM   H16F12065   7.573   0.684   7.703 -0.1167 -1.8635 -3.5861
  115OSM   H16G12066   7.668   0.590   7.829  0.8365 -2.1747 -1.1933
  115OSM   C17F12067   7.454   0.584   7.873 -0.4416 -0.8021  0.4255
  115OSM   H17F12068   7.363   0.619   7.819 -0.2799  0.3591  0.8748
  115OSM   H17G12069   7.477   0.653   7.956 -2.5094  0.3467  0.1378
  115OSM   C18F12070   7.433   0.446   7.936  0.2867  0.1888 -0.4610
  115OSM   H18F12071   7.356   0.448   8.016  0.5735 -0.7353 -0.1422
  115OSM   H18G12072   7.529   0.405   7.974  0.5730 -0.6656 -2.0347
  115OSM   H18H12073   7.395   0.376   7.859 -0.3953 -1.1452  1.0354
  116OSM      N12074   0.125   5.870   5.900  0.2501 -0.3441 -0.7071
  116OSM    C1512075  -0.001   5.918   5.974  0.4364  0.0709  0.0253
  116OSM   H15A12076  -0.028   6.022   5.959 -1.0206 -0.2028  0.6051
  116OSM   H15B12077   0.009   5.896   6.080  0.0494 -1.3859 -0.2235
  116OSM   H15C12078  -0.086   5.859   5.944  0.2888  0.5044 -0.4139
  116OSM    C1412079   0.104   5.727   5.888 -0.6622 -0.2088 -0.0596
  116OSM   H14A12080   0.139   5.682   5.979 -0.5863  0.0936  0.0645
  116OSM   H14B12081   0.161   5.692   5.803  0.1211  1.5299 -0.3001
  116OSM   H14C12082  -0.003   5.711   5.884 -0.7420  0.3068 -0.0981
  116OSM    C1312083   0.124   5.926   5.766  0.3011 -0.1982  0.5519
  116OSM   H13A12084   0.039   5.896   5.707  0.5568  0.1509 -0.0065
  116OSM   H13B12085   0.211   5.905   5.704 -0.5887  0.0420 -0.8282
  116OSM   H13C12086   0.101   6.031   5.767 -2.2859 -0.6849 -0.2022
  116OSM    C1212087   0.257   5.911   5.963  0.1479 -0.6659 -0.1407
  116OSM   H12A12088   0.257   6.019   5.958  2.1721 -0.4889  1.9165
  116OSM   H12B12089   0.341   5.865   5.913 -0.8464 -1.8858 -0.7512
  116OSM    C1112090   0.268   5.875   6.112 -0.1655  0.4432 -0.2278
  116OSM   H11A12091   0.183   5.922   6.166  0.5394  1.1926  0.2487
  116OSM   H11B12092   0.361   5.915   6.157  0.1777 -0.0703 -0.4661
  116OSM      P12093   0.391   5.644   6.119 -0.4321 -0.2749  0.4744
  116OSM    O1312094   0.363   5.547   6.016 -0.2331  0.4480 -0.1764
  116OSM    O1412095   0.509   5.732   6.095 -0.8807  0.1885 -0.3261
  116OSM    O1112096   0.413   5.575   6.260  0.2791 -0.3666  0.4224
  116OSM    O1212097   0.262   5.732   6.137 -0.1161 -0.1036 -0.4186
  116OSM    C1S12098   0.424   5.649   6.380 -0.0750  0.8083 -0.7848
  116OSM    H1S12099   0.325   5.696   6.402 -0.2685 -0.2347  0.7170
  116OSM    H1T12100   0.501   5.729   6.387  0.0672  0.6599 -0.6447
  116OSM     NF12101   0.436   5.610   6.632 -0.2907  0.0632  0.1823
  116OSM    HNF12102   0.525   5.630   6.670 -0.5799  4.4760 -0.9429
  116OSM    C2S12103   0.444   5.550   6.497  0.2066  0.3085 -0.0146
  116OSM    H2S12104   0.361   5.476   6.490  0.4521 -0.2024  1.8352
  116OSM    C3S12105   0.574   5.470   6.480 -0.1830  0.2119 -0.0215
  116OSM    H3S12106   0.654   5.547   6.485  1.2872 -1.1767 -1.1173
  116OSM     O312107   0.593   5.404   6.350 -0.4395  0.1976 -0.1758
  116OSM    HO312108   0.538   5.446   6.284 -0.7843  2.2838  1.3481
  116OSM    C4S12109   0.596   5.363   6.589 -0.1986  0.1592 -0.1762
  116OSM    H4S12110   0.511   5.295   6.598  0.8157 -1.1359 -0.1837
  116OSM    C5S12111   0.699   5.343   6.677  0.1824 -0.9159 -0.0644
  116OSM    H5S12112   0.778   5.419   6.666 -0.5686 -0.1403 -0.2352
  116OSM    C6S12113   0.694   5.254   6.795  0.3044  0.5691 -0.3035
  116OSM    H6S12114   0.781   5.185   6.792 -0.1856 -0.0345 -0.8510
  116OSM    H6T12115   0.606   5.186   6.795  0.7313  0.0047 -0.3936
  116OSM    C7S12116   0.694   5.337   6.925  0.1712  0.0471  0.8605
  116OSM    H7S12117   0.610   5.410   6.917  0.3925  0.2102 -0.1047
  116OSM    H7T12118   0.788   5.396   6.935 -0.0029  0.0979  2.5423
  116OSM    C8S12119   0.686   5.260   7.058  0.5400  0.1542 -0.5118
  116OSM    H8S12120   0.785   5.213   7.081  0.7305  1.4627  1.6645
  116OSM    H8T12121   0.602   5.188   7.051 -0.2604  1.0270 -0.1763
  116OSM    C9S12122   0.649   5.362   7.170 -0.2635  0.1298  0.0063
  116OSM    H9S12123   0.554   5.411   7.138 -0.3796 -0.0824  0.0286
  116OSM    H9T12124   0.715   5.451   7.183  1.5166 -1.1843  0.2434
  116OSM   C10S12125   0.621   5.294   7.297  0.4938  0.1690 -0.3576
  116OSM   H10S12126   0.713   5.250   7.341 -0.9353 -0.1956  2.5588
  116OSM   H10T12127   0.544   5.214   7.283  0.8761  0.0423 -1.8610
  116OSM   C11S12128   0.566   5.388   7.395  0.0530 -0.6076  0.8462
  116OSM   H11S12129   0.471   5.427   7.353  0.0097 -2.7631 -1.2368
  116OSM   H11T12130   0.646   5.461   7.421  1.5818 -1.9919  0.2214
  116OSM   C12S12131   0.553   5.312   7.524  0.1538 -0.0333  0.4677
  116OSM   H12S12132   0.649   5.260   7.546  0.2206 -0.3822 -0.5800
  116OSM   H12T12133   0.478   5.233   7.500  0.6088 -0.3132 -0.0455
  116OSM   C13S12134   0.529   5.401   7.646 -0.2424  0.0855  0.0238
  116OSM   H13S12135   0.441   5.467   7.631 -0.3466 -0.4005 -1.6508
  116OSM   H13T12136   0.607   5.479   7.660 -1.5667  1.2095  1.5739
  116OSM   C14S12137   0.519   5.327   7.781  0.5792  0.0972  0.7157
  116OSM   H14S12138   0.611   5.266   7.796  0.5105  0.1865  1.5556
  116OSM   H14T12139   0.433   5.255   7.779 -0.8142  1.6509 -2.0649
  116OSM   C15S12140   0.504   5.416   7.904 -0.7203 -0.7430 -0.6565
  116OSM   H15S12141   0.403   5.462   7.911 -0.0097  0.7525  0.2242
  116OSM   H15T12142   0.583   5.493   7.904  0.7585 -2.1771  0.3145
  116OSM   C16S12143   0.521   5.344   8.043 -0.8221 -0.5840  0.4761
  116OSM   H16S12144   0.606   5.274   8.027 -2.4170 -2.4532 -0.1882
  116OSM   H16T12145   0.431   5.279   8.053  0.2348 -2.6614 -2.2052
  116OSM   C17S12146   0.537   5.431   8.175  0.0414 -0.3552 -0.5577
  116OSM   H17S12147   0.452   5.502   8.183  0.3047 -0.0649 -0.2988
  116OSM   H17T12148   0.620   5.500   8.148  0.3222 -0.5113 -0.1199
  116OSM   C18S12149   0.558   5.340   8.301  0.5215  0.1921  0.2502
  116OSM   H18S12150   0.617   5.252   8.265  0.7505  0.0496  0.9577
  116OSM   H18T12151   0.460   5.313   8.345 -0.2604  0.1106 -1.4584
  116OSM   H18U12152   0.625   5.395   8.370 -0.1287  1.2226  0.0786
  116OSM    C1F12153   0.329   5.679   6.679 -0.2501 -0.1943  0.3199
  116OSM     OF12154   0.221   5.675   6.623  0.7826  0.8579 -0.4633
  116OSM    C2F12155   0.352   5.770   6.800 -0.5484 -0.3673  0.0435
  116OSM    H2F12156   0.245   5.799   6.814 -0.1674 -0.1257  3.1344
  116OSM    H2G12157   0.415   5.858   6.776 -0.8545  0.3566  1.7346
  116OSM    C3F12158   0.398   5.712   6.937  0.4921  0.0767  0.1389
  116OSM    H3F12159   0.500   5.671   6.924  0.2017 -0.1671 -1.5785
  116OSM    H3G12160   0.327   5.631   6.966  1.2583 -0.3039  0.9930
  116OSM    C4F12161   0.397   5.822   7.040  0.2330 -0.1790 -0.2209
  116OSM    H4F12162   0.294   5.863   7.040  0.6710  0.9747 -1.1382
  116OSM    H4G12163   0.455   5.916   7.031 -0.2201  0.1428  0.1317
  116OSM    C5F12164   0.431   5.773   7.186  0.1198 -0.4186 -0.2490
  116OSM    H5F12165   0.539   5.750   7.199  0.5281  0.8666 -1.1829
  116OSM    H5G12166   0.373   5.680   7.203 -2.1307  0.5172 -2.2552
  116OSM    C6F12167   0.401   5.881   7.294 -0.5407  0.1025  0.8471
  116OSM    H6F12168   0.297   5.917   7.278  0.5931  2.4438 -2.3040
  116OSM    H6G12169   0.465   5.967   7.268  0.4409 -1.0774 -0.9064
  116OSM    C7F12170   0.430   5.837   7.435  0.2436  0.0580  0.4739
  116OSM    H7F12171   0.433   5.938   7.481  2.4070  0.9818 -1.5074
  116OSM    H7G12172   0.531   5.792   7.435 -0.1279 -0.8202 -0.5680
  116OSM    C8F12173   0.345   5.739   7.510  0.6216 -0.7938  0.5361
  116OSM    H8F12174   0.393   5.716   7.608 -2.8213 -0.7207  2.4109
  116OSM    H8G12175   0.336   5.647   7.449 -2.9291  0.7450 -1.5669
  116OSM    C9F12176   0.206   5.787   7.533  0.3044 -0.8134 -0.6402
  116OSM    H9F12177   0.155   5.822   7.442 -0.8463  0.3100  0.3987
  116OSM   C10F12178   0.129   5.769   7.643 -0.0054 -0.2065 -0.4955
  116OSM   H10F12179   0.021   5.788   7.640 -0.4327 -1.9899  1.3639
  116OSM   C11F12180   0.180   5.712   7.775  0.0233  0.1175  0.6743
  116OSM   H11F12181   0.181   5.784   7.860 -1.1669  1.2291 -0.2065
  116OSM   H11G12182   0.284   5.675   7.770  0.3763  1.0446  0.8265
  116OSM   C12F12183   0.096   5.582   7.799 -0.2645 -0.0034 -0.5621
  116OSM   H12F12184   0.126   5.492   7.740 -1.8119  1.1492 -3.3295
  116OSM   H12G12185  -0.005   5.593   7.754 -0.5339  0.3999  0.1412
  116OSM   C13F12186   0.084   5.549   7.949 -0.9073 -0.8384  0.4760
  116OSM   H13F12187   0.186   5.535   7.990 -0.4373 -1.8308 -0.9488
  116OSM   H13G12188   0.028   5.452   7.948  0.1582 -1.4618 -0.7852
  116OSM   C14F12189   0.009   5.654   8.022  0.4489  0.2028 -0.1844
  116OSM   H14F12190  -0.081   5.691   7.968 -1.3289 -1.1670  1.7029
  116OSM   H14G12191   0.072   5.742   8.046  1.8426 -0.7686 -0.1973
  116OSM   C15F12192  -0.033   5.601   8.160 -0.4980  0.6961 -0.2868
  116OSM   H15F12193   0.055   5.575   8.223 -0.9464 -1.6077 -0.5103
  116OSM   H15G12194  -0.096   5.510   8.151 -0.1707  0.5678 -1.4282
  116OSM   C16F12195  -0.105   5.710   8.243  0.0536  0.5976  0.2472
  116OSM   H16F12196  -0.205   5.735   8.200  0.1625  2.5262  1.0268
  116OSM   H16G12197  -0.062   5.809   8.218 -0.9678  0.5837 -1.8538
  116OSM   C17F12198  -0.116   5.671   8.388 -0.6621  0.6625  0.4156
  116OSM   H17F12199  -0.012   5.666   8.427  0.0748  0.4233 -1.5010
  116OSM   H17G12200  -0.163   5.573   8.411  0.5787 -0.0232  0.1049
  116OSM   C18F12201  -0.177   5.777   8.475 -0.3237  0.1094 -0.2310
  116OSM   H18F12202  -0.101   5.858   8.468  0.4451 -0.4896  1.0150
  116OSM   H18G12203  -0.188   5.737   8.578  0.6564  1.8302  0.5980
  116OSM   H18H12204  -0.278   5.811   8.442 -0.3509  0.2147 -0.0403
  117OSM      N12205   5.027   0.591   5.884  0.1646  0.0926  0.0824
  117OSM    C1512206   5.038   0.541   5.743 -0.2522  0.3526  0.3259
  117OSM   H15A12207   4.995   0.615   5.677  1.8140  2.3365  1.0815
  117OSM   H15B12208   4.999   0.440   5.741  2.1712 -0.6481  0.2364
  117OSM   H15C12209   5.142   0.533   5.716 -0.2629 -2.5181  0.7573
  117OSM    C1412210   5.105   0.727   5.885 -0.7160 -0.4810  0.7831
  117OSM   H14A12211   5.057   0.797   5.819 -2.6001 -2.6561 -0.2882
  117OSM   H14B12212   5.204   0.709   5.847 -0.5793  1.8966 -0.1283
  117OSM   H14C12213   5.105   0.763   5.987  0.6857  0.1914  0.5686
  117OSM    C1312214   4.887   0.602   5.921 -0.6525  0.0271  0.3321
  117OSM   H13A12215   4.885   0.617   6.028 -0.2789  0.3145  0.2992
  117OSM   H13B12216   4.838   0.507   5.904  0.8386 -0.2582 -3.2304
  117OSM   H13C12217   4.832   0.681   5.872 -1.4532 -0.6683  0.0758
  117OSM    C1212218   5.095   0.494   5.983  0.6739  0.2988  0.3463
  117OSM   H12A12219   5.195   0.474   5.946  0.0128 -2.5251 -0.1917
  117OSM   H12B12220   5.040   0.401   5.985  1.3708 -0.1154  2.5554
  117OSM    C1112221   5.107   0.541   6.128 -0.5530  0.1312  0.2619
  117OSM   H11A12222   5.122   0.457   6.199  0.0798  0.2873  0.3186
  117OSM   H11B12223   5.012   0.590   6.157 -0.0365  1.5728 -0.3778
  117OSM      P12224   5.364   0.571   6.129 -0.1614  0.0354 -0.0926
  117OSM    O1312225   5.383   0.497   6.006  0.3531  0.9132 -0.1622
  117OSM    O1412226   5.451   0.683   6.149  0.4193 -0.5217 -0.2145
  117OSM    O1112227   5.371   0.474   6.256 -0.4101 -0.2117  0.6349
  117OSM    O1212228   5.223   0.631   6.134 -0.1212 -0.0260  0.1325
  117OSM    C1S12229   5.499   0.432   6.304 -0.0738 -0.5641 -0.6809
  117OSM    H1S12230   5.547   0.519   6.352 -1.4691  0.0361 -0.3288
  117OSM    H1T12231   5.566   0.385   6.228  2.0056  1.3810 -0.1543
  117OSM     NF12232   5.572   0.334   6.525  0.7565  0.4041 -0.0932
  117OSM    HNF12233   5.647   0.269   6.517  0.3657 -0.3890  2.1371
  117OSM    C2S12234   5.472   0.327   6.416  0.0270 -0.7039 -0.8699
  117OSM    H2S12235   5.376   0.363   6.458  0.8115  2.1404 -1.2581
  117OSM    C3S12236   5.467   0.188   6.360  0.6086  0.2706  0.1276
  117OSM    H3S12237   5.555   0.171   6.295  2.5088  1.2919  2.2953
  117OSM     O312238   5.362   0.173   6.259  0.1552  0.3997 -0.6281
  117OSM    HO312239   5.340   0.261   6.228  1.9641  0.9673 -0.3969
  117OSM    C4S12240   5.444   0.085   6.471 -0.3161 -0.5199 -0.2026
  117OSM    H4S12241   5.341   0.083   6.510 -1.4364 -1.3670 -2.9830
  117OSM    C5S12242   5.532  -0.009   6.509  0.3297 -0.0765  0.6789
  117OSM    H5S12243   5.626   0.004   6.454 -0.0337  0.5209  0.1710
  117OSM    C6S12244   5.505  -0.116   6.614  0.3562 -0.1824 -0.8291
  117OSM    H6S12245   5.590  -0.184   6.632 -0.4038 -0.6600  1.2444
  117OSM    H6T12246   5.413  -0.177   6.599  0.4523 -0.8641  1.1184
  117OSM    C7S12247   5.488  -0.055   6.750  0.0241  0.4707  0.5373
  117OSM    H7S12248   5.462  -0.144   6.811 -1.0919 -0.1320 -0.7549
  117OSM    H7T12249   5.408   0.022   6.750 -2.2157 -1.6644 -1.7229
  117OSM    C8S12250   5.618   0.010   6.808 -0.2221  0.1470  0.6149
  117OSM    H8S12251   5.655   0.071   6.723  1.4548  0.0199  1.2293
  117OSM    H8T12252   5.685  -0.078   6.823 -0.4389 -0.3066 -0.8155
  117OSM    C9S12253   5.602   0.088   6.937  1.1423  1.0178  0.0612
  117OSM    H9S12254   5.526   0.169   6.934 -0.2957 -0.3091 -2.4499
  117OSM    H9T12255   5.696   0.146   6.949  1.3395  0.7927 -0.3626
  117OSM   C10S12256   5.579  -0.009   7.057 -0.2204 -0.2060  0.1774
  117OSM   H10S12257   5.663  -0.081   7.058  0.6805  0.7752 -1.2029
  117OSM   H10T12258   5.475  -0.048   7.059 -0.3170 -0.0007 -0.6320
  117OSM   C11S12259   5.596   0.067   7.197  0.5774  0.3221  0.3088
  117OSM   H11S12260   5.523   0.150   7.205 -0.3461 -0.4927  0.5563
  117OSM   H11T12261   5.703   0.097   7.197  1.0263 -1.0646 -1.5382
  117OSM   C12S12262   5.572  -0.030   7.313  0.0628  0.3526 -0.0505
  117OSM   H12S12263   5.654  -0.104   7.320  1.5489  2.0965  2.5968
  117OSM   H12T12264   5.480  -0.091   7.314 -0.0608  0.5150  1.6739
  117OSM   C13S12265   5.575   0.049   7.449 -0.0959  0.3160 -0.3049
  117OSM   H13S12266   5.499   0.130   7.441  3.4969  4.1720  0.6123
  117OSM   H13T12267   5.667   0.112   7.455  0.3376  0.0680 -2.8530
  117OSM   C14S12268   5.531  -0.039   7.569 -0.9888 -0.3483  0.8536
  117OSM   H14S12269   5.598  -0.128   7.563 -1.6237 -0.7401 -1.0198
  117OSM   H14T12270   5.433  -0.088   7.552  1.2830 -4.8292 -1.2893
  117OSM   C15S12271   5.539   0.027   7.707 -0.3645 -0.6237  0.3721
  117OSM   H15S12272   5.471   0.114   7.709  0.5043  0.1763 -1.9994
  117OSM   H15T12273   5.641   0.069   7.723 -0.8813  0.6519  0.4600
  117OSM   C16S12274   5.514  -0.077   7.808 -0.1812  0.1948  0.1218
  117OSM   H16S12275   5.573  -0.167   7.780 -0.9611 -0.6136  0.9948
  117OSM   H16T12276   5.407  -0.105   7.792  0.0168  0.1750 -1.2747
  117OSM   C17S12277   5.542  -0.036   7.954 -0.3739  0.7467 -0.1957
  117OSM   H17S12278   5.475   0.047   7.986 -0.2803  1.0949 -0.8649
  117OSM   H17T12279   5.646   0.000   7.968  0.2489 -1.2311  0.6089
  117OSM   C18S12280   5.526  -0.150   8.044 -0.6739 -0.6990  0.2355
  117OSM   H18S12281   5.580  -0.238   8.003 -0.4606 -0.3269 -0.2961
  117OSM   H18T12282   5.422  -0.179   8.072 -0.2379  0.6330  3.6314
  117OSM   H18U12283   5.568  -0.139   8.146 -1.0041 -1.9330  0.5285
  117OSM    C1F12284   5.582   0.438   6.614  0.5386 -0.2039  0.9422
  117OSM     OF12285   5.499   0.532   6.611 -0.3001  0.6208 -0.5741
  117OSM    C2F12286   5.701   0.434   6.710  0.4574  0.1217 -0.3900
  117OSM    H2F12287   5.775   0.514   6.687  0.0657  0.5951 -0.0158
  117OSM    H2G12288   5.748   0.334   6.695  1.3101  0.3399  0.6773
  117OSM    C3F12289   5.661   0.452   6.854 -0.0531  0.2313  0.7366
  117OSM    H3F12290   5.584   0.373   6.868  0.4294 -0.2468  0.7316
  117OSM    H3G12291   5.606   0.546   6.874 -0.5127  0.2270 -0.4366
  117OSM    C4F12292   5.780   0.438   6.950  0.2054  0.5779 -0.5085
  117OSM    H4F12293   5.857   0.511   6.917  0.6214  0.8057  0.8954
  117OSM    H4G12294   5.834   0.342   6.932  0.1559  0.4485  0.0008
  117OSM    C5F12295   5.745   0.456   7.102  0.2966 -0.5077  0.2389
  117OSM    H5F12296   5.644   0.411   7.109  0.8179 -1.5476  1.6234
  117OSM    H5G12297   5.741   0.566   7.120 -0.2268 -0.9456  3.3732
  117OSM    C6F12298   5.843   0.392   7.196  0.9615 -0.7973  0.1207
  117OSM    H6F12299   5.946   0.434   7.197  1.4627 -1.8895 -1.4099
  117OSM    H6G12300   5.850   0.287   7.160 -2.0979 -2.3387  3.3958
  117OSM    C7F12301   5.783   0.370   7.336 -0.4420 -0.4036 -0.2744
  117OSM    H7F12302   5.869   0.331   7.395 -0.1280 -0.2413 -0.6233
  117OSM    H7G12303   5.707   0.290   7.332  0.0959 -0.9205 -0.3057
  117OSM    C8F12304   5.739   0.498   7.415 -0.4147 -0.1944  0.4254
  117OSM    H8F12305   5.684   0.462   7.504  0.0987  0.4413  1.0090
  117OSM    H8G12306   5.674   0.550   7.342 -0.7317 -0.4477  0.5255
  117OSM    C9F12307   5.858   0.586   7.450 -0.4863  1.1422 -0.0770
  117OSM    H9F12308   5.884   0.659   7.372 -1.0842  0.5104 -0.8805
  117OSM   C10F12309   5.930   0.577   7.562 -0.3449 -0.7458  0.0871
  117OSM   H10F12310   6.016   0.641   7.588 -1.0400 -0.3769  1.5779
  117OSM   C11F12311   5.897   0.482   7.674 -0.0819  1.2475  0.0671
  117OSM   H11F12312   5.989   0.460   7.732  1.1267  0.7244 -1.9417
  117OSM   H11G12313   5.864   0.384   7.635  0.6771  2.4805 -4.1907
  117OSM   C12F12314   5.786   0.516   7.773  0.2637  0.1957  0.1464
  117OSM   H12F12315   5.693   0.531   7.714 -0.8705 -2.7029  1.0005
  117OSM   H12G12316   5.808   0.606   7.833  0.7267  1.7701 -2.2725
  117OSM   C13F12317   5.745   0.402   7.871 -0.3621 -0.5570 -0.0847
  117OSM   H13F12318   5.754   0.306   7.817 -0.2014  0.2944 -1.6083
  117OSM   H13G12319   5.638   0.422   7.894 -0.6702 -0.9802 -1.1094
  117OSM   C14F12320   5.822   0.404   8.002 -0.1604  0.0713  0.3938
  117OSM   H14F12321   5.797   0.491   8.067  0.3113  0.5811 -0.0986
  117OSM   H14G12322   5.931   0.392   7.983 -0.0661 -0.8404  1.4356
  117OSM   C15F12323   5.777   0.295   8.100 -0.3562  0.1679  0.3810
  117OSM   H15F12324   5.804   0.199   8.051 -1.4977  0.6671 -1.3016
  117OSM   H15G12325   5.668   0.285   8.124 -1.0169  0.8763 -2.0890
  117OSM   C16F12326   5.837   0.327   8.242  0.7988 -0.4030  0.4290
  117OSM   H16F12327   5.783   0.413   8.287 -0.3056 -0.9560  0.1999
  117OSM   H16G12328   5.942   0.352   8.218  1.0988 -0.8460  1.2617
  117OSM   C17F12329   5.844   0.205   8.338  0.0033 -0.2954  0.0544
  117OSM   H17F12330   5.862   0.274   8.423  1.2452  0.7309 -0.9932
  117OSM   H17G12331   5.744   0.159   8.348  0.0797 -0.7710 -1.1298
  117OSM   C18F12332   5.951   0.093   8.309  0.0055 -0.2457 -0.3082
  117OSM   H18F12333   6.055   0.127   8.291  1.1118 -2.9597  0.4869
  117OSM   H18G12334   5.922   0.038   8.218  1.6218 -1.6393 -0.0226
  117OSM   H18H12335   5.958   0.010   8.382 -2.1204 -0.0765  0.1699
  118OSM      N12336   0.160   1.777   6.240  0.0643 -0.7537  0.4527
  118OSM    C1512337   0.245   1.904   6.252  0.4778  0.6158 -0.5476
  118OSM   H15A12338   0.206   1.977   6.183 -0.0140  1.7282  0.8453
  118OSM   H15B12339   0.349   1.885   6.231  0.9734  0.5064  1.7720
  118OSM   H15C12340   0.233   1.949   6.350 -2.8632  1.4095 -1.1676
  118OSM    C1412341   0.019   1.806   6.279 -0.2076  0.1802  0.2394
  118OSM   H14A12342  -0.046   1.721   6.264 -3.9020  2.0210  3.6360
  118OSM   H14B12343  -0.023   1.886   6.219  2.5031  0.0810 -1.9672
  118OSM   H14C12344   0.010   1.824   6.386 -1.5595  0.8769  0.0352
  118OSM    C1312345   0.160   1.735   6.097 -0.0624  0.5201 -0.0091
  118OSM   H13A12346   0.257   1.698   6.068  0.3269  0.0539  1.7758
  118OSM   H13B12347   0.136   1.819   6.034  1.2042 -0.5902 -2.0653
  118OSM   H13C12348   0.086   1.661   6.074  2.7496 -2.2011 -0.9811
  118OSM    C1212349   0.216   1.662   6.311 -0.0418 -0.0014  0.4837
  118OSM   H12A12350   0.153   1.577   6.290  0.1669 -0.3827  1.3618
  118OSM   H12B12351   0.208   1.680   6.417 -0.8612  1.4613  0.2056
  118OSM    C1112352   0.367   1.626   6.276  0.1789  0.4089  0.3906
  118OSM   H11A12353   0.404   1.556   6.355  0.5893  0.4497  0.2344
  118OSM   H11B12354   0.432   1.713   6.299  0.5447  0.7083 -1.6510
  118OSM      P12355   0.535   1.566   6.097 -0.1497  0.4837 -0.3418
  118OSM    O1312356   0.544   1.459   5.994 -0.8521 -0.4686  0.2688
  118OSM    O1412357   0.584   1.695   6.057 -0.0782 -0.8488  0.2486
  118OSM    O1112358   0.611   1.523   6.230  0.3471 -0.0366  0.2957
  118OSM    O1212359   0.388   1.574   6.146 -0.1442 -0.1122  0.4408
  118OSM    C1S12360   0.611   1.395   6.288  0.6078 -0.3905 -0.1873
  118OSM    H1S12361   0.646   1.321   6.212 -2.1865  0.0083 -2.0275
  118OSM    H1T12362   0.510   1.368   6.324  0.3321  1.9745  0.9894
  118OSM     NF12363   0.722   1.254   6.466 -0.5287 -0.5318  0.3347
  118OSM    HNF12364   0.679   1.233   6.554 -0.3611  1.3438  0.9317
  118OSM    C2S12365   0.706   1.389   6.409  0.1615 -0.3505 -1.1896
  118OSM    H2S12366   0.806   1.425   6.377 -0.3918 -0.1438 -2.7725
  118OSM    C3S12367   0.654   1.499   6.506  0.0124  0.1315 -0.2990
  118OSM    H3S12368   0.547   1.474   6.526  0.3173 -2.4434 -1.4049
  118OSM     O312369   0.672   1.633   6.468  0.6087 -0.2001 -0.0742
  118OSM    HO312370   0.687   1.632   6.374  1.6473  1.8828  0.0061
  118OSM    C4S12371   0.713   1.481   6.641  0.0482 -0.1697  0.0427
  118OSM    H4S12372   0.643   1.412   6.692  0.9436 -1.3585 -0.3103
  118OSM    C5S12373   0.819   1.536   6.702  0.3138 -0.2913 -0.7158
  118OSM    H5S12374   0.894   1.600   6.653 -0.4834  1.2489  0.0116
  118OSM    C6S12375   0.850   1.500   6.843 -0.3404  0.6012 -0.0606
  118OSM    H6S12376   0.945   1.550   6.870  0.8740 -1.5506 -0.1912
  118OSM    H6T12377   0.875   1.392   6.851  0.0264  0.7024  0.1577
  118OSM    C7S12378   0.731   1.529   6.935  0.0356  0.1535  0.4644
  118OSM    H7S12379   0.634   1.485   6.901 -0.6440 -0.0930  2.5885
  118OSM    H7T12380   0.719   1.640   6.939 -1.4041  0.0175  0.5152
  118OSM    C8S12381   0.745   1.477   7.076 -0.7545  0.1871 -0.6862
  118OSM    H8S12382   0.834   1.529   7.116  0.4240 -2.3432  0.1804
  118OSM    H8T12383   0.756   1.368   7.057  1.5844  0.4509 -1.1189
  118OSM    C9S12384   0.626   1.479   7.175 -0.9922 -0.5715 -0.1539
  118OSM    H9S12385   0.530   1.455   7.124 -0.4695 -1.0519 -0.9246
  118OSM    H9T12386   0.610   1.587   7.195 -2.1940 -0.8442  0.5335
  118OSM   C10S12387   0.653   1.391   7.301  0.0912 -0.4244  0.5664
  118OSM   H10S12388   0.762   1.385   7.321  0.2711  0.6250 -0.0435
  118OSM   H10T12389   0.618   1.290   7.271  1.7182 -0.3121 -1.9931
  118OSM   C11S12390   0.574   1.437   7.426 -0.0705 -0.0325 -0.2632
  118OSM   H11S12391   0.467   1.413   7.412  0.3104 -1.5563 -0.7065
  118OSM   H11T12392   0.590   1.545   7.445  2.2156  0.0905 -2.3572
  118OSM   C12S12393   0.625   1.361   7.556  0.7581 -0.2807  0.0883
  118OSM   H12S12394   0.733   1.384   7.566  0.8605  0.1675 -1.7305
  118OSM   H12T12395   0.603   1.255   7.528  0.1755 -0.0247 -0.4721
  118OSM   C13S12396   0.539   1.389   7.678  0.8213 -0.3360 -0.5362
  118OSM   H13S12397   0.430   1.379   7.663  0.4647  0.9451  0.9524
  118OSM   H13T12398   0.554   1.493   7.716  1.8941 -1.2026  1.5302
  118OSM   C14S12399   0.580   1.307   7.803  1.1746 -0.5425 -0.2562
  118OSM   H14S12400   0.683   1.332   7.838  1.7820 -2.6921 -0.3636
  118OSM   H14T12401   0.567   1.198   7.788 -1.0166 -0.3611  0.1185
  118OSM   C15S12402   0.485   1.345   7.920  0.0449  0.2615 -0.2682
  118OSM   H15S12403   0.384   1.305   7.896 -0.6952  0.4635  2.2453
  118OSM   H15T12404   0.458   1.452   7.925 -2.1871 -0.0902 -2.5528
  118OSM   C16S12405   0.527   1.294   8.057 -0.4233  0.3557 -0.5182
  118OSM   H16S12406   0.623   1.348   8.072 -0.4337  1.2659 -3.1288
  118OSM   H16T12407   0.556   1.187   8.060  0.1123  0.5320  0.9286
  118OSM   C17S12408   0.437   1.328   8.180 -0.3868  0.4328  0.0694
  118OSM   H17S12409   0.365   1.410   8.160  1.9091  1.9127 -3.0141
  118OSM   H17T12410   0.505   1.357   8.263 -1.0851  1.9046  0.1546
  118OSM   C18S12411   0.352   1.204   8.215 -0.5298 -0.3787 -0.5580
  118OSM   H18S12412   0.267   1.236   8.279 -1.4684  0.2216 -2.0262
  118OSM   H18T12413   0.426   1.136   8.262  1.3737  0.3190 -2.3888
  118OSM   H18U12414   0.319   1.145   8.126  0.3096 -0.3752 -0.8828
  118OSM    C1F12415   0.807   1.169   6.410 -0.0001  0.1809 -0.3811
  118OSM     OF12416   0.878   1.205   6.315  0.0872 -0.2406  0.7590
  118OSM    C2F12417   0.779   1.026   6.449 -0.3380 -0.0328  0.3718
  118OSM    H2F12418   0.785   0.974   6.352  1.5762 -0.9977  0.9619
  118OSM    H2G12419   0.674   1.028   6.484 -0.5189  0.3468 -0.1738
  118OSM    C3F12420   0.894   0.968   6.528 -0.7238 -0.1862 -0.8836
  118OSM    H3F12421   0.987   0.998   6.476 -1.7998  0.8222 -2.3302
  118OSM    H3G12422   0.880   0.858   6.530  0.6966 -0.3772 -0.9106
  118OSM    C4F12423   0.905   1.022   6.673  0.0075 -0.3018  0.1226
  118OSM    H4F12424   0.910   1.133   6.680  1.6263 -0.2190 -1.3734
  118OSM    H4G12425   1.006   0.989   6.704  0.5823  1.5782  0.4127
  118OSM    C5F12426   0.813   0.955   6.774 -0.2895  0.4421 -0.5371
  118OSM    H5F12427   0.813   0.844   6.774  2.0140  0.3187  2.4088
  118OSM    H5G12428   0.710   0.995   6.766  1.0210  4.1828 -0.7110
  118OSM    C6F12429   0.859   0.997   6.918  0.0825 -0.5202  0.4887
  118OSM    H6F12430   0.869   1.107   6.926 -0.7202 -0.4906  1.2738
  118OSM    H6G12431   0.961   0.955   6.936  0.8617  1.4228  0.8560
  118OSM    C7F12432   0.754   0.950   7.018 -0.7543 -0.3366 -0.2323
  118OSM    H7F12433   0.723   0.844   7.003  1.3212 -0.8801 -1.0348
  118OSM    H7G12434   0.668   1.014   6.989  0.9019  1.5387 -1.2163
  118OSM    C8F12435   0.787   0.984   7.166  0.4680 -0.0430 -0.5512
  118OSM    H8F12436   0.716   0.934   7.236  0.7936  0.3863  0.0884
  118OSM    H8G12437   0.760   1.089   7.189 -1.9396 -0.4285 -1.2926
  118OSM    C9F12438   0.928   0.959   7.217 -0.2528  0.1191  0.7537
  118OSM    H9F12439   0.993   1.040   7.182 -0.9189 -0.0857 -1.0706
  118OSM   C10F12440   0.978   0.858   7.293  0.8768  0.1511 -0.9371
  118OSM   H10F12441   1.085   0.855   7.317  0.3944  1.6895  1.6947
  118OSM   C11F12442   0.893   0.747   7.358 -0.1670 -0.0029  0.9784
  118OSM   H11F12443   0.920   0.651   7.309  1.1479  1.0099 -0.3613
  118OSM   H11G12444   0.783   0.753   7.349 -0.2826 -1.9026  0.7434
  118OSM   C12F12445   0.949   0.745   7.503  0.1620 -0.1744  0.1555
  118OSM   H12F12446   1.057   0.722   7.515  0.1829  0.4919  1.4051
  118OSM   H12G12447   0.899   0.657   7.550  0.6243 -0.0046  0.9733
  118OSM   C13F12448   0.895   0.858   7.595 -0.3779  0.4959  0.5049
  118OSM   H13F12449   0.784   0.855   7.604 -0.6073  1.8866 -1.2209
  118OSM   H13G12450   0.913   0.959   7.552  2.3704  0.6566  1.8332
  118OSM   C14F12451   0.953   0.862   7.737  0.2641 -0.1202 -0.0983
  118OSM   H14F12452   1.056   0.904   7.739  0.0610  0.4929  3.3431
  118OSM   H14G12453   0.951   0.756   7.770 -1.4784 -0.1729 -0.2764
  118OSM   C15F12454   0.883   0.950   7.847 -0.5977  0.4754  0.5135
  118OSM   H15F12455   0.773   0.949   7.830 -0.6148 -2.8375  0.1387
  118OSM   H15G12456   0.926   1.050   7.826  1.2637 -0.5320 -0.7239
  118OSM   C16F12457   0.912   0.899   7.987  0.0935  0.0768 -0.6337
  118OSM   H16F12458   1.021   0.880   7.979 -0.2048 -1.6641 -1.0478
  118OSM   H16G12459   0.854   0.807   8.012 -1.4794  0.9230 -1.0154
  118OSM   C17F12460   0.885   0.994   8.105  0.0494  0.2233 -0.1301
  118OSM   H17F12461   0.886   1.096   8.063 -0.5414 -0.8253 -2.9224
  118OSM   H17G12462   0.962   0.989   8.185  2.6349 -1.8985 -2.5543
  118OSM   C18F12463   0.749   0.953   8.174  0.4182  0.1509 -0.4755
  118OSM   H18F12464   0.722   1.019   8.260 -0.9176 -1.8753  0.7766
  118OSM   H18G12465   0.765   0.850   8.213  1.1130  0.8006  1.0435
  118OSM   H18H12466   0.659   0.948   8.110  0.6663  0.8681 -0.8821
  119OSM      N12467   2.944   0.040   6.141  0.1423  0.4118  0.2002
  119OSM    C1512468   2.974   0.160   6.063  0.3499  0.3358  1.0234
  119OSM   H15A12469   2.895   0.165   5.990 -0.3816  3.1424  1.8815
  119OSM   H15B12470   3.070   0.140   6.019  0.1200 -0.5600  0.9192
  119OSM   H15C12471   2.968   0.248   6.126  0.1470  0.3636  0.9680
  119OSM    C1412472   2.979  -0.078   6.058  0.2309 -0.0692  0.6170
  119OSM   H14A12473   2.965  -0.165   6.121 -1.9298 -0.2203  0.0099
  119OSM   H14B12474   3.078  -0.075   6.016  0.1100 -0.2741  0.3187
  119OSM   H14C12475   2.905  -0.094   5.981  2.2114  0.4146 -1.4658
  119OSM    C1312476   3.033   0.050   6.259  0.9617  0.0189  0.0469
  119OSM   H13A12477   3.028  -0.043   6.313  1.4185 -1.1461 -1.8511
  119OSM   H13B12478   3.017   0.134   6.325 -1.3600 -0.5264  0.2765
  119OSM   H13C12479   3.137   0.050   6.231 -0.0604  0.0766 -4.4126
  119OSM    C1212480   2.796   0.034   6.168 -0.0959  0.8045  0.1015
  119OSM   H12A12481   2.767  -0.064   6.203  0.0311  0.4585 -0.7317
  119OSM   H12B12482   2.737   0.051   6.079  0.5083 -0.1860 -0.5086
  119OSM    C1112483   2.748   0.142   6.267  0.7455  0.7195 -0.0694
  119OSM   H11A12484   2.805   0.236   6.258  1.8052  0.0641 -0.4084
  119OSM   H11B12485   2.757   0.103   6.371 -0.7557  0.5958  0.0354
  119OSM      P12486   2.564   0.276   6.134  0.0612  0.4572 -0.0475
  119OSM    O1312487   2.659   0.311   6.035 -0.5415 -0.1904  0.4879
  119OSM    O1412488   2.429   0.229   6.095 -0.1038 -0.3956 -0.1175
  119OSM    O1112489   2.560   0.396   6.229 -0.3169  0.0257 -0.2951
  119OSM    O1212490   2.609   0.164   6.237 -0.1364 -1.1623  0.4311
  119OSM    C1S12491   2.504   0.386   6.360 -0.6165  0.0086 -0.0211
  119OSM    H1S12492   2.452   0.291   6.386  0.0498 -0.0661  1.1205
  119OSM    H1T12493   2.416   0.454   6.369 -0.9399 -0.5034  0.8187
  119OSM     NF12494   2.522   0.381   6.604  0.3646  0.8726  0.6188
  119OSM    HNF12495   2.493   0.453   6.666 -0.3673  2.0779 -1.0731
  119OSM    C2S12496   2.595   0.417   6.485 -0.3006 -0.5510  0.4755
  119OSM    H2S12497   2.686   0.353   6.474 -0.3195 -0.2729 -1.8662
  119OSM    C3S12498   2.649   0.565   6.496  1.1371 -0.3042 -0.1616
  119OSM    H3S12499   2.566   0.630   6.532  1.1342  0.2119 -1.0616
  119OSM     O312500   2.684   0.612   6.365  0.1669  0.2990 -0.5830
  119OSM    HO312501   2.633   0.567   6.296 -1.4630 -0.8281  1.2568
  119OSM    C4S12502   2.766   0.587   6.585  0.0918 -0.8306  0.1531
  119OSM    H4S12503   2.846   0.513   6.570 -0.9292 -2.1010  0.7668
  119OSM    C5S12504   2.780   0.678   6.687  0.3045  0.2163  0.3987
  119OSM    H5S12505   2.695   0.744   6.711 -0.1944 -0.5118  0.6672
  119OSM    C6S12506   2.894   0.689   6.788  0.0790  0.3715  0.0514
  119OSM    H6S12507   2.951   0.784   6.773 -1.1405  0.7993 -2.1580
  119OSM    H6T12508   2.962   0.604   6.765  0.8513  1.0408 -0.1730
  119OSM    C7S12509   2.840   0.685   6.931 -0.3900  0.1218 -0.2189
  119OSM    H7S12510   2.800   0.586   6.961 -0.5124  0.6970  1.6201
  119OSM    H7T12511   2.761   0.762   6.941 -0.2679  0.2043  0.1411
  119OSM    C8S12512   2.941   0.704   7.043  0.2562 -0.0712  0.3774
  119OSM    H8S12513   2.963   0.811   7.062 -0.0936  0.0614  0.0391
  119OSM    H8T12514   3.035   0.665   6.999  0.0038  1.1711 -1.3485
  119OSM    C9S12515   2.910   0.641   7.176 -0.5734  0.1073 -0.4134
  119OSM    H9S12516   2.975   0.681   7.257 -1.1642 -1.7025  1.0126
  119OSM    H9T12517   2.952   0.540   7.155  0.3691  0.5695 -0.8329
  119OSM   C10S12518   2.766   0.661   7.222 -0.0472 -0.4081 -0.5705
  119OSM   H10S12519   2.749   0.598   7.312  2.8537 -0.3061  0.1433
  119OSM   H10T12520   2.696   0.622   7.145 -0.7770  0.8295 -0.5754
  119OSM   C11S12521   2.714   0.809   7.254  0.0830 -0.4068 -0.7751
  119OSM   H11S12522   2.606   0.816   7.278  0.4252  2.3662  0.2645
  119OSM   H11T12523   2.723   0.879   7.169  1.0423  1.0908  0.4967
  119OSM   C12S12524   2.774   0.860   7.384 -0.3147 -0.0793  0.3431
  119OSM   H12S12525   2.867   0.910   7.348 -0.1196 -0.6266  0.0660
  119OSM   H12T12526   2.795   0.776   7.453 -1.3608 -0.1711  0.5691
  119OSM   C13S12527   2.686   0.956   7.462  0.1485 -0.1715 -0.9126
  119OSM   H13S12528   2.655   1.039   7.395  1.6792  1.8145  0.7196
  119OSM   H13T12529   2.758   1.003   7.533 -1.8872  0.1234  1.0540
  119OSM   C14S12530   2.549   0.917   7.527 -0.7091 -0.1008 -0.5510
  119OSM   H14S12531   2.493   0.896   7.433  1.0222  0.0172 -1.6628
  119OSM   H14T12532   2.512   1.006   7.583  0.6298  0.6197 -0.7720
  119OSM   C15S12533   2.566   0.794   7.613  0.1289 -0.1294  0.5315
  119OSM   H15S12534   2.654   0.812   7.678  2.0311 -1.4377 -1.5567
  119OSM   H15T12535   2.586   0.708   7.547  0.9653  1.2660 -1.1178
  119OSM   C16S12536   2.437   0.766   7.693 -0.5843 -0.0773 -1.0371
  119OSM   H16S12537   2.362   0.724   7.623 -2.6142  0.7319  0.5506
  119OSM   H16T12538   2.392   0.866   7.708  2.0715  1.7808 -4.0588
  119OSM   C17S12539   2.448   0.692   7.831 -0.2495  0.7307  0.4265
  119OSM   H17S12540   2.504   0.597   7.812 -0.5280  0.4550  0.9587
  119OSM   H17T12541   2.341   0.676   7.855  0.2846 -2.2886  1.2019
  119OSM   C18S12542   2.514   0.764   7.947  0.3041 -0.1656  0.5149
  119OSM   H18S12543   2.454   0.849   7.985  1.3677  1.2395 -0.8568
  119OSM   H18T12544   2.613   0.812   7.930  0.0340 -0.3434 -1.8770
  119OSM   H18U12545   2.524   0.702   8.039 -0.1154  0.6450  1.1111
  119OSM    C1F12546   2.484   0.257   6.633  0.5178 -0.6858 -0.7501
  119OSM     OF12547   2.516   0.158   6.568 -0.2190 -0.3028 -0.0880
  119OSM    C2F12548   2.385   0.250   6.745  0.1628  0.2264 -0.4087
  119OSM    H2F12549   2.291   0.306   6.724  0.3539  0.3208 -1.0618
  119OSM    H2G12550   2.435   0.291   6.835 -2.0838  0.2447  0.9075
  119OSM    C3F12551   2.355   0.101   6.767  0.4515 -0.1873 -0.6314
  119OSM    H3F12552   2.323   0.045   6.677  0.4170  0.9079 -1.3175
  119OSM    H3G12553   2.271   0.092   6.839  1.0996 -2.2592 -0.0741
  119OSM    C4F12554   2.465   0.011   6.820  0.2247  0.5689 -0.0913
  119OSM    H4F12555   2.488   0.047   6.923  0.7012 -1.4281  0.5583
  119OSM    H4G12556   2.548   0.017   6.747 -0.4995  0.8544 -0.9056
  119OSM    C5F12557   2.413  -0.135   6.827  0.1180 -0.4717 -0.6159
  119OSM    H5F12558   2.503  -0.199   6.826  1.2220  0.7805  3.1067
  119OSM    H5G12559   2.358  -0.170   6.737  0.0716  1.1835 -1.2681
  119OSM    C6F12560   2.327  -0.168   6.958  0.0532  0.2653 -0.3623
  119OSM    H6F12561   2.225  -0.128   6.943 -0.3843 -1.4095 -2.1773
  119OSM    H6G12562   2.377  -0.115   7.042 -2.0897 -2.6952  3.1450
  119OSM    C7F12563   2.325  -0.324   6.971 -0.0151 -0.4110 -0.4625
  119OSM    H7F12564   2.418  -0.380   6.993  0.5960  0.7845  0.0876
  119OSM    H7G12565   2.284  -0.353   6.872 -0.0418 -0.3431 -0.4711
  119OSM    C8F12566   2.210  -0.363   7.061 -0.0697  0.7873  0.4197
  119OSM    H8F12567   2.182  -0.470   7.053  0.0655  0.9051 -2.8875
  119OSM    H8G12568   2.116  -0.316   7.024  0.2071  2.3348  1.5585
  119OSM    C9F12569   2.243  -0.318   7.202 -0.1494 -0.7710 -0.5874
  119OSM    H9F12570   2.330  -0.251   7.213 -0.6546  0.0041 -1.1792
  119OSM   C10F12571   2.186  -0.368   7.311  0.3363 -0.6297  0.1548
  119OSM   H10F12572   2.224  -0.333   7.408  1.3061 -1.3720  0.0560
  119OSM   C11F12573   2.065  -0.452   7.321 -0.4137  0.2308 -0.7870
  119OSM   H11F12574   2.105  -0.553   7.347  1.4034  1.3891  1.1833
  119OSM   H11G12575   2.016  -0.455   7.221  1.7211  2.3258 -1.9673
  119OSM   C12F12576   1.959  -0.413   7.430  0.3345 -0.5196 -0.3302
  119OSM   H12F12577   1.925  -0.312   7.395  0.6679 -0.5805 -0.8464
  119OSM   H12G12578   2.011  -0.402   7.527 -1.9145  1.3868  0.7616
  119OSM   C13F12579   1.843  -0.510   7.457  0.0431  0.2133 -0.8943
  119OSM   H13F12580   1.873  -0.587   7.532 -0.9526 -3.0484 -3.5888
  119OSM   H13G12581   1.824  -0.562   7.361  0.9913  0.7758 -1.4039
  119OSM   C14F12582   1.713  -0.443   7.507  0.5637 -0.3803  0.1083
  119OSM   H14F12583   1.638  -0.522   7.530  0.0318  0.0130 -0.2527
  119OSM   H14G12584   1.681  -0.369   7.430  0.0486 -0.5994  0.1050
  119OSM   C15F12585   1.717  -0.363   7.642  0.6268  0.5021  0.3943
  119OSM   H15F12586   1.790  -0.279   7.646 -0.6321  1.6010  3.6752
  119OSM   H15G12587   1.751  -0.434   7.720 -3.1465 -0.0300  1.7865
  119OSM   C16F12588   1.578  -0.325   7.690 -0.2448  0.1513 -0.5099
  119OSM   H16F12589   1.511  -0.412   7.678  0.6712 -0.6677  0.1128
  119OSM   H16G12590   1.545  -0.237   7.631 -0.0503  1.2775  0.9854
  119OSM   C17F12591   1.594  -0.282   7.835  0.4744 -0.5918 -0.4273
  119OSM   H17F12592   1.628  -0.177   7.823  0.4312 -0.1829  2.4869
  119OSM   H17G12593   1.674  -0.336   7.889 -1.6874 -3.6229  0.0090
  119OSM   C18F12594   1.464  -0.277   7.918  0.0089 -0.2139  0.0185
  119OSM   H18F12595   1.375  -0.235   7.868 -0.6639 -2.1731 -0.5437
  119OSM   H18G12596   1.475  -0.214   8.008 -1.6013 -0.2952  0.3076
  119OSM   H18H12597   1.430  -0.375   7.959 -0.0140  0.2140  1.0520
  120OSM      N12598   5.470   6.084   6.024 -0.7605  0.1226  0.4167
  120OSM    C1512599   5.322   6.059   6.023 -0.1434 -0.4248  0.3662
  120OSM   H15A12600   5.275   6.089   6.115 -0.2638 -1.9333  0.8246
  120OSM   H15B12601   5.297   5.957   5.998  0.0293  0.0923 -2.1966
  120OSM   H15C12602   5.282   6.115   5.939 -0.3931 -1.8441 -0.4907
  120OSM    C1412603   5.522   6.034   5.889  0.4124 -0.3513  0.0797
  120OSM   H14A12604   5.627   6.050   5.868  0.3777 -1.6965 -1.2958
  120OSM   H14B12605   5.462   6.081   5.812  0.5756  0.3998  0.3979
  120OSM   H14C12606   5.506   5.928   5.882  1.7698 -0.5187 -0.9691
  120OSM    C1312607   5.504   6.232   6.033 -0.3325  0.7704  0.2143
  120OSM   H13A12608   5.501   6.260   6.138  0.9497  1.4455  0.0921
  120OSM   H13B12609   5.430   6.287   5.976 -0.0540 -0.1106 -1.0253
  120OSM   H13C12610   5.605   6.254   6.003  0.0476 -1.1232  0.0438
  120OSM    C1212611   5.534   6.017   6.148 -0.4988  0.3845  0.0416
  120OSM   H12A12612   5.641   6.010   6.135 -0.2941 -0.9280  2.1012
  120OSM   H12B12613   5.492   5.918   6.143 -0.1299  0.1677  1.0188
  120OSM    C1112614   5.514   6.086   6.281 -0.9223 -0.0847  0.1137
  120OSM   H11A12615   5.521   6.016   6.367 -0.2665 -0.3840 -0.1771
  120OSM   H11B12616   5.412   6.128   6.277 -2.0490 -2.7509 -2.8778
  120OSM      P12617   5.763   6.183   6.324  0.6850  0.4375 -0.0703
  120OSM    O1312618   5.833   6.119   6.211  0.4731  0.0089 -0.2570
  120OSM    O1412619   5.812   6.311   6.379  0.0261  0.5063 -0.1108
  120OSM    O1112620   5.770   6.075   6.440  0.2629  0.9316  0.2333
  120OSM    O1212621   5.612   6.194   6.291  0.0154 -0.4820 -0.7498
  120OSM    C1S12622   5.895   6.009   6.465  0.3445 -1.1137  0.4018
  120OSM    H1S12623   5.972   6.089   6.470 -0.3649 -0.4563  1.1132
  120OSM    H1T12624   5.922   5.931   6.391 -0.4963 -1.3126  0.2954
  120OSM     NF12625   6.031   5.856   6.605 -1.2879  0.4334 -0.1186
  120OSM    HNF12626   6.014   5.767   6.564  1.7887  0.7002 -2.3714
  120OSM    C2S12627   5.919   5.945   6.606  0.3002 -0.7093 -0.3217
  120OSM    H2S12628   5.947   6.026   6.676  1.2905 -3.2720  2.4859
  120OSM    C3S12629   5.787   5.882   6.672  0.0513  0.7530 -0.1616
  120OSM    H3S12630   5.772   5.782   6.627 -3.0463  0.5247  1.1169
  120OSM     O312631   5.666   5.957   6.645  0.0624 -0.3582  0.0221
  120OSM    HO312632   5.693   6.009   6.569  1.2908 -1.9661 -0.7089
  120OSM    C4S12633   5.810   5.845   6.821 -0.1254  0.5947  0.2771
  120OSM    H4S12634   5.850   5.744   6.839 -0.9327  0.3073  0.5107
  120OSM    C5S12635   5.775   5.915   6.926  0.7878  0.1640 -0.0997
  120OSM    H5S12636   5.721   6.009   6.912 -0.2149 -0.4883 -0.7485
  120OSM    C6S12637   5.792   5.874   7.070 -0.3832 -0.1129 -0.8038
  120OSM    H6S12638   5.844   5.955   7.125 -0.4625 -1.5474  1.4931
  120OSM    H6T12639   5.854   5.782   7.077  1.2088  0.9579 -0.1894
  120OSM    C7S12640   5.655   5.861   7.145 -0.7388 -0.3577 -0.7839
  120OSM    H7S12641   5.595   5.782   7.095 -0.8750 -0.1776 -0.9081
  120OSM    H7T12642   5.602   5.959   7.139  1.3877  0.8742 -0.4956
  120OSM    C8S12643   5.684   5.826   7.291 -0.4805  0.3574  0.5827
  120OSM    H8S12644   5.769   5.889   7.325  2.1147 -0.8774 -3.0224
  120OSM    H8T12645   5.722   5.721   7.293  0.1359  0.5476 -0.4908
  120OSM    C9S12646   5.570   5.845   7.391  0.2955 -0.3346 -0.0965
  120OSM    H9S12647   5.482   5.777   7.381 -1.2494  1.7605 -1.6791
  120OSM    H9T12648   5.530   5.948   7.381  0.1930 -0.2556  1.0854
  120OSM   C10S12649   5.614   5.844   7.539 -0.2304  0.0122  0.9937
  120OSM   H10S12650   5.670   5.937   7.565  0.2887 -0.3571  1.1981
  120OSM   H10T12651   5.678   5.755   7.553  0.0731  0.1211  0.3216
  120OSM   C11S12652   5.502   5.831   7.641  0.0159 -0.1462  0.6585
  120OSM   H11S12653   5.455   5.732   7.620 -0.4264  0.3899 -1.0805
  120OSM   H11T12654   5.426   5.909   7.618 -0.7194 -0.6377  1.3722
  120OSM   C12S12655   5.552   5.845   7.791 -0.2050  0.5724 -0.1130
  120OSM   H12S12656   5.594   5.947   7.801 -0.5015  0.5501  1.5989
  120OSM   H12T12657   5.634   5.770   7.804 -0.4689  0.2942 -0.0312
  120OSM   C13S12658   5.441   5.824   7.890 -0.1073 -0.2545 -0.0775
  120OSM   H13S12659   5.397   5.722   7.896 -2.3239  0.6417 -0.2961
  120OSM   H13T12660   5.350   5.885   7.876 -1.3453 -1.9812  0.0935
  120OSM   C14S12661   5.476   5.865   8.031 -0.4857  0.5812 -0.3223
  120OSM   H14S12662   5.534   5.778   8.067 -0.8443  0.0472 -1.0097
  120OSM   H14T12663   5.390   5.866   8.101 -1.0712 -0.0220 -1.0085
  120OSM   C15S12664   5.560   5.994   8.035  0.1872  0.4977  0.2498
  120OSM   H15S12665   5.516   6.060   7.957 -1.1712  0.6916  1.1497
  120OSM   H15T12666   5.665   5.972   8.005  0.2085 -0.6543  1.0816
  120OSM   C16S12667   5.549   6.066   8.172  0.5413 -0.0528  0.4883
  120OSM   H16S12668   5.448   6.055   8.217  0.0031  0.6961 -0.5036
  120OSM   H16T12669   5.570   6.175   8.164 -1.0807  0.2274 -0.3238
  120OSM   C17S12670   5.659   6.015   8.267 -0.2211  0.0646 -0.3358
  120OSM   H17S12671   5.757   6.066   8.269  1.6280 -3.1954  0.9904
  120OSM   H17T12672   5.697   5.913   8.242  0.6030  0.6463 -1.5635
  120OSM   C18S12673   5.613   6.008   8.415 -0.5323 -0.0343 -0.2005
  120OSM   H18S12674   5.707   6.005   8.474  0.4714 -0.7113 -1.7432
  120OSM   H18T12675   5.550   5.920   8.440 -1.3619  0.0432 -1.8648
  120OSM   H18U12676   5.568   6.102   8.454 -0.1209 -0.5932  1.7079
  120OSM    C1F12677   6.155   5.899   6.605  0.7851  0.2896  0.0344
  120OSM     OF12678   6.173   6.018   6.604  0.1624  0.0468  0.9439
  120OSM    C2F12679   6.265   5.800   6.593 -0.2520 -0.1530  0.1422
  120OSM    H2F12680   6.302   5.793   6.489 -2.0757 -0.2063 -0.5402
  120OSM    H2G12681   6.224   5.703   6.630  3.1922 -1.6254  0.4622
  120OSM    C3F12682   6.387   5.835   6.678 -0.1409 -0.7503 -0.5873
  120OSM    H3F12683   6.434   5.930   6.643 -0.6487  0.2497  1.3636
  120OSM    H3G12684   6.451   5.747   6.655  0.5967  0.4637 -3.7323
  120OSM    C4F12685   6.357   5.854   6.824 -0.4958 -0.5147  0.3446
  120OSM    H4F12686   6.297   5.946   6.844  1.1028  0.8393 -0.8244
  120OSM    H4G12687   6.446   5.876   6.887 -0.3101 -2.2653  0.7384
  120OSM    C5F12688   6.285   5.737   6.894  0.3861 -0.6012  0.4450
  120OSM    H5F12689   6.356   5.652   6.898  2.8118  1.2617 -0.1309
  120OSM    H5G12690   6.192   5.707   6.843 -0.2213 -0.6201  1.5361
  120OSM    C6F12691   6.240   5.782   7.038 -0.6922  0.5329 -0.3005
  120OSM    H6F12692   6.159   5.857   7.029 -1.0144  0.3234  0.7418
  120OSM    H6G12693   6.336   5.820   7.080 -0.5806 -0.2774  0.2143
  120OSM    C7F12694   6.176   5.673   7.122  0.6336  0.3091  0.0317
  120OSM    H7F12695   6.242   5.584   7.116  0.6435  0.3930 -1.5449
  120OSM    H7G12696   6.079   5.631   7.086  1.6191 -1.7530 -0.3289
  120OSM    C8F12697   6.161   5.699   7.273 -0.2116  0.1885 -0.4616
  120OSM    H8F12698   6.261   5.732   7.306  0.1395 -0.6377 -0.6810
  120OSM    H8G12699   6.135   5.612   7.338 -0.6385  1.2615  0.8513
  120OSM    C9F12700   6.056   5.805   7.292  0.1803  0.2922 -0.0096
  120OSM    H9F12701   5.954   5.784   7.255 -0.3481  1.3942  0.7791
  120OSM   C10F12702   6.071   5.929   7.337 -0.1501  0.2570  0.2207
  120OSM   H10F12703   5.987   5.999   7.329  0.0938  0.6462  0.9994
  120OSM   C11F12704   6.198   6.002   7.373 -0.3821  0.0881  0.7930
  120OSM   H11F12705   6.285   5.940   7.343 -0.6590  0.0697  0.0030
  120OSM   H11G12706   6.194   6.012   7.483  0.0147 -2.4534  1.0885
  120OSM   C12F12707   6.217   6.151   7.318 -0.0841  0.1818  0.5491
  120OSM   H12F12708   6.305   6.187   7.375  0.8930 -0.4426 -0.5274
  120OSM   H12G12709   6.127   6.212   7.340  0.1209  0.4333  0.6992
  120OSM   C13F12710   6.251   6.159   7.164  0.0656  0.1315 -0.0954
  120OSM   H13F12711   6.165   6.108   7.115 -2.0220  0.5894  2.8473
  120OSM   H13G12712   6.340   6.094   7.155 -0.5148 -0.9845  1.7120
  120OSM   C14F12713   6.273   6.294   7.117  0.3459  0.0308  0.7242
  120OSM   H14F12714   6.360   6.348   7.161  2.2355 -0.7459 -1.8189
  120OSM   H14G12715   6.179   6.352   7.129 -0.5535 -0.8356 -1.5195
  120OSM   C15F12716   6.315   6.285   6.967  0.2743 -0.4734  0.1500
  120OSM   H15F12717   6.256   6.214   6.906 -0.6088  0.1220  0.3020
  120OSM   H15G12718   6.420   6.247   6.965 -0.5055 -3.0660 -4.2930
  120OSM   C16F12719   6.301   6.427   6.907 -0.2847 -0.1121  0.7616
  120OSM   H16F12720   6.301   6.510   6.980 -2.8101  0.0266  0.6945
  120OSM   H16G12721   6.197   6.433   6.868  0.4199 -0.4258 -1.3140
  120OSM   C17F12722   6.397   6.459   6.792 -0.5398 -0.5141 -0.5001
  120OSM   H17F12723   6.379   6.391   6.706  1.0137  0.5771 -1.7263
  120OSM   H17G12724   6.502   6.446   6.828 -0.2575 -0.2014 -1.2052
  120OSM   C18F12725   6.372   6.600   6.749 -0.6785  0.5939  0.1059
  120OSM   H18F12726   6.450   6.611   6.670 -1.0467 -0.3582 -0.4061
  120OSM   H18G12727   6.387   6.664   6.839  1.0900 -0.0173  0.2908
  120OSM   H18H12728   6.266   6.617   6.721 -0.1589  2.0332 -1.1935
  121OSM      N12729   0.629   0.057   5.877  0.7700  0.0396 -0.3053
  121OSM    C1512730   0.539  -0.025   5.780  0.3246  0.2785 -0.4671
  121OSM   H15A12731   0.481  -0.098   5.834 -0.9384  1.8969  0.4882
  121OSM   H15B12732   0.594  -0.086   5.710 -1.0871 -0.1238 -1.2866
  121OSM   H15C12733   0.475   0.036   5.717 -0.5155 -0.2852 -0.1802
  121OSM    C1412734   0.697  -0.030   5.978  0.4597 -0.1188  0.0067
  121OSM   H14A12735   0.622  -0.079   6.039 -0.9004 -0.1278 -1.6163
  121OSM   H14B12736   0.770   0.029   6.032  0.6417 -0.0571 -0.3015
  121OSM   H14C12737   0.761  -0.100   5.927 -0.7727 -0.1278 -1.5971
  121OSM    C1312738   0.728   0.124   5.790  0.0619  0.5678 -0.2097
  121OSM   H13A12739   0.787   0.194   5.848 -0.6663  0.4167  0.7255
  121OSM   H13B12740   0.683   0.186   5.713  0.5141 -0.5695 -1.4275
  121OSM   H13C12741   0.789   0.061   5.727 -0.8019  0.8323 -1.3554
  121OSM    C1212742   0.548   0.156   5.957  0.1880 -0.5939  0.3357
  121OSM   H12A12743   0.456   0.113   5.994 -2.4947  3.5836 -0.7528
  121OSM   H12B12744   0.524   0.232   5.884 -0.4086 -1.2906 -0.2073
  121OSM    C1112745   0.622   0.232   6.076  0.5295  0.5879  1.0798
  121OSM   H11A12746   0.648   0.158   6.154 -2.6451 -0.4031  1.3609
  121OSM   H11B12747   0.551   0.310   6.112  1.7292  1.1259  2.3637
  121OSM      P12748   0.808   0.413   6.102 -0.1595 -0.4271  0.1706
  121OSM    O1312749   0.932   0.460   6.035 -0.2512  1.1871  0.0744
  121OSM    O1412750   0.707   0.519   6.129  0.3050 -0.0763 -0.3436
  121OSM    O1112751   0.842   0.336   6.236 -0.0168 -0.4205 -0.0032
  121OSM    O1212752   0.735   0.302   6.023 -0.0237 -0.1879  0.0905
  121OSM    C1S12753   0.964   0.374   6.315 -0.0482 -0.1953  0.0312
  121OSM    H1S12754   0.984   0.483   6.315 -0.0257 -0.1927 -0.8366
  121OSM    H1T12755   1.050   0.320   6.269 -1.9202 -2.5120 -0.9856
  121OSM     NF12756   1.050   0.377   6.552  0.1963 -0.1238 -0.7215
  121OSM    HNF12757   1.108   0.316   6.605 -0.6054 -0.6543 -0.4494
  121OSM    C2S12758   0.952   0.314   6.458 -0.2173 -1.4361  0.3112
  121OSM    H2S12759   0.852   0.343   6.499  0.4175 -0.3945  1.1954
  121OSM    C3S12760   0.957   0.162   6.456  0.2964 -0.0602 -0.0205
  121OSM    H3S12761   1.062   0.128   6.440 -0.3345 -1.9945 -0.3712
  121OSM     O312762   0.889   0.101   6.345  0.7945  0.0130 -0.7403
  121OSM    HO312763   0.858   0.178   6.296  2.0531  1.0626  0.0371
  121OSM    C4S12764   0.911   0.094   6.586  0.0385 -0.2919  0.6409
  121OSM    H4S12765   0.834   0.145   6.646 -1.0584  0.5454 -1.3890
  121OSM    C5S12766   0.967  -0.019   6.633  0.3747  0.8888  0.3920
  121OSM    H5S12767   1.051  -0.058   6.573  0.7726  1.9223  0.2593
  121OSM    C6S12768   0.939  -0.093   6.763  0.3998  0.1706  0.3993
  121OSM    H6S12769   1.028  -0.146   6.803 -2.4404 -4.0092  1.8542
  121OSM    H6T12770   0.860  -0.170   6.747 -1.3377  1.3064  2.8649
  121OSM    C7S12771   0.883   0.003   6.870  0.3116 -0.5464 -0.2329
  121OSM    H7S12772   0.779   0.030   6.843  0.9279  0.5729 -1.6233
  121OSM    H7T12773   0.953   0.090   6.868  1.5265 -1.5044 -0.7614
  121OSM    C8S12774   0.887  -0.080   6.996 -0.8758 -0.1209 -0.6307
  121OSM    H8S12775   0.991  -0.118   7.009 -1.0981 -0.3968  0.4510
  121OSM    H8T12776   0.820  -0.167   6.980  1.7094 -2.2513 -0.5836
  121OSM    C9S12777   0.841   0.005   7.122  0.1253  0.6165  0.0484
  121OSM    H9S12778   0.737   0.043   7.110  0.4906  1.0206 -2.2587
  121OSM    H9T12779   0.912   0.090   7.134  3.2474 -1.6752 -0.9339
  121OSM   C10S12780   0.841  -0.088   7.246 -0.3053  0.0382  0.2093
  121OSM   H10S12781   0.938  -0.141   7.258  0.1796  0.6866 -0.7137
  121OSM   H10T12782   0.772  -0.170   7.216  0.2273 -0.0967 -0.6819
  121OSM   C11S12783   0.806  -0.006   7.371  0.5374  0.6651  0.2813
  121OSM   H11S12784   0.721   0.060   7.343 -0.8063 -0.3595  1.7352
  121OSM   H11T12785   0.896   0.055   7.395  0.0650  1.1913  0.7543
  121OSM   C12S12786   0.742  -0.091   7.478 -0.3799  0.0950  0.4914
  121OSM   H12S12787   0.815  -0.164   7.521  1.0721  0.7542 -0.7737
  121OSM   H12T12788   0.650  -0.144   7.445 -1.1032  1.0153  0.9917
  121OSM   C13S12789   0.693   0.005   7.587 -0.1129  1.0415 -0.0878
  121OSM   H13S12790   0.628   0.077   7.534 -2.4423 -0.7417  0.2069
  121OSM   H13T12791   0.776   0.067   7.628 -1.0971  1.4018  1.4157
  121OSM   C14S12792   0.613  -0.076   7.693 -0.1781 -0.4333 -0.6212
  121OSM   H14S12793   0.681  -0.159   7.724  2.8721  0.5325 -4.0921
  121OSM   H14T12794   0.525  -0.110   7.635  0.5298 -0.0087 -1.9800
  121OSM   C15S12795   0.571   0.008   7.813  1.0205 -0.4043 -0.1244
  121OSM   H15S12796   0.497   0.084   7.782  0.4551 -0.6852  0.5081
  121OSM   H15T12797   0.657   0.060   7.862  1.1574 -0.5198 -0.2411
  121OSM   C16S12798   0.497  -0.087   7.908  0.4175  0.3011 -0.0058
  121OSM   H16S12799   0.553  -0.180   7.929  2.3125  1.1872 -0.8541
  121OSM   H16T12800   0.397  -0.113   7.868 -0.3412 -0.8394  2.4713
  121OSM   C17S12801   0.464  -0.033   8.051 -0.6861 -0.9599 -0.2337
  121OSM   H17S12802   0.386   0.046   8.048  0.0813 -0.1846 -3.5484
  121OSM   H17T12803   0.559   0.017   8.083 -0.1637 -1.4297 -1.0152
  121OSM   C18S12804   0.423  -0.132   8.167 -0.7300  0.0734 -0.7923
  121OSM   H18S12805   0.317  -0.159   8.146 -1.0568 -0.2253  1.1039
  121OSM   H18T12806   0.427  -0.084   8.266  0.3631 -0.4172 -0.5800
  121OSM   H18U12807   0.482  -0.226   8.173  1.3444  1.4101  1.0841
  121OSM    C1F12808   1.061   0.504   6.580 -0.0578 -0.7720 -0.4632
  121OSM     OF12809   0.990   0.593   6.534  0.3164  0.2455  0.6339
  121OSM    C2F12810   1.182   0.540   6.667  0.1203 -0.0339  0.5552
  121OSM    H2F12811   1.265   0.548   6.593 -1.3475 -0.5030 -1.2157
  121OSM    H2G12812   1.199   0.460   6.743 -0.3352  0.0725  0.7729
  121OSM    C3F12813   1.143   0.654   6.759  0.0240 -0.1048 -0.4894
  121OSM    H3F12814   1.064   0.614   6.826 -1.2359  1.0909 -1.2049
  121OSM    H3G12815   1.116   0.744   6.699  1.0060 -0.9122 -2.2040
  121OSM    C4F12816   1.247   0.696   6.857 -0.4885 -0.1382  0.1792
  121OSM    H4F12817   1.341   0.724   6.806 -1.4497  1.2111 -0.9073
  121OSM    H4G12818   1.283   0.605   6.911 -1.4186 -0.3317  0.4944
  121OSM    C5F12819   1.214   0.800   6.959  0.0135 -0.0477 -0.6095
  121OSM    H5F12820   1.131   0.751   7.015 -0.6533 -0.9312 -2.2879
  121OSM    H5G12821   1.187   0.895   6.907  0.7891 -0.4658 -1.8134
  121OSM    C6F12822   1.333   0.832   7.045  0.1884  0.0618 -0.1925
  121OSM    H6F12823   1.429   0.840   6.989  0.3648  1.4840  0.2612
  121OSM    H6G12824   1.357   0.747   7.111 -0.7231  0.1099  0.2210
  121OSM    C7F12825   1.324   0.958   7.130  0.1015  0.3462  1.2742
  121OSM    H7F12826   1.215   0.959   7.155 -0.2045  0.7915 -0.0207
  121OSM    H7G12827   1.352   1.050   7.075 -0.2071 -0.3926 -0.1435
  121OSM    C8F12828   1.399   0.960   7.261  0.0344  0.1691 -0.4738
  121OSM    H8F12829   1.397   0.860   7.310 -0.4574  0.0612 -0.7166
  121OSM    H8G12830   1.346   1.031   7.328  0.5771  0.1999 -0.0657
  121OSM    C9F12831   1.542   0.997   7.255 -0.6612 -0.2879 -0.2687
  121OSM    H9F12832   1.597   0.954   7.169  2.4346 -0.7999  1.8026
  121OSM   C10F12833   1.627   1.068   7.328  0.1871 -0.3335 -0.4151
  121OSM   H10F12834   1.732   1.059   7.299  0.0277  0.7854 -1.4173
  121OSM   C11F12835   1.594   1.134   7.459 -1.0366  0.6395 -0.1996
  121OSM   H11F12836   1.499   1.087   7.493  0.4763 -1.3613  1.4975
  121OSM   H11G12837   1.577   1.244   7.456 -0.1963  0.8739  1.9874
  121OSM   C12F12838   1.696   1.106   7.576 -0.4663 -0.3580 -0.2819
  121OSM   H12F12839   1.794   1.129   7.530  0.3596  1.5354  2.1818
  121OSM   H12G12840   1.686   1.000   7.608  1.8350 -0.1903  1.2722
  121OSM   C13F12841   1.674   1.188   7.705 -0.2812 -0.2270  0.3585
  121OSM   H13F12842   1.704   1.293   7.684  3.6830 -1.1501  0.5665
  121OSM   H13G12843   1.745   1.160   7.786  0.3636  1.6996  0.5065
  121OSM   C14F12844   1.533   1.160   7.763 -0.5563  0.6902 -0.1372
  121OSM   H14F12845   1.512   1.051   7.762 -0.8148  0.6855  2.0650
  121OSM   H14G12846   1.465   1.214   7.694  0.5346  2.2433 -0.0605
  121OSM   C15F12847   1.505   1.221   7.905  0.6949 -0.6309  0.2013
  121OSM   H15F12848   1.530   1.329   7.901  1.6996 -0.8924 -1.3068
  121OSM   H15G12849   1.572   1.188   7.987  0.1031 -1.5435  0.3374
  121OSM   C16F12850   1.359   1.216   7.944 -0.2481  0.4619 -0.0576
  121OSM   H16F12851   1.337   1.110   7.970  0.3870  0.5568  0.9227
  121OSM   H16G12852   1.312   1.262   7.855  0.0851  1.3236  0.2021
  121OSM   C17F12853   1.335   1.304   8.065 -0.2950 -0.4429 -0.5316
  121OSM   H17F12854   1.434   1.309   8.116  0.6445  1.8878 -2.3456
  121OSM   H17G12855   1.262   1.259   8.134  0.7976 -1.2401  0.1387
  121OSM   C18F12856   1.275   1.441   8.033 -0.0191 -0.5130  0.3703
  121OSM   H18F12857   1.241   1.490   8.127  0.2061 -1.3272  0.8807
  121OSM   H18G12858   1.182   1.427   7.974 -0.2106 -0.0991  0.5658
  121OSM   H18H12859   1.342   1.504   7.969 -0.7220  0.0422  0.1566
  122OSM      N12860   0.560   2.214   5.756 -0.4655 -1.1054 -0.0039
  122OSM    C1512861   0.598   2.086   5.697 -0.8951 -0.3956  0.4850
  122OSM   H15A12862   0.555   2.001   5.748  0.1564 -1.4517 -0.3470
  122OSM   H15B12863   0.706   2.084   5.704 -0.9030 -0.1380  0.7096
  122OSM   H15C12864   0.578   2.073   5.592  1.5842  2.1541 -0.4143
  122OSM    C1412865   0.585   2.319   5.654 -0.0959 -0.3235  0.1110
  122OSM   H14A12866   0.687   2.321   5.619 -0.4483  2.0466 -0.9846
  122OSM   H14B12867   0.575   2.422   5.686  1.2131 -0.5392  1.3084
  122OSM   H14C12868   0.524   2.312   5.565 -2.8045  1.6079  1.6298
  122OSM    C1312869   0.412   2.213   5.790  0.7211  0.5012  0.6086
  122OSM   H13A12870   0.378   2.314   5.808 -0.8602 -0.1602  1.5984
  122OSM   H13B12871   0.386   2.151   5.874  1.3486 -1.8379 -0.8119
  122OSM   H13C12872   0.352   2.175   5.708  0.7671  1.4594  0.1163
  122OSM    C1212873   0.637   2.242   5.887 -0.3400 -0.4837  0.4796
  122OSM   H12A12874   0.596   2.333   5.929 -1.8218 -0.8173 -0.1867
  122OSM   H12B12875   0.738   2.275   5.866 -0.5947  1.0581  1.5379
  122OSM    C1112876   0.646   2.137   5.997 -0.7302  0.2772  0.9785
  122OSM   H11A12877   0.722   2.164   6.074 -1.0761  2.0293  0.7561
  122OSM   H11B12878   0.689   2.045   5.952 -2.1553 -0.9689  2.0595
  122OSM      P12879   0.457   2.191   6.159  0.7577 -0.0190 -0.4336
  122OSM    O1312880   0.501   2.333   6.151 -0.0587  0.0177 -0.5928
  122OSM    O1412881   0.316   2.167   6.136 -0.0847 -0.3690  0.1507
  122OSM    O1112882   0.507   2.138   6.299 -0.0596  0.4848 -0.3737
  122OSM    O1212883   0.526   2.100   6.051 -0.6719  0.1051  0.1385
  122OSM    C1S12884   0.577   2.013   6.320 -0.1871 -0.1148 -0.0208
  122OSM    H1S12885   0.659   2.007   6.246 -0.2944 -0.6907 -0.0951
  122OSM    H1T12886   0.509   1.926   6.307 -0.6396  0.5049 -2.3377
  122OSM     NF12887   0.727   1.906   6.498 -0.0171 -0.1456  0.3226
  122OSM    HNF12888   0.702   1.815   6.531  0.6119 -0.3234  0.3224
  122OSM    C2S12889   0.617   2.000   6.468 -0.1667  0.1933  0.3905
  122OSM    H2S12890   0.657   2.099   6.499 -2.4556  1.2659  0.1411
  122OSM    C3S12891   0.486   1.971   6.541 -0.5279  0.2970  0.7408
  122OSM    H3S12892   0.427   1.890   6.493  1.5244  0.0863 -1.6679
  122OSM     O312893   0.397   2.082   6.537 -0.0506 -0.2461 -0.5637
  122OSM    HO312894   0.415   2.143   6.465  0.4757  0.3595  0.0676
  122OSM    C4S12895   0.517   1.929   6.680 -0.3545 -0.2230 -0.0897
  122OSM    H4S12896   0.544   1.824   6.701  1.1926 -0.1696 -1.6058
  122OSM    C5S12897   0.538   2.013   6.778  0.1186 -0.7754 -0.2044
  122OSM    H5S12898   0.540   2.120   6.753 -0.2508 -0.7497 -0.1307
  122OSM    C6S12899   0.596   1.966   6.911 -0.6226  0.2195 -0.7700
  122OSM    H6S12900   0.695   2.017   6.921 -0.1502 -0.9788  1.2134
  122OSM    H6T12901   0.612   1.859   6.889  0.4835 -0.0708  1.2550
  122OSM    C7S12902   0.511   1.965   7.039  0.8723  0.1478  0.7031
  122OSM    H7S12903   0.418   1.909   7.017 -0.0936  1.8567  0.3088
  122OSM    H7T12904   0.479   2.062   7.081 -0.5096 -1.3302  3.3100
  122OSM    C8S12905   0.577   1.903   7.166 -0.5376 -0.6074 -0.1943
  122OSM    H8S12906   0.656   1.966   7.211  0.1087 -3.0269  2.3272
  122OSM    H8T12907   0.628   1.808   7.139 -1.2408 -2.2246  3.5182
  122OSM    C9S12908   0.474   1.865   7.270  0.4169 -0.9311 -0.3660
  122OSM    H9S12909   0.451   1.756   7.262  0.2617 -0.8720 -0.7801
  122OSM    H9T12910   0.391   1.935   7.249  1.3247  0.1962 -0.2727
  122OSM   C10S12911   0.511   1.902   7.418 -0.0907  0.8426  0.4685
  122OSM   H10S12912   0.519   2.013   7.419 -0.1149  1.1855 -5.0578
  122OSM   H10T12913   0.615   1.868   7.439 -1.2399 -3.4904  0.1392
  122OSM   C11S12914   0.407   1.833   7.505  0.5308  0.1549 -0.8423
  122OSM   H11S12915   0.424   1.723   7.500  1.7597  0.2320  0.6936
  122OSM   H11T12916   0.302   1.851   7.473  0.2162  1.7211  0.8855
  122OSM   C12S12917   0.413   1.876   7.652 -0.0829 -0.0951  0.2012
  122OSM   H12S12918   0.403   1.986   7.654  0.7405 -0.0240  1.5544
  122OSM   H12T12919   0.516   1.865   7.694 -0.2401  0.5350  0.7624
  122OSM   C13S12920   0.300   1.818   7.731  0.5563 -0.0607  0.0221
  122OSM   H13S12921   0.313   1.708   7.735  2.5749  0.1501 -0.1675
  122OSM   H13T12922   0.204   1.837   7.677 -0.1911 -1.0767  0.9512
  122OSM   C14S12923   0.291   1.866   7.872 -1.1511  0.2200 -0.1732
  122OSM   H14S12924   0.252   1.970   7.878 -1.5893  0.0467  0.0545
  122OSM   H14T12925   0.390   1.857   7.920 -2.1328  0.7512  2.0885
  122OSM   C15S12926   0.202   1.778   7.953  0.6628 -0.8190 -0.5439
  122OSM   H15S12927   0.246   1.676   7.953 -1.2828 -1.7064 -1.6117
  122OSM   H15T12928   0.103   1.784   7.903  0.7266  1.7562 -0.4853
  122OSM   C16S12929   0.188   1.826   8.103 -0.2687  0.3578 -0.2175
  122OSM   H16S12930   0.142   1.927   8.101 -0.4587  0.2738 -0.0954
  122OSM   H16T12931   0.289   1.811   8.148  0.5884 -0.8104 -2.3692
  122OSM   C17S12932   0.097   1.735   8.183  0.0016 -0.1616 -0.2709
  122OSM   H17S12933   0.107   1.630   8.149  0.9776 -0.5422  1.0945
  122OSM   H17T12934  -0.009   1.765   8.167  0.2072  0.0299 -1.3534
  122OSM   C18S12935   0.123   1.723   8.333  0.0237 -0.4133  1.0113
  122OSM   H18S12936   0.051   1.648   8.372  0.7051 -2.5967 -1.5865
  122OSM   H18T12937   0.120   1.822   8.383 -3.2123  0.2791 -0.2788
  122OSM   H18U12938   0.227   1.686   8.347  0.6227 -0.1567 -2.1149
  122OSM    C1F12939   0.848   1.949   6.470  0.4321  0.3303  0.0573
  122OSM     OF12940   0.872   2.058   6.420  0.3883 -0.7186  0.4124
  122OSM    C2F12941   0.958   1.853   6.491 -0.5819 -0.4970  0.6445
  122OSM    H2F12942   1.039   1.859   6.416 -0.6441  1.8540  0.6737
  122OSM    H2G12943   0.914   1.751   6.492 -0.5352 -0.5215  0.3469
  122OSM    C3F12944   1.046   1.873   6.622 -0.1839 -0.9301  0.1052
  122OSM    H3F12945   1.116   1.956   6.600 -1.2804 -0.0283 -0.0794
  122OSM    H3G12946   1.089   1.772   6.632  2.1709 -0.1069 -1.0924
  122OSM    C4F12947   0.966   1.895   6.752 -0.7014  0.6133 -0.0088
  122OSM    H4F12948   0.882   1.822   6.752 -1.0387  0.8313 -3.0887
  122OSM    H4G12949   0.912   1.992   6.744 -0.9691  0.4084 -0.8037
  122OSM    C5F12950   1.055   1.882   6.873  0.2532 -0.6573 -0.1736
  122OSM    H5F12951   1.127   1.967   6.876 -0.5290  0.1044 -1.6331
  122OSM    H5G12952   1.107   1.784   6.869  0.9813 -0.3354  0.9750
  122OSM    C6F12953   0.980   1.903   7.006  0.0134 -0.0721 -0.1158
  122OSM    H6F12954   0.898   1.829   7.011 -1.6051  1.7347  2.4596
  122OSM    H6G12955   0.943   2.008   7.013  2.5407  0.8918  0.1373
  122OSM    C7F12956   1.071   1.873   7.131 -0.5268  0.5354 -0.0180
  122OSM    H7F12957   1.160   1.939   7.128 -0.4504  0.6527  2.4869
  122OSM    H7G12958   1.103   1.769   7.110 -0.8704  0.9768 -3.1789
  122OSM    C8F12959   1.002   1.886   7.265  0.1354 -0.2029  0.3366
  122OSM    H8F12960   0.941   1.979   7.264  0.3024 -0.0828 -1.6063
  122OSM    H8G12961   1.085   1.885   7.339  0.2103 -3.2851  0.3201
  122OSM    C9F12962   0.907   1.768   7.293 -0.4098 -0.5133  0.0970
  122OSM    H9F12963   0.858   1.722   7.206  2.0277 -2.2714 -0.4577
  122OSM   C10F12964   0.891   1.695   7.406  0.5393  0.4816 -0.3860
  122OSM   H10F12965   0.823   1.609   7.410  0.2752  0.7319  1.4077
  122OSM   C11F12966   0.950   1.728   7.539  0.2530 -0.2528  0.2339
  122OSM   H11F12967   0.974   1.837   7.546  1.4490 -0.4729 -0.2513
  122OSM   H11G12968   1.040   1.666   7.553  1.1028  1.5146  3.7330
  122OSM   C12F12969   0.843   1.682   7.642  0.0537 -0.5767 -0.0419
  122OSM   H12F12970   0.796   1.586   7.614 -4.8101  1.6932 -0.7468
  122OSM   H12G12971   0.762   1.759   7.641 -0.3299 -0.8815  2.2612
  122OSM   C13F12972   0.892   1.683   7.787  0.7314  0.0601  0.4274
  122OSM   H13F12973   0.938   1.780   7.815  1.9050 -0.1958 -0.5401
  122OSM   H13G12974   0.979   1.614   7.795  0.1464 -0.9210 -1.2586
  122OSM   C14F12975   0.765   1.660   7.877  0.3218  0.9146  0.6218
  122OSM   H14F12976   0.730   1.558   7.852 -1.7930  0.9592  3.0001
  122OSM   H14G12977   0.699   1.739   7.833  0.8284  0.1890 -1.5730
  122OSM   C15F12978   0.772   1.684   8.024 -0.4973 -0.0900 -0.7926
  122OSM   H15F12979   0.815   1.785   8.039 -2.0009  0.2824  1.3730
  122OSM   H15G12980   0.828   1.604   8.076 -1.0065  0.5971  0.8933
  122OSM   C16F12981   0.638   1.672   8.096  0.0422 -0.2232  0.0483
  122OSM   H16F12982   0.572   1.600   8.043  0.8927  0.3574 -1.8972
  122OSM   H16G12983   0.590   1.772   8.086 -0.5911 -0.4394  0.7948
  122OSM   C17F12984   0.645   1.635   8.245 -1.0741 -0.1123  0.3504
  122OSM   H17F12985   0.719   1.706   8.285 -1.1685 -0.0635  0.4375
  122OSM   H17G12986   0.691   1.534   8.256 -0.2253  0.3551  1.2578
  122OSM   C18F12987   0.515   1.666   8.325  0.1124 -0.7358  0.1575
  122OSM   H18F12988   0.489   1.774   8.329  1.4671 -0.2747 -1.7461
  122OSM   H18G12989   0.535   1.626   8.427 -1.3945 -1.1575  0.3036
  122OSM   H18H12990   0.428   1.616   8.279 -0.3218 -0.1950  0.3826
  123OSM      N12991   5.110   4.476   6.179 -0.2380 -0.7022 -0.6191
  123OSM    C1512992   5.056   4.614   6.140  0.5252  0.6218 -0.4801
  123OSM   H15A12993   4.969   4.614   6.078 -0.5493  3.0144  0.8997
  123OSM   H15B12994   5.139   4.650   6.081  0.1099  0.4894 -1.1514
  123OSM   H15C12995   5.027   4.676   6.223 -0.9371  0.0085 -0.5131
  123OSM    C1412996   5.015   4.410   6.277 -0.2661 -0.1514  0.3701
  123OSM   H14A12997   4.919   4.416   6.228 -1.5366 -2.4221  2.3821
  123OSM   H14B12998   4.998   4.454   6.374 -3.6156 -1.2965  0.4186
  123OSM   H14C12999   5.043   4.306   6.282  0.0287 -0.0612  0.5952
  123OSM    C1313000   5.125   4.378   6.065  0.0356  0.3817 -0.0347
  123OSM   H13A13001   5.028   4.352   6.024  0.7966  2.3936 -3.5123
  123OSM   H13B13002   5.162   4.284   6.101  2.2102  1.9591  2.1803
  123OSM   H13C13003   5.186   4.414   5.983  4.2879  1.2984  3.2101
  123OSM    C1213004   5.245   4.493   6.243 -0.0839 -0.1528 -0.1452
  123OSM   H12A13005   5.268   4.403   6.297  1.2620  0.6832  0.7205
  123OSM   H12B13006   5.246   4.580   6.307 -1.5168  1.2753 -1.9173
  123OSM    C1113007   5.362   4.530   6.149 -0.5492  0.2716  0.5376
  123OSM   H11A13008   5.407   4.449   6.088  0.7789  0.2063  1.5561
  123OSM   H11B13009   5.445   4.550   6.220  0.2426 -0.5241 -0.1430
  123OSM      P13010   5.377   4.791   6.105 -0.2727  0.1404 -0.4213
  123OSM    O1313011   5.520   4.816   6.066  0.0387 -0.3442 -0.4088
  123OSM    O1413012   5.268   4.881   6.051 -0.6481  0.9207 -0.4515
  123OSM    O1113013   5.364   4.798   6.264  0.6550  0.4219 -0.4009
  123OSM    O1213014   5.331   4.641   6.067 -0.3067  0.1177  0.0014
  123OSM    C1S13015   5.259   4.863   6.336  0.1680 -0.2989  0.0393
  123OSM    H1S13016   5.170   4.799   6.315  0.5071 -0.5268 -0.7677
  123OSM    H1T13017   5.242   4.969   6.309 -0.3830 -0.8784 -2.1489
  123OSM     NF13018   5.172   4.920   6.557  0.1877 -0.0992  0.0927
  123OSM    HNF13019   5.173   5.015   6.585  2.6287 -0.5256  1.7412
  123OSM    C2S13020   5.288   4.870   6.493  0.4762 -0.6540  0.5616
  123OSM    H2S13021   5.306   4.771   6.538 -0.6359 -0.8355  0.6418
  123OSM    C3S13022   5.413   4.958   6.506 -0.1662  0.4598  0.5882
  123OSM    H3S13023   5.400   5.045   6.438  1.6203 -0.3355 -0.8642
  123OSM     O313024   5.534   4.903   6.444  0.0799 -0.3225  0.0725
  123OSM    HO313025   5.502   4.837   6.381 -0.4037  1.1232 -1.2702
  123OSM    C4S13026   5.435   5.018   6.645  0.0584 -0.1607  0.1741
  123OSM    H4S13027   5.373   5.108   6.658  1.8681  1.4829 -1.6562
  123OSM    C5S13028   5.506   4.965   6.747  0.1941  0.2391  0.1010
  123OSM    H5S13029   5.570   4.878   6.726  1.0011  0.3713  1.7550
  123OSM    C6S13030   5.508   5.039   6.884 -0.4288 -0.3946  0.3010
  123OSM    H6S13031   5.441   5.127   6.882  0.4848  0.3149  0.3161
  123OSM    H6T13032   5.610   5.073   6.912  0.5049 -2.1845 -0.7102
  123OSM    C7S13033   5.457   4.943   6.993  0.1573 -0.9700 -0.0444
  123OSM    H7S13034   5.516   4.849   6.998 -0.7605 -1.9172 -3.7017
  123OSM    H7T13035   5.357   4.901   6.965  0.5205 -2.4301  0.7905
  123OSM    C8S13036   5.467   5.010   7.134 -0.3691  0.1544 -0.3113
  123OSM    H8S13037   5.409   5.104   7.124  1.9422  1.4298 -2.9715
  123OSM    H8T13038   5.577   5.029   7.134 -0.2505 -0.4463 -1.7464
  123OSM    C9S13039   5.424   4.941   7.262  0.2916  0.1706 -0.3687
  123OSM    H9S13040   5.472   4.843   7.283 -3.4069 -1.2818  2.3638
  123OSM    H9T13041   5.317   4.913   7.251  0.5647 -0.2510 -2.6307
  123OSM   C10S13042   5.452   5.015   7.391  0.0802 -0.1871  0.2537
  123OSM   H10S13043   5.363   5.079   7.405  0.4311  0.3584  0.0109
  123OSM   H10T13044   5.540   5.082   7.377  0.1541 -0.1905  0.6953
  123OSM   C11S13045   5.454   4.919   7.510 -0.0346  0.0536 -0.3650
  123OSM   H11S13046   5.533   4.844   7.489 -0.0328 -0.0610  0.0527
  123OSM   H11T13047   5.358   4.865   7.521 -0.6183  1.0269 -0.6322
  123OSM   C12S13048   5.472   4.993   7.646 -0.4879 -0.0342  0.2189
  123OSM   H12S13049   5.392   5.069   7.650 -0.3823  0.2820 -2.0157
  123OSM   H12T13050   5.565   5.053   7.648 -0.5207  0.0944 -1.2036
  123OSM   C13S13051   5.477   4.889   7.757 -0.2800 -0.1892  0.4169
  123OSM   H13S13052   5.556   4.820   7.720 -1.8631 -1.5961 -0.4742
  123OSM   H13T13053   5.379   4.837   7.746  0.2333 -1.9508  3.2014
  123OSM   C14S13054   5.504   4.954   7.893  0.0288 -0.1929 -0.7500
  123OSM   H14S13055   5.419   5.022   7.915  0.3738  0.0874 -0.2534
  123OSM   H14T13056   5.599   5.009   7.879 -0.4549  0.0442 -3.6233
  123OSM   C15S13057   5.530   4.845   8.009  0.5173 -0.2745 -0.0875
  123OSM   H15S13058   5.622   4.788   7.986 -0.0308 -1.0457 -0.3922
  123OSM   H15T13059   5.443   4.778   7.995 -0.1618  0.6737 -0.4897
  123OSM   C16S13060   5.519   4.908   8.151  0.7868 -0.2454 -0.0118
  123OSM   H16S13061   5.414   4.942   8.164  1.2795  3.1944 -3.3133
  123OSM   H16T13062   5.593   4.991   8.148  1.6004 -0.9741 -0.7675
  123OSM   C17S13063   5.576   4.810   8.255  0.1010  0.3531  0.4712
  123OSM   H17S13064   5.597   4.867   8.348  1.5007  2.7643 -1.2085
  123OSM   H17T13065   5.671   4.777   8.209 -1.5316 -1.3113 -1.9598
  123OSM   C18S13066   5.480   4.690   8.291  0.3712 -0.4073 -0.5527
  123OSM   H18S13067   5.381   4.734   8.312 -0.1577 -2.0010  0.5122
  123OSM   H18T13068   5.518   4.635   8.380 -1.7369 -0.2339  0.5061
  123OSM   H18U13069   5.474   4.626   8.201 -2.0854 -0.9375 -0.0733
  123OSM    C1F13070   5.070   4.840   6.578 -0.6435 -0.2690 -0.8138
  123OSM     OF13071   5.090   4.717   6.579 -0.2302 -0.0360 -0.3436
  123OSM    C2F13072   4.943   4.908   6.623 -0.5557  0.4235 -0.2823
  123OSM    H2F13073   4.943   5.012   6.584  0.8345  0.2471 -0.8022
  123OSM    H2G13074   4.940   4.931   6.732  1.3378  1.5163 -0.4162
  123OSM    C3F13075   4.814   4.834   6.582  0.3125  0.5019  0.9090
  123OSM    H3F13076   4.794   4.760   6.662 -0.6297 -0.0812  0.1589
  123OSM    H3G13077   4.825   4.780   6.485 -0.0427  0.9859  0.5969
  123OSM    C4F13078   4.695   4.934   6.573 -0.5788  0.1614  0.1076
  123OSM    H4F13079   4.608   4.897   6.514 -2.2537  3.3681  0.3195
  123OSM    H4G13080   4.725   5.027   6.519  0.9487  0.7283  1.8390
  123OSM    C5F13081   4.640   4.966   6.712  0.5775 -0.2053  0.1637
  123OSM    H5F13082   4.724   5.017   6.764 -0.7456  0.4038  1.7865
  123OSM    H5G13083   4.607   4.879   6.772 -4.0223  0.3168 -1.2028
  123OSM    C6F13084   4.521   5.060   6.702  0.1658  0.2105  0.1742
  123OSM    H6F13085   4.446   5.034   6.625 -0.5035 -1.2616  1.2706
  123OSM    H6G13086   4.557   5.161   6.671  0.8765  0.3668  1.4544
  123OSM    C7F13087   4.440   5.081   6.831  0.4120 -0.2949  0.0984
  123OSM    H7F13088   4.367   4.997   6.841  0.6766 -0.3523  1.7446
  123OSM    H7G13089   4.372   5.168   6.821  0.0129 -0.5636  0.4377
  123OSM    C8F13090   4.523   5.116   6.956 -0.4149  0.2675 -0.0819
  123OSM    H8F13091   4.588   5.200   6.924 -0.5600  0.7810  0.9097
  123OSM    H8G13092   4.580   5.030   6.996  0.7687  1.3186  0.6036
  123OSM    C9F13093   4.425   5.153   7.066 -0.6672 -0.3993  0.0394
  123OSM    H9F13094   4.363   5.242   7.045  0.6479  0.9170  1.4791
  123OSM   C10F13095   4.422   5.106   7.189  0.0746  0.0439 -0.5242
  123OSM   H10F13096   4.344   5.154   7.250  2.3819 -0.1373  2.8364
  123OSM   C11F13097   4.490   4.989   7.249 -0.5468 -0.7279  0.2152
  123OSM   H11F13098   4.563   5.033   7.320 -0.5821  1.9195 -1.2601
  123OSM   H11G13099   4.558   4.933   7.181  0.5548 -0.5419  1.1277
  123OSM   C12F13100   4.397   4.880   7.305 -0.6378  0.3392 -0.0315
  123OSM   H12F13101   4.323   4.849   7.228 -2.1522  0.3434  1.3699
  123OSM   H12G13102   4.336   4.926   7.385  0.7260  4.8963 -1.3341
  123OSM   C13F13103   4.462   4.752   7.354  0.7803 -0.6406  0.3783
  123OSM   H13F13104   4.519   4.700   7.274 -0.7528 -0.8217 -0.6273
  123OSM   H13G13105   4.384   4.676   7.376  1.0459 -0.9334  0.3199
  123OSM   C14F13106   4.549   4.769   7.478  0.9507  0.3860  0.0595
  123OSM   H14F13107   4.508   4.828   7.563  0.1657 -1.3781  0.9712
  123OSM   H14G13108   4.635   4.829   7.442 -0.1502  2.4069  0.6509
  123OSM   C15F13109   4.596   4.635   7.531 -0.3734 -0.2350 -0.1527
  123OSM   H15F13110   4.640   4.561   7.461 -0.8695 -0.7943  0.1093
  123OSM   H15G13111   4.507   4.587   7.577 -0.0749  0.0500  0.7368
  123OSM   C16F13112   4.694   4.641   7.647 -0.1482 -0.2702 -0.0021
  123OSM   H16F13113   4.702   4.540   7.693 -0.3685  0.1883  1.0796
  123OSM   H16G13114   4.655   4.707   7.728 -1.0838 -1.1237  0.2563
  123OSM   C17F13115   4.827   4.715   7.623  0.1157 -0.8269 -0.2196
  123OSM   H17F13116   4.893   4.727   7.711  2.2779  0.9202 -1.9779
  123OSM   H17G13117   4.808   4.820   7.594  2.1983 -0.2315  0.4024
  123OSM   C18F13118   4.898   4.654   7.499 -0.2208 -0.1049  0.3028
  123OSM   H18F13119   4.842   4.669   7.405  1.8009  0.8884 -0.8159
  123OSM   H18G13120   4.928   4.547   7.509  1.1809  0.3736  1.7019
  123OSM   H18H13121   4.987   4.714   7.469 -2.0700  1.1190 -3.2840
  124OSM      N13122   5.677   2.197   5.746  0.0125 -0.7377 -0.0439
  124OSM    C1513123   5.598   2.083   5.682  0.6380 -0.0747 -0.0854
  124OSM   H15A13124   5.624   2.058   5.581  0.3193  0.3323 -0.2688
  124OSM   H15B13125   5.490   2.091   5.678  0.3809 -0.1695  3.4558
  124OSM   H15C13126   5.611   1.992   5.739 -2.1075 -0.2879  0.3596
  124OSM    C1413127   5.821   2.159   5.750 -0.2004 -0.0405  0.1803
  124OSM   H14A13128   5.882   2.248   5.755  1.3885 -0.8659 -2.5193
  124OSM   H14B13129   5.860   2.116   5.659  2.9240  1.0455  0.8667
  124OSM   H14C13130   5.841   2.085   5.826  3.3973  0.9387  0.3979
  124OSM    C1313131   5.664   2.326   5.672  0.5098  0.3974  0.3407
  124OSM   H13A13132   5.560   2.353   5.669 -0.5971 -3.4209 -0.4181
  124OSM   H13B13133   5.710   2.333   5.575 -1.3698  0.2876 -0.6012
  124OSM   H13C13134   5.714   2.404   5.729  0.4512  0.9431 -0.3482
  124OSM    C1213135   5.643   2.212   5.890  0.4217  0.0391 -0.2000
  124OSM   H12A13136   5.646   2.113   5.931  0.3416 -0.5380 -1.5486
  124OSM   H12B13137   5.538   2.238   5.888  0.3051 -0.4287 -0.1658
  124OSM    C1113138   5.705   2.324   5.986  1.2131  0.2557  0.1840
  124OSM   H11A13139   5.791   2.376   5.937  1.1242  0.2441  0.0133
  124OSM   H11B13140   5.733   2.267   6.077  0.9748  0.3847  0.3400
  124OSM      P13141   5.634   2.534   6.110  0.6939 -0.0883 -0.1411
  124OSM    O1313142   5.691   2.649   6.048 -0.5503 -0.8524 -0.1210
  124OSM    O1413143   5.505   2.565   6.183 -0.3642 -0.1408  0.2175
  124OSM    O1113144   5.745   2.468   6.198 -0.1028  0.2562 -0.5342
  124OSM    O1213145   5.603   2.421   6.008 -0.3951 -0.3669 -0.0792
  124OSM    C1S13146   5.713   2.439   6.335  0.0855  0.1391 -0.3778
  124OSM    H1S13147   5.681   2.332   6.334  1.9569 -0.4599 -1.7631
  124OSM    H1T13148   5.634   2.506   6.376 -0.5305  0.7237 -2.4242
  124OSM     NF13149   5.792   2.436   6.560  0.7420  1.3462 -0.1122
  124OSM    HNF13150   5.790   2.507   6.630  0.9010  0.1321  1.1760
  124OSM    C2S13151   5.835   2.454   6.431  0.0672 -0.0563  0.3496
  124OSM    H2S13152   5.890   2.363   6.401 -0.1386 -0.6864  1.8210
  124OSM    C3S13153   5.925   2.585   6.399 -0.0470  0.1860 -0.5127
  124OSM    H3S13154   5.870   2.671   6.442  1.3043 -0.3552  2.6086
  124OSM     O313155   5.942   2.625   6.259 -0.1746 -0.6709  0.3167
  124OSM    HO313156   5.866   2.587   6.214 -1.5946  0.3179  1.7501
  124OSM    C4S13157   6.059   2.561   6.469 -0.4457  0.5382 -0.5269
  124OSM    H4S13158   6.050   2.566   6.579  2.5347 -0.3032 -0.1689
  124OSM    C5S13159   6.179   2.523   6.422  0.1454 -0.0639  0.5802
  124OSM    H5S13160   6.190   2.517   6.313  1.6193 -0.9866  0.7561
  124OSM    C6S13161   6.299   2.510   6.514 -0.8534  0.0352  0.0296
  124OSM    H6S13162   6.391   2.506   6.451 -0.4894 -1.3287  0.6148
  124OSM    H6T13163   6.297   2.420   6.579 -1.0104  0.5272  0.7202
  124OSM    C7S13164   6.313   2.632   6.607  0.1464 -0.4553 -0.3876
  124OSM    H7S13165   6.226   2.634   6.676  0.2738  0.3966 -0.2440
  124OSM    H7T13166   6.301   2.725   6.548  0.4473 -0.6793 -0.8075
  124OSM    C8S13167   6.437   2.621   6.682 -0.6363  0.0312  0.0609
  124OSM    H8S13168   6.479   2.721   6.707  0.7000 -0.4416 -0.2115
  124OSM    H8T13169   6.509   2.550   6.637 -2.0951 -2.9007  2.0138
  124OSM    C9S13170   6.411   2.549   6.818  0.1081  0.4898 -0.1674
  124OSM    H9S13171   6.366   2.451   6.795 -0.0620  0.5347 -0.0279
  124OSM    H9T13172   6.333   2.603   6.876  0.7435  0.5726  0.6396
  124OSM   C10S13173   6.546   2.533   6.901 -0.3083 -0.5153 -1.2430
  124OSM   H10S13174   6.571   2.637   6.931 -1.6422 -0.1801 -1.2077
  124OSM   H10T13175   6.629   2.479   6.850 -0.8317  0.1087 -2.8559
  124OSM   C11S13176   6.517   2.451   7.029  0.1967 -0.5376  0.1183
  124OSM   H11S13177   6.487   2.348   7.000 -0.6182  0.1412 -1.5452
  124OSM   H11T13178   6.435   2.512   7.072  1.1047 -0.2767  1.5662
  124OSM   C12S13179   6.640   2.445   7.122  0.9344 -0.5819 -0.6675
  124OSM   H12S13180   6.693   2.542   7.115  1.7858 -1.1665 -3.5397
  124OSM   H12T13181   6.709   2.371   7.076 -0.1313 -1.3776 -1.0441
  124OSM   C13S13182   6.616   2.400   7.274 -0.4846  0.1088 -0.7225
  124OSM   H13S13183   6.719   2.393   7.314  0.5330  1.4410 -2.9197
  124OSM   H13T13184   6.569   2.299   7.276 -0.4329  0.0702 -1.2403
  124OSM   C14S13185   6.526   2.497   7.350 -0.8857  0.3489 -0.4556
  124OSM   H14S13186   6.421   2.485   7.314 -0.8614 -3.4875  0.3245
  124OSM   H14T13187   6.565   2.600   7.338 -0.8910  0.5417  1.0347
  124OSM   C15S13188   6.516   2.460   7.506 -0.1788  0.8705  0.0322
  124OSM   H15S13189   6.620   2.437   7.538 -0.6399 -1.6700 -0.1173
  124OSM   H15T13190   6.466   2.362   7.523  1.1965  0.1885  0.3103
  124OSM   C16S13191   6.465   2.568   7.594  0.0917  0.0569 -0.3070
  124OSM   H16S13192   6.358   2.597   7.581 -0.2465 -0.2439  1.5135
  124OSM   H16T13193   6.530   2.659   7.595  3.8945 -2.4406 -0.7660
  124OSM   C17S13194   6.474   2.515   7.742  0.1074 -0.3510 -0.2417
  124OSM   H17S13195   6.583   2.509   7.766 -0.2339 -0.4997  1.4017
  124OSM   H17T13196   6.425   2.416   7.729 -0.4339  0.1441 -2.3972
  124OSM   C18S13197   6.402   2.607   7.838 -0.2608 -0.0037  0.0700
  124OSM   H18S13198   6.311   2.649   7.792  1.0359 -0.0841 -2.7622
  124OSM   H18T13199   6.476   2.687   7.858  0.5434 -0.6367 -0.3073
  124OSM   H18U13200   6.378   2.542   7.925  0.6230 -0.8340 -0.2849
  124OSM    C1F13201   5.762   2.314   6.619 -0.1402  0.3634  0.2094
  124OSM     OF13202   5.742   2.215   6.552  0.8587 -0.3129  0.1792
  124OSM    C2F13203   5.759   2.308   6.765  0.2437 -0.2219  0.5516
  124OSM    H2F13204   5.701   2.385   6.821  1.3405  0.2229  1.1005
  124OSM    H2G13205   5.867   2.308   6.788  0.5329 -2.1129 -0.6304
  124OSM    C3F13206   5.719   2.163   6.811  0.8853 -0.0306 -0.4875
  124OSM    H3F13207   5.770   2.078   6.762 -0.5873 -1.5221  0.4549
  124OSM    H3G13208   5.611   2.149   6.791  0.9235 -0.3847 -0.4456
  124OSM    C4F13209   5.744   2.131   6.964  0.3514  0.0425 -0.7808
  124OSM    H4F13210   5.848   2.161   6.989 -0.0286  1.3107 -0.6306
  124OSM    H4G13211   5.717   2.025   6.984 -0.7826  0.4959  0.2602
  124OSM    C5F13212   5.656   2.219   7.065 -1.3320  0.7405 -0.0847
  124OSM    H5F13213   5.551   2.191   7.042 -0.9295 -0.8380 -0.1129
  124OSM    H5G13214   5.684   2.324   7.043  0.3549  0.4843  0.6915
  124OSM    C6F13215   5.687   2.205   7.221 -0.2320  0.0533 -0.9543
  124OSM    H6F13216   5.776   2.270   7.235 -1.1076  1.0116  0.4538
  124OSM    H6G13217   5.717   2.101   7.243 -2.0696 -0.2184  0.5344
  124OSM    C7F13218   5.575   2.271   7.306  0.0380  0.2258  0.4615
  124OSM    H7F13219   5.480   2.218   7.284  1.1985 -0.9986 -2.0463
  124OSM    H7G13220   5.565   2.376   7.272  0.5749  0.4286  0.9110
  124OSM    C8F13221   5.593   2.244   7.455 -0.8952 -0.8719 -0.1843
  124OSM    H8F13222   5.644   2.146   7.454 -0.3559 -0.6220 -2.3356
  124OSM    H8G13223   5.498   2.244   7.513 -1.5945 -1.6905 -1.2884
  124OSM    C9F13224   5.674   2.349   7.521  0.0219 -0.0775  0.3513
  124OSM    H9F13225   5.752   2.378   7.448 -0.9375 -0.0284 -0.6886
  124OSM   C10F13226   5.673   2.402   7.647 -0.0813  0.0626  0.4696
  124OSM   H10F13227   5.732   2.493   7.668  0.6612 -0.1611 -0.5844
  124OSM   C11F13228   5.574   2.359   7.757  0.5962 -0.9417 -0.2947
  124OSM   H11F13229   5.485   2.305   7.718 -1.0503  1.2412  0.2848
  124OSM   H11G13230   5.545   2.452   7.810  1.6277 -0.8834  0.1905
  124OSM   C12F13231   5.618   2.269   7.871 -0.0685  0.1656 -0.4329
  124OSM   H12F13232   5.717   2.312   7.895 -1.2288  3.0164 -0.3159
  124OSM   H12G13233   5.641   2.168   7.829  0.9348  0.4678 -0.6335
  124OSM   C13F13234   5.533   2.263   7.992  0.6329  0.1320  0.4111
  124OSM   H13F13235   5.455   2.186   7.973 -3.1085  3.1995  1.8176
  124OSM   H13G13236   5.474   2.357   8.001 -3.0565 -1.6963 -2.1170
  124OSM   C14F13237   5.605   2.216   8.122 -0.1790  0.0741  0.5370
  124OSM   H14F13238   5.542   2.217   8.214  0.7522  2.7131  1.2449
  124OSM   H14G13239   5.683   2.293   8.137  2.0071 -1.8724 -0.1835
  124OSM   C15F13240   5.689   2.091   8.116  0.5714  0.0535 -0.6058
  124OSM   H15F13241   5.761   2.094   8.031  0.0548 -0.6932 -1.0688
  124OSM   H15G13242   5.626   2.001   8.100 -0.2875  0.5347 -0.0317
  124OSM   C16F13243   5.761   2.050   8.248 -0.6309 -0.2528 -0.7035
  124OSM   H16F13244   5.692   1.999   8.318  0.0513 -0.2165  0.0034
  124OSM   H16G13245   5.798   2.141   8.300  0.1909 -0.9976  0.0466
  124OSM   C17F13246   5.896   1.966   8.228  1.2014  0.0096  0.5673
  124OSM   H17F13247   5.971   2.029   8.175  0.0309 -0.1488 -1.3970
  124OSM   H17G13248   5.854   1.897   8.152 -0.3806  1.2511  0.2732
  124OSM   C18F13249   5.948   1.897   8.355 -0.0120 -0.0608 -0.3057
  124OSM   H18F13250   5.880   1.817   8.391 -0.5689  1.1268  1.3970
  124OSM   H18G13251   5.966   1.959   8.445 -1.1235 -0.0015 -0.1137
  124OSM   H18H13252   6.047   1.848   8.338  1.6195  3.0003 -0.3621
  125OSM      N13253   3.017   5.554   6.440 -0.1152 -0.3784  0.3092
  125OSM    C1513254   2.937   5.485   6.539 -0.5806 -0.0141  0.3198
  125OSM   H15A13255   2.844   5.537   6.556 -2.5987 -3.0368 -0.5171
  125OSM   H15B13256   2.990   5.490   6.633 -0.6363  0.3731  0.3324
  125OSM   H15C13257   2.912   5.382   6.520  1.2893 -0.2625 -1.0229
  125OSM    C1413258   3.158   5.491   6.440  0.2688  0.1641  0.7547
  125OSM   H14A13259   3.160   5.391   6.399 -0.7684  1.0441 -1.6170
  125OSM   H14B13260   3.211   5.493   6.534 -0.2191  1.5122  1.0155
  125OSM   H14C13261   3.229   5.546   6.380  2.2509 -0.4087  2.4291
  125OSM    C1313262   2.952   5.517   6.311  0.4356 -0.1077  0.1504
  125OSM   H13A13263   2.993   5.423   6.276  0.2112 -0.4788  0.8846
  125OSM   H13B13264   2.984   5.590   6.238 -2.5640  0.9921 -0.1784
  125OSM   H13C13265   2.847   5.503   6.329  0.9059 -2.7236  1.3786
  125OSM    C1213266   3.020   5.704   6.459 -0.3568 -1.3140  0.0916
  125OSM   H12A13267   3.074   5.727   6.550  1.0552  1.5596 -1.3503
  125OSM   H12B13268   2.919   5.744   6.451  0.0129 -0.6525 -1.6429
  125OSM    C1113269   3.102   5.792   6.358  0.4813  0.6437  0.7585
  125OSM   H11A13270   3.070   5.898   6.372 -1.4576  0.1958  0.0201
  125OSM   H11B13271   3.067   5.769   6.255  2.2793  1.0749  0.0207
  125OSM      P13272   3.339   5.854   6.452 -0.5004 -0.0954  0.3438
  125OSM    O1313273   3.471   5.789   6.454 -0.3906 -0.5191 -0.1634
  125OSM    O1413274   3.345   5.987   6.385  0.0652  0.2035 -0.4701
  125OSM    O1113275   3.264   5.870   6.593 -0.4240  0.2552  0.7240
  125OSM    O1213276   3.236   5.765   6.370 -0.0799  0.3817 -0.1514
  125OSM    C1S13277   3.301   5.778   6.696 -0.0769 -0.4691 -0.5075
  125OSM    H1S13278   3.409   5.781   6.719  0.0323  0.4778 -1.0900
  125OSM    H1T13279   3.268   5.673   6.678  2.1231 -1.2917 -0.0806
  125OSM     NF13280   3.275   5.759   6.953  0.1954 -0.3599  1.1775
  125OSM    HNF13281   3.216   5.688   6.990  0.3239 -1.9919 -1.4625
  125OSM    C2S13282   3.222   5.815   6.826 -0.1588 -0.2392 -0.7775
  125OSM    H2S13283   3.248   5.923   6.834 -1.4407  0.0337 -0.1079
  125OSM    C3S13284   3.062   5.816   6.815 -0.4524 -0.2333 -0.0645
  125OSM    H3S13285   3.039   5.712   6.786  0.6710 -0.3582 -0.5679
  125OSM     O313286   3.014   5.891   6.701  0.4589  0.1524  0.1864
  125OSM    HO313287   3.096   5.924   6.663 -0.0777  0.2904 -0.8956
  125OSM    C4S13288   2.988   5.857   6.941 -0.4850  0.7101  0.0827
  125OSM    H4S13289   2.930   5.781   6.994  1.1294 -0.2132  0.6091
  125OSM    C5S13290   2.975   5.983   6.984  0.3290 -0.1778  0.3204
  125OSM    H5S13291   3.034   6.060   6.932 -0.4006 -0.1111 -0.4398
  125OSM    C6S13292   2.901   6.017   7.113  0.5282 -0.8842  0.1960
  125OSM    H6S13293   2.798   6.052   7.091  2.3401  5.5831  0.1690
  125OSM    H6T13294   2.945   6.105   7.163 -0.8580 -1.1918  2.0697
  125OSM    C7S13295   2.891   5.904   7.215 -0.7636  0.6582  0.0939
  125OSM    H7S13296   2.992   5.869   7.246 -0.0390  2.2835 -0.3612
  125OSM    H7T13297   2.837   5.816   7.173 -0.8274  0.8981 -0.3287
  125OSM    C8S13298   2.831   5.959   7.344  0.2775  0.3259  0.4167
  125OSM    H8S13299   2.734   6.007   7.321  0.3458  0.6115  0.7165
  125OSM    H8T13300   2.890   6.047   7.377 -0.1421  1.3030 -1.3281
  125OSM    C9S13301   2.816   5.855   7.461  0.8525  0.3088  0.5978
  125OSM    H9S13302   2.770   5.907   7.547 -0.4616  1.2427 -0.6237
  125OSM    H9T13303   2.914   5.808   7.484  1.0697 -0.0171 -0.8677
  125OSM   C10S13304   2.716   5.740   7.431  0.0275 -0.0375  0.1158
  125OSM   H10S13305   2.747   5.680   7.343 -0.4585  0.6856 -0.5656
  125OSM   H10T13306   2.613   5.780   7.425  0.5905  1.6008  0.7349
  125OSM   C11S13307   2.701   5.650   7.560  0.6247  0.1847 -0.2139
  125OSM   H11S13308   2.697   5.720   7.647  0.5903 -0.1790  0.0807
  125OSM   H11T13309   2.800   5.600   7.565  0.3731 -0.2806  0.2204
  125OSM   C12S13310   2.587   5.539   7.548 -1.0231 -0.2922 -0.0793
  125OSM   H12S13311   2.600   5.492   7.448  1.5851 -0.8373  0.4381
  125OSM   H12T13312   2.494   5.597   7.564  0.9925  2.8537  1.4565
  125OSM   C13S13313   2.598   5.420   7.647  0.5460 -0.8160 -0.1432
  125OSM   H13S13314   2.682   5.352   7.621 -0.6812 -1.3962 -2.8858
  125OSM   H13T13315   2.514   5.353   7.622 -0.5647  0.5953 -0.3478
  125OSM   C14S13316   2.609   5.467   7.792 -0.2270 -0.3823  0.0299
  125OSM   H14S13317   2.520   5.531   7.812  0.9986  1.6016 -0.6055
  125OSM   H14T13318   2.697   5.534   7.805 -0.4192 -0.2583  0.7192
  125OSM   C15S13319   2.604   5.354   7.900 -0.1552 -0.3654 -0.1709
  125OSM   H15S13320   2.703   5.303   7.905  0.4353  0.7469 -0.2890
  125OSM   H15T13321   2.530   5.277   7.870  0.7445 -1.1773 -0.3818
  125OSM   C16S13322   2.562   5.409   8.038 -0.3684  0.2179 -0.3971
  125OSM   H16S13323   2.461   5.456   8.032 -0.9517 -0.1781  3.4800
  125OSM   H16T13324   2.632   5.494   8.057 -0.9442  0.6424 -0.1326
  125OSM   C17S13325   2.581   5.311   8.152  0.3106 -0.7458  0.4818
  125OSM   H17S13326   2.519   5.223   8.124 -2.3288  1.1210  0.0461
  125OSM   H17T13327   2.527   5.342   8.245  1.5010 -1.0825  1.3044
  125OSM   C18S13328   2.711   5.259   8.189 -0.0058 -0.5453 -0.4790
  125OSM   H18S13329   2.769   5.220   8.102  0.2593 -0.0218 -0.5428
  125OSM   H18T13330   2.703   5.175   8.260  1.8980 -0.4326 -0.0732
  125OSM   H18U13331   2.769   5.337   8.243  1.7199 -1.3938 -1.0371
  125OSM    C1F13332   3.392   5.795   7.011  0.2761 -0.0525 -0.0884
  125OSM     OF13333   3.458   5.887   6.966  0.3382  0.2005  0.1164
  125OSM    C2F13334   3.423   5.724   7.138 -0.1912 -0.1867 -0.1812
  125OSM    H2F13335   3.533   5.736   7.150 -0.3928  1.6969  0.0249
  125OSM    H2G13336   3.385   5.620   7.135 -1.2035  0.1259  1.2382
  125OSM    C3F13337   3.361   5.785   7.264  0.2091 -1.5025  1.0704
  125OSM    H3F13338   3.252   5.803   7.255  0.4979  1.3989  2.3480
  125OSM    H3G13339   3.396   5.889   7.280 -0.2493 -1.4850  2.0431
  125OSM    C4F13340   3.389   5.702   7.391 -0.7559 -0.0145  0.7286
  125OSM    H4F13341   3.495   5.673   7.405 -0.2422  1.6502  0.5006
  125OSM    H4G13342   3.323   5.614   7.381  1.1174 -1.1971 -2.3210
  125OSM    C5F13343   3.332   5.773   7.516  0.3200  0.1466 -0.8900
  125OSM    H5F13344   3.228   5.805   7.496 -1.1664 -2.6936  1.4336
  125OSM    H5G13345   3.384   5.867   7.544 -3.0736  1.8733  0.1492
  125OSM    C6F13346   3.314   5.685   7.638  0.4666 -0.0188  0.5050
  125OSM    H6F13347   3.275   5.586   7.605 -2.9626  1.2491  0.3004
  125OSM    H6G13348   3.243   5.728   7.712 -0.6696 -0.1624 -0.4608
  125OSM    C7F13349   3.443   5.661   7.719  0.0855  0.3508  0.3166
  125OSM    H7F13350   3.527   5.635   7.650 -0.7004  0.0770 -0.5561
  125OSM    H7G13351   3.437   5.568   7.779  0.3863  0.8467  1.1290
  125OSM    C8F13352   3.490   5.790   7.811  0.2751  0.4238  0.4097
  125OSM    H8F13353   3.491   5.883   7.752  1.3360  1.0384  1.3724
  125OSM    H8G13354   3.596   5.767   7.835  0.4063  1.6923  1.1235
  125OSM    C9F13355   3.390   5.791   7.923  0.1833  0.7664 -0.6338
  125OSM    H9F13356   3.297   5.842   7.894  1.2253  3.0422 -0.2041
  125OSM   C10F13357   3.407   5.758   8.054 -0.6912 -0.8041  0.2037
  125OSM   H10F13358   3.323   5.755   8.125  0.5151 -1.3515  1.6689
  125OSM   C11F13359   3.538   5.711   8.117 -0.0018 -0.1111  0.1565
  125OSM   H11F13360   3.618   5.781   8.085 -2.2380  1.7984 -1.6348
  125OSM   H11G13361   3.551   5.607   8.081 -2.0326 -0.9007  1.5647
  125OSM   C12F13362   3.532   5.713   8.274  0.5048  0.7423  0.1831
  125OSM   H12F13363   3.624   5.671   8.320  0.0662 -1.3659 -0.7057
  125OSM   H12G13364   3.445   5.652   8.310  0.9194  0.0223 -0.0099
  125OSM   C13F13365   3.500   5.858   8.317 -0.7093  0.1060  0.1640
  125OSM   H13F13366   3.394   5.888   8.303 -1.2056 -1.4109  0.5076
  125OSM   H13G13367   3.552   5.929   8.249 -0.3194  0.4533  0.8178
  125OSM   C14F13368   3.530   5.891   8.464 -0.7217 -0.6387  0.2256
  125OSM   H14F13369   3.459   5.836   8.530  0.2020 -2.0333  0.1079
  125OSM   H14G13370   3.508   5.999   8.470 -2.1679 -0.8325 -0.9273
  125OSM   C15F13371   3.674   5.864   8.514  0.5255  0.2571  0.0347
  125OSM   H15F13372   3.744   5.914   8.443 -1.1639  2.1378 -0.3997
  125OSM   H15G13373   3.683   5.753   8.517  1.4585  0.3460  1.2259
  125OSM   C16F13374   3.693   5.923   8.656 -0.0779  0.5902 -0.0139
  125OSM   H16F13375   3.641   5.860   8.732  0.2812 -1.1143 -1.1317
  125OSM   H16G13376   3.649   6.025   8.665 -0.6186  0.2564  1.4139
  125OSM   C17F13377   3.834   5.929   8.705 -0.8773 -0.5851  0.0046
  125OSM   H17F13378   3.896   5.993   8.640 -0.0241 -3.4384 -2.1895
  125OSM   H17G13379   3.877   5.827   8.697  1.6218  0.2453  1.8175
  125OSM   C18F13380   3.864   5.970   8.851  0.6625 -0.1024  0.5144
  125OSM   H18F13381   3.832   6.076   8.850  2.7187  0.6764 -3.7700
  125OSM   H18G13382   3.973   5.982   8.870  0.6775  0.4966  0.0749
  125OSM   H18H13383   3.813   5.911   8.930  1.6944  0.6169  1.7607
  126OSM      N13384   6.224   6.042   6.148 -0.8350 -0.4259 -0.1556
  126OSM    C1513385   6.284   6.041   6.279 -0.0491  0.6287 -0.4135
  126OSM   H15A13386   6.370   5.976   6.289 -0.2911  0.5547  1.3866
  126OSM   H15B13387   6.207   5.996   6.339 -0.1490 -1.0847 -1.7391
  126OSM   H15C13388   6.301   6.140   6.318  1.7689  1.2049 -2.4801
  126OSM    C1413389   6.104   6.134   6.141  0.3014 -0.0164 -0.3333
  126OSM   H14A13390   6.017   6.099   6.194 -0.1259  1.5961  0.0784
  126OSM   H14B13391   6.068   6.149   6.040  0.7330  0.3912 -0.4272
  126OSM   H14C13392   6.126   6.227   6.191 -1.3801 -0.3919  1.2022
  126OSM    C1313393   6.321   6.098   6.049  0.1500 -0.1139 -0.7746
  126OSM   H13A13394   6.356   6.198   6.071  1.2892 -0.4408 -1.0556
  126OSM   H13B13395   6.275   6.103   5.951 -1.9917  0.3242  0.1781
  126OSM   H13C13396   6.409   6.036   6.051  0.5895  0.5109 -0.2945
  126OSM    C1213397   6.177   5.909   6.097 -0.7647  0.2732 -0.3678
  126OSM   H12A13398   6.272   5.861   6.080 -0.0358  2.2965 -2.7020
  126OSM   H12B13399   6.134   5.916   5.998  1.0584  0.5842 -1.1810
  126OSM    C1113400   6.094   5.816   6.188  0.3593  0.5004  0.2804
  126OSM   H11A13401   5.989   5.852   6.194  0.1163  0.3594 -2.1053
  126OSM   H11B13402   6.139   5.803   6.288  1.2533 -3.6240 -0.4423
  126OSM      P13403   6.182   5.567   6.128  0.3640 -0.4661 -0.4781
  126OSM    O1313404   6.133   5.466   6.032 -0.3573 -0.5128 -0.2032
  126OSM    O1413405   6.321   5.625   6.116  0.0792 -0.1453 -0.0170
  126OSM    O1113406   6.171   5.507   6.271 -0.6378 -0.3514 -0.0485
  126OSM    O1213407   6.075   5.682   6.130 -0.0415 -0.1137 -0.3623
  126OSM    C1S13408   6.104   5.384   6.290 -0.0793 -0.2445 -0.6038
  126OSM    H1S13409   6.158   5.301   6.239  1.7966  0.6955 -0.2268
  126OSM    H1T13410   5.997   5.385   6.261 -0.7250 -0.1026  1.5897
  126OSM     NF13411   6.073   5.203   6.467  0.7737 -0.5623  0.1421
  126OSM    HNF13412   5.977   5.178   6.477 -0.2822  2.8809  0.1660
  126OSM    C2S13413   6.099   5.349   6.446 -0.7392 -0.3582 -0.2105
  126OSM    H2S13414   6.192   5.385   6.495 -0.1752 -0.9941 -0.8023
  126OSM    C3S13415   5.994   5.451   6.499  0.1198 -0.2678 -0.0479
  126OSM    H3S13416   5.908   5.432   6.430  1.0488 -1.9439 -0.8074
  126OSM     O313417   6.014   5.593   6.474 -0.6394  0.1392  0.1283
  126OSM    HO313418   6.055   5.606   6.388  1.5727 -0.1081  1.0609
  126OSM    C4S13419   5.970   5.434   6.648 -0.4380 -0.0755  0.3831
  126OSM    H4S13420   6.056   5.397   6.706  1.2891 -0.5521 -2.2988
  126OSM    C5S13421   5.848   5.424   6.696  0.7595  1.0669  0.3219
  126OSM    H5S13422   5.767   5.445   6.624  0.1890  1.3569  1.0384
  126OSM    C6S13423   5.797   5.393   6.835  0.2170  0.0558  0.5037
  126OSM    H6S13424   5.728   5.307   6.826  0.5059 -0.1260  0.0168
  126OSM    H6T13425   5.750   5.491   6.861  0.5753  0.3428  0.0851
  126OSM    C7S13426   5.898   5.363   6.951  0.2938  0.0880  0.0011
  126OSM    H7S13427   6.002   5.401   6.938  0.4880 -0.4570 -0.0666
  126OSM    H7T13428   5.918   5.254   6.958 -0.5450  0.0320  2.3360
  126OSM    C8S13429   5.844   5.403   7.089 -0.3325  0.1818  0.4256
  126OSM    H8S13430   5.748   5.350   7.107 -0.5092  0.9159  1.7696
  126OSM    H8T13431   5.844   5.514   7.095  2.1340  0.4923 -2.4772
  126OSM    C9S13432   5.940   5.359   7.203  0.2997  0.1593  0.7048
  126OSM    H9S13433   6.035   5.412   7.179 -0.6261  0.8429 -1.8317
  126OSM    H9T13434   5.959   5.250   7.196 -4.8409 -0.9639  0.0461
  126OSM   C10S13435   5.891   5.393   7.344 -0.0508 -0.5878  0.0199
  126OSM   H10S13436   5.888   5.503   7.363 -0.8214 -0.5486 -0.2752
  126OSM   H10T13437   5.967   5.352   7.413 -1.4090 -1.3760  1.1059
  126OSM   C11S13438   5.754   5.339   7.376  0.2145  0.4052  0.5680
  126OSM   H11S13439   5.751   5.230   7.356 -0.4930 -0.0335  2.7783
  126OSM   H11T13440   5.680   5.380   7.304  2.9768  4.5950 -0.2383
  126OSM   C12S13441   5.692   5.367   7.513  0.4084 -0.5087  0.1512
  126OSM   H12S13442   5.594   5.315   7.526 -0.5805  1.1184 -0.5215
  126OSM   H12T13443   5.667   5.475   7.507  1.1871 -0.4268 -2.6726
  126OSM   C13S13444   5.762   5.321   7.644 -1.0003  0.1892  1.6014
  126OSM   H13S13445   5.869   5.353   7.643 -1.8938  3.8316 -1.3956
  126OSM   H13T13446   5.774   5.212   7.629  2.3513  0.6390 -0.0921
  126OSM   C14S13447   5.678   5.373   7.758 -0.0080  0.1447 -0.6563
  126OSM   H14S13448   5.575   5.342   7.731  0.5723  0.2659 -3.2400
  126OSM   H14T13449   5.658   5.482   7.746 -0.0542  0.1096 -0.9059
  126OSM   C15S13450   5.722   5.336   7.899  0.1779 -0.0334 -0.1399
  126OSM   H15S13451   5.819   5.388   7.913 -0.2600  1.7707 -2.9424
  126OSM   H15T13452   5.741   5.226   7.906 -0.1043 -0.0008  1.6978
  126OSM   C16S13453   5.614   5.380   8.007 -0.2322 -0.0549  0.6589
  126OSM   H16S13454   5.524   5.329   7.967  1.2894 -1.0332 -1.7677
  126OSM   H16T13455   5.587   5.488   8.014 -1.8139 -0.4563  1.1760
  126OSM   C17S13456   5.651   5.331   8.150  0.6985  0.4262  0.1042
  126OSM   H17S13457   5.676   5.224   8.135  1.5121  1.0215 -3.9669
  126OSM   H17T13458   5.568   5.348   8.222  1.5922  0.0352  1.2599
  126OSM   C18S13459   5.774   5.403   8.200 -0.1252  0.1636 -0.1768
  126OSM   H18S13460   5.759   5.423   8.309  1.4515  0.0887  0.0853
  126OSM   H18T13461   5.796   5.501   8.152 -0.4790  0.2495 -0.1613
  126OSM   H18U13462   5.866   5.343   8.183 -0.0886  0.1357  0.1008
  126OSM    C1F13463   6.170   5.121   6.475 -0.5161  0.7477  0.0745
  126OSM     OF13464   6.290   5.160   6.489  0.3695 -0.4278 -0.5860
  126OSM    C2F13465   6.127   4.976   6.466 -0.0163 -0.6656 -0.5758
  126OSM    H2F13466   6.056   4.964   6.382 -0.5803 -2.6050  0.1291
  126OSM    H2G13467   6.069   4.953   6.558 -1.0352  1.7879 -0.5474
  126OSM    C3F13468   6.245   4.876   6.449 -0.3740 -0.0004 -1.0555
  126OSM    H3F13469   6.312   4.895   6.363  0.7711 -0.7288 -0.3541
  126OSM    H3G13470   6.209   4.772   6.435 -0.6868 -0.0511 -0.0040
  126OSM    C4F13471   6.338   4.851   6.570 -0.1339 -0.0567  0.3137
  126OSM    H4F13472   6.396   4.944   6.591  0.0903 -0.4096  1.2744
  126OSM    H4G13473   6.422   4.781   6.551 -1.5693 -1.3306 -1.7900
  126OSM    C5F13474   6.266   4.811   6.698  0.0887  0.6538 -0.9720
  126OSM    H5F13475   6.192   4.734   6.667  0.1291  0.0385  0.3778
  126OSM    H5G13476   6.209   4.896   6.741 -1.3806 -0.7545 -0.0046
  126OSM    C6F13477   6.367   4.746   6.796 -0.0962  0.1807 -0.5945
  126OSM    H6F13478   6.453   4.814   6.813  1.6378 -1.8389 -0.9335
  126OSM    H6G13479   6.410   4.654   6.751 -0.6421  0.0047 -0.7658
  126OSM    C7F13480   6.303   4.728   6.938  0.6733 -0.3886  0.3731
  126OSM    H7F13481   6.245   4.633   6.940  1.2899 -0.8098 -0.6343
  126OSM    H7G13482   6.237   4.813   6.964  0.8294 -0.6464  1.7261
  126OSM    C8F13483   6.405   4.725   7.058 -0.0442 -1.0354 -0.2028
  126OSM    H8F13484   6.349   4.743   7.152 -0.5508 -3.5869  0.0299
  126OSM    H8G13485   6.473   4.810   7.035 -2.1467  1.4024  1.8883
  126OSM    C9F13486   6.482   4.599   7.078 -0.1718 -0.5176  0.5376
  126OSM    H9F13487   6.582   4.606   7.033 -0.0207  1.0396  1.0788
  126OSM   C10F13488   6.447   4.494   7.148 -0.2883 -0.4054 -0.4656
  126OSM   H10F13489   6.530   4.422   7.144  1.4072  1.4115  0.3781
  126OSM   C11F13490   6.321   4.465   7.227  0.1072 -0.1620 -0.7191
  126OSM   H11F13491   6.264   4.386   7.174 -1.3631  0.4852 -0.1718
  126OSM   H11G13492   6.258   4.557   7.227  0.5114  0.1164 -0.8014
  126OSM   C12F13493   6.343   4.421   7.377 -0.2654  0.5000  0.3176
  126OSM   H12F13494   6.430   4.353   7.387 -0.9409 -0.4583 -0.1521
  126OSM   H12G13495   6.259   4.361   7.418  0.0386  1.6301  2.7893
  126OSM   C13F13496   6.361   4.550   7.466  0.0604 -0.5099  0.9300
  126OSM   H13F13497   6.262   4.600   7.467  0.1419 -0.1040 -1.9437
  126OSM   H13G13498   6.434   4.623   7.426 -2.9455  2.8732  1.0966
  126OSM   C14F13499   6.391   4.504   7.602 -0.2132 -0.2378  0.4233
  126OSM   H14F13500   6.496   4.472   7.617  0.2551  1.2433  0.4364
  126OSM   H14G13501   6.326   4.420   7.635  1.2626 -0.0430  4.2987
  126OSM   C15F13502   6.371   4.618   7.708  0.2691  0.7399  0.8908
  126OSM   H15F13503   6.263   4.640   7.713  0.0040  0.4964 -1.9553
  126OSM   H15G13504   6.415   4.713   7.671 -1.1444  1.3105  0.6207
  126OSM   C16F13505   6.434   4.580   7.841  0.0335  0.6872  0.3961
  126OSM   H16F13506   6.545   4.584   7.838  0.1460 -1.0450  1.2870
  126OSM   H16G13507   6.388   4.485   7.874  2.0201  0.7443  3.7988
  126OSM   C17F13508   6.393   4.690   7.941  0.0314  0.1069 -0.0045
  126OSM   H17F13509   6.286   4.708   7.918  0.1076 -1.6717 -1.9617
  126OSM   H17G13510   6.441   4.788   7.920 -1.0116  1.5552  3.6040
  126OSM   C18F13511   6.403   4.635   8.085  0.0335 -0.3151 -0.0982
  126OSM   H18F13512   6.376   4.710   8.162 -1.1004  1.4455 -2.1047
  126OSM   H18G13513   6.507   4.598   8.099 -0.3285 -1.4289 -0.2101
  126OSM   H18H13514   6.334   4.548   8.092  1.5299 -1.8005 -2.3052
  127OSM      N13515   4.547   5.789   5.702  0.1684 -0.4162 -0.2134
  127OSM    C1513516   4.631   5.773   5.578  0.6600 -0.1441 -0.8855
  127OSM   H15A13517   4.690   5.682   5.580  2.6531  1.0579 -1.6456
  127OSM   H15B13518   4.704   5.853   5.568 -1.2474  1.5470 -2.0300
  127OSM   H15C13519   4.559   5.764   5.499 -1.2582 -0.4128  0.8262
  127OSM    C1413520   4.476   5.922   5.700  0.3932 -0.5681  1.1801
  127OSM   H14A13521   4.553   5.996   5.713  1.2080 -0.9170 -1.1272
  127OSM   H14B13522   4.401   5.948   5.773 -2.5594  2.0227 -2.3932
  127OSM   H14C13523   4.448   5.960   5.603  1.4972  0.4298  1.2193
  127OSM    C1313524   4.444   5.682   5.701 -0.0896  0.0499  0.5661
  127OSM   H13A13525   4.483   5.583   5.714  0.6752  0.3960  0.9762
  127OSM   H13B13526   4.378   5.682   5.616  0.6627  3.0517 -0.1401
  127OSM   H13C13527   4.383   5.687   5.791  1.0608 -1.8079  1.4931
  127OSM    C1213528   4.626   5.777   5.825  1.1057  0.4567 -0.0084
  127OSM   H12A13529   4.660   5.675   5.837 -0.1252  0.0457  0.0746
  127OSM   H12B13530   4.573   5.798   5.917  1.1570 -0.3296  0.2174
  127OSM    C1113531   4.757   5.865   5.837  0.0850  0.2442 -0.0777
  127OSM   H11A13532   4.805   5.858   5.737 -1.4016 -1.1845 -0.7405
  127OSM   H11B13533   4.828   5.811   5.903 -0.1062  2.7494  2.3755
  127OSM      P13534   4.679   6.044   6.000  0.1914 -0.0835 -0.2289
  127OSM    O1313535   4.785   6.100   6.077  0.4029 -0.2276 -0.0770
  127OSM    O1413536   4.571   6.144   5.978 -0.3091  0.2292  0.4438
  127OSM    O1113537   4.624   5.916   6.067  0.2662  0.7797 -0.1792
  127OSM    O1213538   4.737   6.002   5.868 -0.1795 -0.5130  0.0106
  127OSM    C1S13539   4.710   5.852   6.165  0.3573 -0.1149 -0.0848
  127OSM    H1S13540   4.818   5.873   6.155  0.3640  0.9470  1.7716
  127OSM    H1T13541   4.712   5.743   6.146 -0.1601 -0.1362 -0.0323
  127OSM     NF13542   4.775   5.824   6.400  0.5643  0.2331  1.0930
  127OSM    HNF13543   4.749   5.745   6.455 -0.2794  1.5314  2.6773
  127OSM    C2S13544   4.671   5.882   6.320 -0.2091 -0.2933 -0.2753
  127OSM    H2S13545   4.676   5.993   6.326  1.2566 -0.2206 -1.9982
  127OSM    C3S13546   4.526   5.832   6.334  1.1368  1.4047  0.1377
  127OSM    H3S13547   4.530   5.724   6.308 -0.1902  0.9986  1.4579
  127OSM     O313548   4.434   5.886   6.236  0.5313  0.0501  0.8348
  127OSM    HO313549   4.482   5.906   6.155 -1.5643 -2.9954 -1.3762
  127OSM    C4S13550   4.481   5.839   6.477  0.1453  0.5725 -0.6246
  127OSM    H4S13551   4.510   5.747   6.532 -2.0594  1.1728  1.7422
  127OSM    C5S13552   4.408   5.928   6.544 -0.0721  0.6566 -0.2551
  127OSM    H5S13553   4.360   6.000   6.476  0.0071 -1.1057 -2.2957
  127OSM    C6S13554   4.364   5.923   6.687 -0.3992 -0.2861  0.3215
  127OSM    H6S13555   4.412   5.850   6.756  1.3985 -0.4114 -0.9922
  127OSM    H6T13556   4.258   5.894   6.703 -0.1174 -1.0803  0.8068
  127OSM    C7S13557   4.380   6.057   6.759  0.0200 -0.0502  0.6062
  127OSM    H7S13558   4.300   6.128   6.729 -0.1102  0.4153  1.9840
  127OSM    H7T13559   4.485   6.095   6.752  0.1361  0.3263  3.3931
  127OSM    C8S13560   4.346   6.045   6.904 -0.5430 -0.9605  0.2077
  127OSM    H8S13561   4.416   5.975   6.954 -1.4865 -0.9848  1.5705
  127OSM    H8T13562   4.244   6.001   6.918 -1.8306  1.3307 -1.3743
  127OSM    C9S13563   4.368   6.179   6.978 -0.3098  0.5214  0.6326
  127OSM    H9S13564   4.300   6.254   6.931  0.4957 -0.0933 -1.6192
  127OSM    H9T13565   4.464   6.231   6.956 -1.2635  1.4490 -1.7575
  127OSM   C10S13566   4.351   6.156   7.129 -0.1625  0.3888 -0.1254
  127OSM   H10S13567   4.427   6.080   7.159 -1.1264 -0.3182  0.5934
  127OSM   H10T13568   4.249   6.116   7.145  0.6104 -1.7684 -0.1422
  127OSM   C11S13569   4.384   6.284   7.193 -0.7616 -0.1358 -0.0628
  127OSM   H11S13570   4.357   6.362   7.119 -0.7556 -3.0901 -3.4371
  127OSM   H11T13571   4.495   6.286   7.203 -0.8941  0.6008  1.5033
  127OSM   C12S13572   4.326   6.302   7.334  0.1921  0.9292 -0.7114
  127OSM   H12S13573   4.305   6.196   7.362 -1.0171  1.2174 -0.4753
  127OSM   H12T13574   4.227   6.351   7.342 -0.7326 -1.0860  1.2909
  127OSM   C13S13575   4.416   6.373   7.444 -0.3536  0.2332  0.3358
  127OSM   H13S13576   4.440   6.474   7.405 -1.5583  0.3337 -0.1797
  127OSM   H13T13577   4.511   6.316   7.455 -1.3653 -1.2845  1.5838
  127OSM   C14S13578   4.351   6.397   7.585  0.8414  0.0335 -0.2512
  127OSM   H14S13579   4.414   6.342   7.658 -0.6226  0.6367  1.5374
  127OSM   H14T13580   4.253   6.345   7.589 -0.4481  2.3966  1.3523
  127OSM   C15S13581   4.325   6.540   7.625 -0.9220 -0.2986  0.1263
  127OSM   H15S13582   4.419   6.599   7.620 -1.2199  0.3243  1.5315
  127OSM   H15T13583   4.296   6.538   7.732  2.1415 -3.4269  1.0713
  127OSM   C16S13584   4.220   6.614   7.546  0.5163  0.5828  0.2463
  127OSM   H16S13585   4.120   6.579   7.579  0.7641  0.5032  0.9178
  127OSM   H16T13586   4.221   6.606   7.435 -1.5720  1.5747  0.0982
  127OSM   C17S13587   4.188   6.757   7.589  0.3605 -0.4606 -0.7070
  127OSM   H17S13588   4.118   6.805   7.517 -0.2092 -3.0040 -1.9403
  127OSM   H17T13589   4.288   6.805   7.589  1.3095 -2.0078  3.3639
  127OSM   C18S13590   4.134   6.774   7.735 -0.3236 -0.3850  0.7194
  127OSM   H18S13591   4.037   6.722   7.751 -1.4943  1.7412  0.8769
  127OSM   H18T13592   4.106   6.880   7.754  0.5498 -0.1310  0.6475
  127OSM   H18U13593   4.214   6.746   7.808 -0.5046 -0.5254  0.8654
  127OSM    C1F13594   4.898   5.869   6.409  0.3273 -0.3794 -0.3456
  127OSM     OF13595   4.928   5.969   6.354 -0.4070 -1.3580  0.5989
  127OSM    C2F13596   4.988   5.795   6.508 -0.6565 -0.1244  0.0592
  127OSM    H2F13597   5.046   5.722   6.449 -0.5721  1.7250 -2.2551
  127OSM    H2G13598   4.909   5.745   6.570 -0.8978 -1.3334 -1.1847
  127OSM    C3F13599   5.084   5.889   6.599  0.1851  0.4144  0.3019
  127OSM    H3F13600   5.018   5.972   6.630 -0.7160 -0.3449  0.4571
  127OSM    H3G13601   5.172   5.928   6.544  1.6532 -1.6962  1.0112
  127OSM    C4F13602   5.122   5.821   6.727 -0.1825 -0.1291 -0.4564
  127OSM    H4F13603   5.173   5.728   6.693  0.8065 -0.3816  1.5513
  127OSM    H4G13604   5.029   5.792   6.780  0.4513 -3.3676 -0.9061
  127OSM    C5F13605   5.208   5.892   6.828  0.3772  0.1201 -0.5151
  127OSM    H5F13606   5.172   5.997   6.834  0.5197  0.1077  1.0743
  127OSM    H5G13607   5.316   5.887   6.802  0.4462 -2.7853  0.0185
  127OSM    C6F13608   5.182   5.836   6.975 -0.3467  0.0346  0.2078
  127OSM    H6F13609   5.225   5.734   6.975 -1.4415 -0.4740  1.9674
  127OSM    H6G13610   5.073   5.838   6.999 -0.5459  0.2360 -0.6742
  127OSM    C7F13611   5.237   5.936   7.081  0.0276  0.1206  1.1642
  127OSM    H7F13612   5.166   6.020   7.095  1.1171  1.8902 -2.6341
  127OSM    H7G13613   5.334   5.982   7.051  0.2334 -0.5455  0.7910
  127OSM    C8F13614   5.260   5.862   7.217 -0.2595 -0.3070 -0.1187
  127OSM    H8F13615   5.321   5.921   7.289  0.7104 -2.3445  0.8217
  127OSM    H8G13616   5.322   5.771   7.202  1.9328  0.7432  1.9301
  127OSM    C9F13617   5.130   5.822   7.286 -1.5500  0.0368  0.2716
  127OSM    H9F13618   5.083   5.746   7.222 -1.4166  1.0294 -1.0636
  127OSM   C10F13619   5.082   5.851   7.404  0.2424  0.9716  0.2200
  127OSM   H10F13620   4.982   5.811   7.429  1.4757 -2.2350  0.4813
  127OSM   C11F13621   5.128   5.961   7.496 -0.1659 -0.3072 -0.9711
  127OSM   H11F13622   5.047   6.035   7.513  0.7161  0.2029  1.6041
  127OSM   H11G13623   5.218   6.016   7.459  1.2819 -0.4312  2.0491
  127OSM   C12F13624   5.155   5.904   7.643  0.1025  0.3879  0.3921
  127OSM   H12F13625   5.216   5.979   7.697 -0.1369  1.5214 -0.8419
  127OSM   H12G13626   5.221   5.816   7.625 -2.4114 -1.1424 -2.2752
  127OSM   C13F13627   5.040   5.874   7.730 -0.5219  0.5591  0.2531
  127OSM   H13F13628   4.943   5.838   7.690 -0.9930 -0.1907  1.9729
  127OSM   H13G13629   5.010   5.966   7.785 -1.6151 -1.0437  2.4756
  127OSM   C14F13630   5.075   5.775   7.839  0.2376 -0.1461 -0.3476
  127OSM   H14F13631   5.163   5.806   7.899 -1.7251  1.4061  1.8824
  127OSM   H14G13632   5.097   5.683   7.780  0.9122 -0.1543 -0.1017
  127OSM   C15F13633   4.966   5.742   7.947  0.2351 -0.3248 -0.4951
  127OSM   H15F13634   4.933   5.842   7.983  1.0308  0.0052 -0.6467
  127OSM   H15G13635   5.029   5.696   8.025 -0.1598 -1.1376 -0.6478
  127OSM   C16F13636   4.848   5.654   7.904 -0.3269 -0.2838 -0.4332
  127OSM   H16F13637   4.885   5.554   7.871  0.1273  0.0229 -0.8705
  127OSM   H16G13638   4.801   5.709   7.821 -1.2344  1.1480  0.9753
  127OSM   C17F13639   4.735   5.624   8.011 -0.7357  0.2294 -0.5031
  127OSM   H17F13640   4.653   5.564   7.964  0.4523 -2.9302  1.1273
  127OSM   H17G13641   4.697   5.722   8.048 -2.1720 -0.0454 -1.1509
  127OSM   C18F13642   4.782   5.552   8.138  0.2870  0.3849 -0.6447
  127OSM   H18F13643   4.851   5.611   8.202 -2.2320 -0.5757  3.3313
  127OSM   H18G13644   4.841   5.462   8.110  2.2936  0.9486  1.4765
  127OSM   H18H13645   4.704   5.507   8.203  2.0769 -0.2135  1.1935
  128OSM      N13646   5.079   2.551   6.061 -0.2599  0.4154 -0.2423
  128OSM    C1513647   5.067   2.599   5.918 -0.7165 -0.3678  0.0013
  128OSM   H15A13648   5.091   2.703   5.904 -0.8069 -0.4339 -0.6626
  128OSM   H15B13649   4.965   2.578   5.889 -0.4349  0.6317 -1.8306
  128OSM   H15C13650   5.134   2.538   5.858  0.6352 -0.8389  1.8862
  128OSM    C1413651   5.226   2.537   6.086  0.3694 -0.1055 -0.0047
  128OSM   H14A13652   5.283   2.483   6.011 -0.9999 -2.4456  0.5410
  128OSM   H14B13653   5.257   2.512   6.186  3.0655 -1.4838 -1.0768
  128OSM   H14C13654   5.267   2.636   6.073 -0.7572  0.1706 -1.9383
  128OSM    C1313655   5.022   2.650   6.161  0.6927 -0.1940  0.8465
  128OSM   H13A13656   5.077   2.743   6.155  1.5088 -0.7391 -0.2045
  128OSM   H13B13657   5.029   2.612   6.262  0.0722 -3.2712 -0.1843
  128OSM   H13C13658   4.917   2.672   6.144  0.5883 -0.5991  0.9523
  128OSM    C1213659   5.001   2.417   6.086 -0.9006  0.5330  0.7053
  128OSM   H12A13660   4.897   2.440   6.072 -1.0726  0.1226  1.3037
  128OSM   H12B13661   5.005   2.391   6.191  0.6662 -2.2817  0.0516
  128OSM    C1113662   5.058   2.294   6.003  0.7327 -0.1037 -0.2055
  128OSM   H11A13663   5.071   2.328   5.899  3.2376 -0.6734 -0.1475
  128OSM   H11B13664   4.982   2.212   6.007  0.8357 -0.1669  0.8049
  128OSM      P13665   5.287   2.179   5.978 -0.1922  0.0224 -0.1397
  128OSM    O1313666   5.230   2.066   5.903 -0.3707  0.0959  0.3821
  128OSM    O1413667   5.357   2.276   5.895 -0.0234 -0.1520 -0.0056
  128OSM    O1113668   5.391   2.115   6.081  0.5738 -0.4205 -0.4315
  128OSM    O1213669   5.173   2.245   6.063 -0.7127  0.6472  0.1944
  128OSM    C1S13670   5.417   2.171   6.213 -0.2092 -0.7902  0.3881
  128OSM    H1S13671   5.324   2.200   6.266  0.4292 -0.3570  1.2928
  128OSM    H1T13672   5.473   2.267   6.212 -2.5913  0.7146 -2.1936
  128OSM     NF13673   5.478   2.146   6.446  0.1517 -0.0983 -0.0557
  128OSM    HNF13674   5.556   2.183   6.496  0.8731 -2.9048  1.0473
  128OSM    C2S13675   5.489   2.078   6.312  0.7510 -0.2849 -0.1362
  128OSM    H2S13676   5.436   1.980   6.316 -1.2684  0.7356 -0.2532
  128OSM    C3S13677   5.631   2.041   6.258 -0.3685 -0.2389  0.0576
  128OSM    H3S13678   5.700   2.129   6.258 -2.2717  1.3247  0.3786
  128OSM     O313679   5.630   1.996   6.122 -0.1761 -0.6033  0.0450
  128OSM    HO313680   5.549   2.042   6.097  0.0105  0.4572  1.2811
  128OSM    C4S13681   5.692   1.944   6.356  0.1098  0.1410 -0.3185
  128OSM    H4S13682   5.751   1.993   6.435 -1.8377  1.5458  0.3437
  128OSM    C5S13683   5.669   1.808   6.352  0.2727 -0.1583 -0.0395
  128OSM    H5S13684   5.606   1.768   6.271 -1.3219 -1.0167  1.5497
  128OSM    C6S13685   5.701   1.705   6.453 -0.1181 -0.0805  0.1328
  128OSM    H6S13686   5.769   1.624   6.421  0.4598  0.2918  0.3966
  128OSM    H6T13687   5.608   1.663   6.496 -0.7135  1.4599  0.4299
  128OSM    C7S13688   5.780   1.763   6.581 -0.2798 -0.2653  0.3339
  128OSM    H7S13689   5.732   1.858   6.614  1.3752  1.1258 -1.0842
  128OSM    H7T13690   5.887   1.774   6.554  0.2915 -1.3707  1.9529
  128OSM    C8S13691   5.771   1.666   6.698 -0.4434 -0.1288 -0.1690
  128OSM    H8S13692   5.828   1.575   6.668  0.5345  0.7525 -1.1163
  128OSM    H8T13693   5.663   1.644   6.713 -0.9774  1.3289 -1.5663
  128OSM    C9S13694   5.838   1.728   6.825 -0.3922  0.5278 -0.8847
  128OSM    H9S13695   5.831   1.660   6.912  2.5711 -0.3426 -1.2077
  128OSM    H9T13696   5.794   1.827   6.850 -0.9661 -0.0385  0.4178
  128OSM   C10S13697   5.989   1.755   6.804 -0.6433 -1.1845  0.3443
  128OSM   H10S13698   5.987   1.851   6.747  0.3118 -1.3183  0.0649
  128OSM   H10T13699   6.047   1.680   6.746  1.9754  0.1847  1.0151
  128OSM   C11S13700   6.081   1.776   6.927 -0.1932  0.0935  0.3560
  128OSM   H11S13701   6.187   1.801   6.904 -0.0185 -0.8409  0.1206
  128OSM   H11T13702   6.097   1.680   6.979 -0.9442 -0.6234 -0.7058
  128OSM   C12S13703   6.020   1.881   7.023  0.8445  0.3404 -0.1488
  128OSM   H12S13704   5.917   1.855   7.056  1.4230 -0.8434  0.8269
  128OSM   H12T13705   6.014   1.979   6.972  0.9537 -1.4855 -4.0008
  128OSM   C13S13706   6.099   1.897   7.153  0.0251  1.0030 -0.1861
  128OSM   H13S13707   6.048   1.975   7.214 -0.2558 -1.3569  2.8378
  128OSM   H13T13708   6.206   1.925   7.142  0.0328  0.2964 -2.5914
  128OSM   C14S13709   6.091   1.762   7.242 -0.5724  0.0786 -0.9838
  128OSM   H14S13710   6.161   1.680   7.216 -0.7388 -0.1543 -0.6953
  128OSM   H14T13711   5.991   1.717   7.223 -0.1113 -1.0623 -0.7452
  128OSM   C15S13712   6.114   1.802   7.385  0.6445 -0.3447 -0.2940
  128OSM   H15S13713   6.067   1.898   7.416 -0.4060 -0.0790 -2.5480
  128OSM   H15T13714   6.224   1.812   7.393  0.5200  1.6330 -0.6877
  128OSM   C16S13715   6.059   1.703   7.495 -0.1769 -0.3308  0.0678
  128OSM   H16S13716   6.120   1.725   7.585  0.2648  3.4094 -0.9793
  128OSM   H16T13717   6.078   1.598   7.465  0.5695 -0.0631 -0.4131
  128OSM   C17S13718   5.907   1.733   7.530  0.1703 -0.0300 -0.6429
  128OSM   H17S13719   5.842   1.729   7.440 -0.8298  0.1509  0.0572
  128OSM   H17T13720   5.890   1.836   7.568 -2.1958 -0.1931 -1.1084
  128OSM   C18S13721   5.858   1.630   7.632 -0.2372  0.1086 -0.1494
  128OSM   H18S13722   5.942   1.617   7.704 -1.7488  0.0330  1.6840
  128OSM   H18T13723   5.834   1.540   7.572 -1.1529  0.2907 -0.0708
  128OSM   H18U13724   5.766   1.658   7.688 -1.7419  0.7275 -2.7588
  128OSM    C1F13725   5.367   2.187   6.513 -0.8481  0.1124 -1.0885
  128OSM     OF13726   5.255   2.145   6.491 -0.0593 -0.3904  0.2864
  128OSM    C2F13727   5.387   2.286   6.620  0.5829  0.3936 -0.5627
  128OSM    H2F13728   5.478   2.346   6.598 -0.4336  1.4360 -2.1144
  128OSM    H2G13729   5.392   2.231   6.717 -0.5497  2.2826  0.6437
  128OSM    C3F13730   5.259   2.376   6.637 -0.7871 -0.1323  0.1435
  128OSM    H3F13731   5.176   2.311   6.671 -1.2014  0.6315  0.6243
  128OSM    H3G13732   5.239   2.404   6.532  0.8526 -0.5033 -0.2909
  128OSM    C4F13733   5.287   2.497   6.720 -0.3140 -0.5200 -0.2844
  128OSM    H4F13734   5.197   2.555   6.749  0.5604 -0.8335  3.7278
  128OSM    H4G13735   5.349   2.556   6.649 -0.8419 -1.7528 -1.8120
  128OSM    C5F13736   5.375   2.470   6.847  0.0447  0.3788 -0.0954
  128OSM    H5F13737   5.469   2.529   6.837 -1.6123  3.0163 -1.3770
  128OSM    H5G13738   5.397   2.364   6.872  2.0100  1.2658  2.3921
  128OSM    C6F13739   5.294   2.538   6.958  0.2421  0.3186  0.4549
  128OSM    H6F13740   5.189   2.503   6.948  0.5900 -0.7063  0.1449
  128OSM    H6G13741   5.294   2.648   6.948 -1.6563  0.4196  1.1714
  128OSM    C7F13742   5.343   2.494   7.093  0.5532  0.0264  0.3880
  128OSM    H7F13743   5.451   2.521   7.104  0.3496  0.8815  0.3987
  128OSM    H7G13744   5.323   2.386   7.104  0.7022 -0.4305 -2.8986
  128OSM    C8F13745   5.277   2.567   7.218  0.0992  0.8190 -0.1360
  128OSM    H8F13746   5.166   2.562   7.215  0.1560 -1.2034 -0.3325
  128OSM    H8G13747   5.297   2.675   7.201 -0.2627  0.6518 -1.7715
  128OSM    C9F13748   5.322   2.500   7.346  0.4160 -0.1727  0.4687
  128OSM    H9F13749   5.288   2.396   7.353 -0.2175  0.0040  0.0873
  128OSM   C10F13750   5.379   2.560   7.449  0.1861  0.2673  0.1752
  128OSM   H10F13751   5.411   2.498   7.534  0.1038 -0.1493 -0.0889
  128OSM   C11F13752   5.406   2.707   7.452 -0.6584 -0.1878 -0.1964
  128OSM   H11F13753   5.420   2.745   7.349 -1.1056 -1.4367 -0.7415
  128OSM   H11G13754   5.502   2.724   7.506 -0.7071 -0.2681 -0.0832
  128OSM   C12F13755   5.287   2.780   7.518  0.5692 -0.1167  0.2558
  128OSM   H12F13756   5.208   2.762   7.442  1.3590 -2.5277 -0.0612
  128OSM   H12G13757   5.313   2.888   7.525  1.8494 -0.3115 -1.1403
  128OSM   C13F13758   5.252   2.740   7.658 -0.3314 -0.2194  0.4364
  128OSM   H13F13759   5.189   2.648   7.662 -0.7846 -0.0711 -1.8052
  128OSM   H13G13760   5.185   2.819   7.697  0.0371  1.1596 -1.5569
  128OSM   C14F13761   5.374   2.720   7.748 -0.3249 -0.0898 -0.2647
  128OSM   H14F13762   5.441   2.808   7.752 -0.3508 -0.0972  0.6508
  128OSM   H14G13763   5.432   2.631   7.713 -0.8175 -1.4531  2.1480
  128OSM   C15F13764   5.352   2.702   7.895 -0.3190  0.0977  0.5803
  128OSM   H15F13765   5.297   2.606   7.910  0.5257 -0.2757  1.3657
  128OSM   H15G13766   5.282   2.785   7.921 -1.2436 -0.3339 -0.4323
  128OSM   C16F13767   5.473   2.720   7.991  0.1690  0.0827 -0.6992
  128OSM   H16F13768   5.530   2.810   7.960  0.3488  0.8621  1.7325
  128OSM   H16G13769   5.536   2.631   7.969 -1.1647 -1.0513 -0.0666
  128OSM   C17F13770   5.428   2.730   8.136  0.2211  0.1337 -0.1536
  128OSM   H17F13771   5.366   2.819   8.160  1.0449  0.7070 -0.1244
  128OSM   H17G13772   5.520   2.732   8.197  0.4663 -0.1942 -0.5047
  128OSM   C18F13773   5.359   2.611   8.187  0.6206  0.2455  0.9789
  128OSM   H18F13774   5.251   2.603   8.163  0.2438 -3.1952  3.2035
  128OSM   H18G13775   5.356   2.625   8.297 -1.7691 -0.6215  1.0690
  128OSM   H18H13776   5.419   2.524   8.154  1.3512  1.2175 -0.3795
  129OSM      N13777   2.118   4.231   6.068 -0.0210  0.1699  0.0046
  129OSM    C1513778   2.053   4.126   5.989 -0.3415 -0.1287  0.2312
  129OSM   H15A13779   1.946   4.136   6.002 -0.1982  0.7465  0.7819
  129OSM   H15B13780   2.072   4.024   6.020 -2.1547 -0.9198 -1.0412
  129OSM   H15C13781   2.072   4.135   5.883 -1.2682 -2.1307 -0.1584
  129OSM    C1413782   2.269   4.231   6.044 -0.1786 -1.6614 -0.3703
  129OSM   H14A13783   2.286   4.267   5.944 -1.1533 -1.6040 -0.5235
  129OSM   H14B13784   2.323   4.138   6.049  2.3323 -0.3096 -0.9380
  129OSM   H14C13785   2.326   4.301   6.103 -1.7267 -0.9205  0.3241
  129OSM    C1313786   2.063   4.362   6.014  0.2959  0.0606 -0.2823
  129OSM   H13A13787   2.120   4.448   6.047  0.5898  0.7871 -2.4965
  129OSM   H13B13788   1.960   4.381   6.043  0.2697 -0.9639  0.3720
  129OSM   H13C13789   2.088   4.368   5.909 -0.0158 -0.3341 -0.3822
  129OSM    C1213790   2.095   4.218   6.215  0.3953  0.2246 -0.3624
  129OSM   H12A13791   1.990   4.239   6.228  0.2563 -1.5302  1.6934
  129OSM   H12B13792   2.149   4.300   6.260  0.6856  0.6133 -1.3849
  129OSM    C1113793   2.131   4.091   6.292  0.1202  0.1978  0.5119
  129OSM   H11A13794   2.123   4.117   6.399 -4.0879  0.6707  0.2209
  129OSM   H11B13795   2.237   4.057   6.283 -0.7460 -2.6304 -0.2776
  129OSM      P13796   2.098   3.827   6.264 -0.5399 -0.3498  0.0269
  129OSM    O1313797   1.980   3.743   6.264 -0.3995  0.6547 -0.0812
  129OSM    O1413798   2.198   3.816   6.159 -0.2170  0.0938 -0.2039
  129OSM    O1113799   2.174   3.804   6.397  0.6579 -0.0929  0.4619
  129OSM    O1213800   2.044   3.977   6.271 -0.1890  0.4099 -0.2879
  129OSM    C1S13801   2.122   3.849   6.522  0.3034 -0.1085  0.1181
  129OSM    H1S13802   2.013   3.871   6.521  0.5439  1.3133  1.5655
  129OSM    H1T13803   2.169   3.941   6.561 -0.4713  0.0752  0.6467
  129OSM     NF13804   2.102   3.770   6.767  0.2030 -0.2856 -0.2448
  129OSM    HNF13805   2.174   3.769   6.836  0.8343 -3.5364 -0.8230
  129OSM    C2S13806   2.141   3.733   6.633  0.0785 -0.0933  0.3326
  129OSM    H2S13807   2.071   3.650   6.609 -1.4093  0.4562  2.5061
  129OSM    C3S13808   2.286   3.667   6.627  0.6179  0.6480 -0.0391
  129OSM    H3S13809   2.365   3.742   6.647  2.1406 -1.0399  0.5548
  129OSM     O313810   2.317   3.619   6.497  0.6205  0.0266  0.6137
  129OSM    HO313811   2.273   3.687   6.446  1.4468  2.0331  2.4064
  129OSM    C4S13812   2.297   3.546   6.716  0.5647  0.2061 -0.9753
  129OSM    H4S13813   2.216   3.476   6.689 -1.2345  1.3961  1.0490
  129OSM    C5S13814   2.378   3.527   6.824  0.1789  0.0482  0.1377
  129OSM    H5S13815   2.454   3.605   6.841 -2.3861  2.1806  3.2325
  129OSM    C6S13816   2.366   3.404   6.904 -0.4478  0.5013 -0.1435
  129OSM    H6S13817   2.431   3.411   6.993 -0.9226 -2.8788  0.6264
  129OSM    H6T13818   2.402   3.310   6.857  0.8633 -0.3060  2.2865
  129OSM    C7S13819   2.235   3.368   6.959  0.6557  0.1030  0.0185
  129OSM    H7S13820   2.235   3.270   7.011 -0.1945  0.5263  0.8663
  129OSM    H7T13821   2.170   3.354   6.871  0.4063 -0.6443  0.3191
  129OSM    C8S13822   2.180   3.474   7.060  0.2277 -0.0614  0.6191
  129OSM    H8S13823   2.075   3.452   7.088 -0.3191  0.4922 -0.8834
  129OSM    H8T13824   2.162   3.573   7.012  0.4116 -0.4049 -0.1693
  129OSM    C9S13825   2.259   3.490   7.185 -0.6185 -0.1797  0.1967
  129OSM    H9S13826   2.344   3.554   7.154  1.4651 -3.7994 -2.2550
  129OSM    H9T13827   2.307   3.396   7.219  0.6477  0.4718  0.2654
  129OSM   C10S13828   2.180   3.544   7.296 -0.1714 -0.7560 -0.5337
  129OSM   H10S13829   2.116   3.460   7.332 -1.0499  0.4355  0.8058
  129OSM   H10T13830   2.101   3.618   7.274 -1.2575 -1.3948  1.0514
  129OSM   C11S13831   2.253   3.592   7.417 -0.3347 -0.4045  0.2818
  129OSM   H11S13832   2.278   3.699   7.397  1.1360 -1.0096 -1.3885
  129OSM   H11T13833   2.344   3.534   7.439 -1.8014 -1.4682  4.3750
  129OSM   C12S13834   2.167   3.577   7.546 -0.5418 -0.3527 -0.6415
  129OSM   H12S13835   2.167   3.471   7.580 -1.7340 -0.1070  0.1880
  129OSM   H12T13836   2.063   3.606   7.518  0.0447  1.1421 -1.3262
  129OSM   C13S13837   2.210   3.668   7.665  0.1427  0.1737 -0.1851
  129OSM   H13S13838   2.190   3.776   7.650  0.7201  0.7185  2.4795
  129OSM   H13T13839   2.319   3.678   7.684 -0.0468  0.3906  0.8369
  129OSM   C14S13840   2.144   3.624   7.798  0.3415  0.6792  0.1483
  129OSM   H14S13841   2.173   3.517   7.805  0.8351  0.7059 -1.2798
  129OSM   H14T13842   2.037   3.641   7.775  0.2587  0.4292  0.3505
  129OSM   C15S13843   2.172   3.704   7.922  0.8439 -0.4307 -0.2052
  129OSM   H15S13844   2.282   3.707   7.942  0.7832  0.1980  0.0545
  129OSM   H15T13845   2.119   3.661   8.009  2.2313  1.4882  1.6810
  129OSM   C16S13846   2.125   3.850   7.930  0.5527  0.7409 -0.8851
  129OSM   H16S13847   2.015   3.845   7.914  0.1228 -1.9499  1.8850
  129OSM   H16T13848   2.178   3.913   7.856 -0.3906  2.2199 -0.3299
  129OSM   C17S13849   2.155   3.913   8.058 -0.5026 -0.6156  0.1400
  129OSM   H17S13850   2.264   3.932   8.067 -0.8764  1.9131  0.0945
  129OSM   H17T13851   2.123   3.841   8.137 -2.3980 -0.7328 -0.6694
  129OSM   C18S13852   2.088   4.047   8.075  0.4625  0.4857  0.2330
  129OSM   H18S13853   1.981   4.039   8.104  0.8525 -0.2647  1.5246
  129OSM   H18T13854   2.093   4.102   7.978  2.0983  0.1746  0.1048
  129OSM   H18U13855   2.139   4.112   8.149  0.2592 -0.0044  0.8097
  129OSM    C1F13856   1.985   3.821   6.805 -0.4908  0.9242 -0.4474
  129OSM     OF13857   1.895   3.839   6.718 -0.2064  0.4496  0.4328
  129OSM    C2F13858   1.962   3.854   6.956 -0.3515 -1.0825  0.0590
  129OSM    H2F13859   2.021   3.943   6.984 -0.6062 -0.7470 -0.4558
  129OSM    H2G13860   1.994   3.762   7.010  2.9824  0.1990  0.4895
  129OSM    C3F13861   1.816   3.877   6.990  0.5911 -0.0755 -0.1654
  129OSM    H3F13862   1.754   3.791   6.956 -0.2929  0.7149 -0.6014
  129OSM    H3G13863   1.778   3.967   6.936  0.1931 -0.3582 -0.3588
  129OSM    C4F13864   1.793   3.918   7.142 -0.5682 -0.0275  0.6758
  129OSM    H4F13865   1.689   3.955   7.148 -0.9031 -0.8909  0.3985
  129OSM    H4G13866   1.853   4.009   7.166 -1.4117  0.3595  1.3791
  129OSM    C5F13867   1.813   3.806   7.250 -0.1561 -0.1839  0.6830
  129OSM    H5F13868   1.920   3.777   7.252  0.1962  1.0595  1.1167
  129OSM    H5G13869   1.749   3.722   7.218 -0.9701 -0.2953  2.4912
  129OSM    C6F13870   1.759   3.859   7.382  0.5580 -0.1643 -0.0815
  129OSM    H6F13871   1.651   3.885   7.378  0.9004  1.4821  0.7564
  129OSM    H6G13872   1.824   3.941   7.419 -0.2624  0.0067  1.0451
  129OSM    C7F13873   1.773   3.754   7.483 -0.6325 -0.1785 -0.5321
  129OSM    H7F13874   1.876   3.713   7.489 -1.3917 -1.9755  1.8656
  129OSM    H7G13875   1.702   3.678   7.444  0.1495 -1.2154  0.0262
  129OSM    C8F13876   1.739   3.795   7.620  0.1897  0.7466 -0.5217
  129OSM    H8F13877   1.634   3.831   7.627  0.4321  2.1767 -3.1854
  129OSM    H8G13878   1.804   3.882   7.643  0.6709  0.0403  0.9601
  129OSM    C9F13879   1.764   3.695   7.726 -0.0752  0.2803 -0.1920
  129OSM    H9F13880   1.832   3.616   7.690 -0.2250 -0.2669  0.7065
  129OSM   C10F13881   1.757   3.714   7.861 -0.4659 -0.0006 -0.4071
  129OSM   H10F13882   1.784   3.629   7.925 -1.2148  0.0664  0.0150
  129OSM   C11F13883   1.689   3.832   7.924 -0.5603 -0.1722 -0.0483
  129OSM   H11F13884   1.584   3.800   7.936 -0.0579 -2.1700 -0.5167
  129OSM   H11G13885   1.689   3.914   7.848  1.3400 -1.8263 -1.9941
  129OSM   C12F13886   1.741   3.872   8.060 -0.5298 -0.0687 -0.1139
  129OSM   H12F13887   1.831   3.937   8.058  0.7218 -1.7406 -1.4144
  129OSM   H12G13888   1.759   3.784   8.126 -1.2519  0.0656  0.2785
  129OSM   C13F13889   1.639   3.956   8.128  0.0617  0.5492 -0.5521
  129OSM   H13F13890   1.549   3.892   8.135 -1.2076  2.2627 -0.5448
  129OSM   H13G13891   1.621   4.047   8.067  0.6796 -0.1250 -1.7885
  129OSM   C14F13892   1.685   4.000   8.270  0.0486  0.3588 -0.5973
  129OSM   H14F13893   1.793   4.029   8.269  0.7922 -1.9868  1.2408
  129OSM   H14G13894   1.684   3.917   8.344 -0.3257  1.1529  0.2986
  129OSM   C15F13895   1.595   4.106   8.318  0.6856 -0.7647  0.0529
  129OSM   H15F13896   1.489   4.099   8.286 -0.2821  0.8823  2.5421
  129OSM   H15G13897   1.626   4.206   8.282  1.9844  0.1629  3.3269
  129OSM   C16F13898   1.591   4.121   8.469 -0.4036  0.3870  0.2508
  129OSM   H16F13899   1.564   4.021   8.510  2.8901 -1.1826 -1.0330
  129OSM   H16G13900   1.514   4.194   8.502 -0.3104  1.1289 -1.0979
  129OSM   C17F13901   1.723   4.153   8.542 -0.3197 -0.3324  0.2220
  129OSM   H17F13902   1.792   4.069   8.566  1.0574  0.6016 -0.3061
  129OSM   H17G13903   1.696   4.184   8.645 -2.0692 -2.3181  0.4221
  129OSM   C18F13904   1.801   4.270   8.476 -0.6797 -0.3749  0.1935
  129OSM   H18F13905   1.901   4.284   8.522 -0.5627  2.0193 -0.6262
  129OSM   H18G13906   1.740   4.363   8.475 -0.2486 -0.0841  0.8772
  129OSM   H18H13907   1.815   4.251   8.367 -1.4864 -0.8207  0.1569
  130OSM      N13908   4.205   1.741   6.636 -0.3705 -0.2277  0.2827
  130OSM    C1513909   4.323   1.806   6.566 -0.5393 -0.0184 -0.2982
  130OSM   H15A13910   4.390   1.733   6.525 -2.2277 -0.7098 -1.9395
  130OSM   H15B13911   4.376   1.864   6.641  0.1713 -0.9126 -0.0898
  130OSM   H15C13912   4.299   1.868   6.481  1.0447  0.1650 -0.6334
  130OSM    C1413913   4.274   1.660   6.737 -0.2663 -0.1334  0.1055
  130OSM   H14A13914   4.207   1.581   6.766  0.4869 -1.6417 -1.9870
  130OSM   H14B13915   4.305   1.720   6.821 -3.1395  2.0088 -0.2118
  130OSM   H14C13916   4.364   1.610   6.703 -0.2747 -0.3359  0.3803
  130OSM    C1313917   4.115   1.846   6.703 -0.3368  0.1688  0.1651
  130OSM   H13A13918   4.054   1.886   6.624  0.8098 -1.3625 -1.5676
  130OSM   H13B13919   4.177   1.922   6.747  1.0210 -0.6013 -0.3453
  130OSM   H13C13920   4.067   1.787   6.780 -1.0422 -0.6500 -0.8677
  130OSM    C1213921   4.120   1.674   6.529 -0.3188 -0.2317 -0.1551
  130OSM   H12A13922   4.182   1.606   6.471  1.3682  1.5379 -0.5240
  130OSM   H12B13923   4.089   1.739   6.449  0.8819 -0.6458 -0.9824
  130OSM    C1113924   4.004   1.586   6.578  0.2170  0.2867  0.5223
  130OSM   H11A13925   3.947   1.621   6.666  0.6088  0.6511  0.6388
  130OSM   H11B13926   4.068   1.511   6.628  4.5564  2.8903 -0.5746
  130OSM      P13927   3.855   1.627   6.373 -0.2610 -0.1817  0.5236
  130OSM    O1313928   3.943   1.713   6.297  0.6413  0.2475 -0.1786
  130OSM    O1413929   3.765   1.542   6.291  0.2199  0.0293 -0.1212
  130OSM    O1113930   3.770   1.713   6.475 -0.0675 -0.2075 -0.1766
  130OSM    O1213931   3.937   1.530   6.464 -1.0474  0.1022 -0.4068
  130OSM    C1S13932   3.665   1.658   6.554 -0.2349  0.4061 -0.4684
  130OSM    H1S13933   3.685   1.568   6.616 -0.6213  0.7974  0.2398
  130OSM    H1T13934   3.577   1.640   6.488 -1.0530  0.5137  0.5578
  130OSM     NF13935   3.500   1.715   6.727 -0.4072 -0.1893 -0.2157
  130OSM    HNF13936   3.411   1.753   6.705  0.3630  1.1958 -1.0675
  130OSM    C2S13937   3.619   1.768   6.655  0.6471  0.3892 -0.0017
  130OSM    H2S13938   3.691   1.788   6.737  0.4643 -2.2407  0.8844
  130OSM    C3S13939   3.583   1.909   6.590 -0.1287 -0.4004 -0.1874
  130OSM    H3S13940   3.494   1.897   6.524 -0.8757 -0.7131  0.8340
  130OSM     O313941   3.679   1.957   6.496  0.0123 -0.1574 -0.8470
  130OSM    HO313942   3.736   1.880   6.504 -2.1495 -1.6820  1.2213
  130OSM    C4S13943   3.557   2.019   6.696 -0.1675  0.0411  0.0585
  130OSM    H4S13944   3.454   2.013   6.736 -0.1984  0.0854 -0.0142
  130OSM    C5S13945   3.638   2.115   6.750 -0.6418 -0.8530 -0.0786
  130OSM    H5S13946   3.741   2.108   6.711 -0.4162  0.6280  0.1776
  130OSM    C6S13947   3.585   2.208   6.858 -0.1073  0.2718 -0.0926
  130OSM    H6S13948   3.558   2.307   6.813 -1.8379  0.5618  1.4741
  130OSM    H6T13949   3.667   2.227   6.931 -0.3743  2.4164 -0.2695
  130OSM    C7S13950   3.472   2.172   6.953 -0.5254  0.2879  0.2033
  130OSM    H7S13951   3.378   2.155   6.896  0.0769 -1.6457 -0.3098
  130OSM    H7T13952   3.466   2.262   7.018  2.6804  0.6354  0.1665
  130OSM    C8S13953   3.507   2.050   7.041 -0.5936 -0.0422  0.3530
  130OSM    H8S13954   3.594   2.071   7.107  0.7188 -0.3206 -1.2262
  130OSM    H8T13955   3.532   1.964   6.976 -3.0927  0.4541 -1.4195
  130OSM    C9S13956   3.393   2.002   7.133  0.2778 -0.1998  0.3985
  130OSM    H9S13957   3.337   1.942   7.058 -1.0268 -0.1784  1.3095
  130OSM    H9T13958   3.335   2.093   7.163 -2.3992 -1.1645 -1.4846
  130OSM   C10S13959   3.432   1.904   7.249 -0.8770  0.4408  0.4783
  130OSM   H10S13960   3.351   1.878   7.320  0.9707 -2.1335  1.8259
  130OSM   H10T13961   3.517   1.945   7.308 -0.2671  0.5770 -0.4656
  130OSM   C11S13962   3.477   1.764   7.205 -0.6879 -0.1509 -0.4619
  130OSM   H11S13963   3.564   1.782   7.138 -1.7612 -0.9845 -2.1443
  130OSM   H11T13964   3.387   1.707   7.175 -0.2310 -0.8739 -0.4737
  130OSM   C12S13965   3.544   1.691   7.331 -0.6871 -0.3723 -0.1253
  130OSM   H12S13966   3.615   1.765   7.375 -2.2908 -0.6884  3.3631
  130OSM   H12T13967   3.591   1.599   7.290  0.3559  0.4757 -0.8963
  130OSM   C13S13968   3.441   1.652   7.436  0.2729  0.5106 -0.0265
  130OSM   H13S13969   3.345   1.619   7.392  0.7732  0.2119 -0.9306
  130OSM   H13T13970   3.405   1.742   7.491 -3.7891  1.0586 -3.1874
  130OSM   C14S13971   3.501   1.545   7.523  0.3609 -0.5422 -0.3561
  130OSM   H14S13972   3.590   1.592   7.570  0.0150  0.7062 -0.9291
  130OSM   H14T13973   3.526   1.457   7.459  0.7380 -1.5822  1.1506
  130OSM   C15S13974   3.391   1.494   7.622  0.1414  0.2890  0.1557
  130OSM   H15S13975   3.297   1.442   7.592  0.6129 -0.6533  0.2795
  130OSM   H15T13976   3.357   1.584   7.679 -2.5602 -0.0493 -0.7827
  130OSM   C16S13977   3.449   1.393   7.719 -0.0989  0.0506  0.5213
  130OSM   H16S13978   3.525   1.445   7.783  1.3472  0.9475 -1.7972
  130OSM   H16T13979   3.508   1.316   7.665  2.7294  0.0218  3.2983
  130OSM   C17S13980   3.348   1.325   7.817  0.0916 -0.0405  0.0577
  130OSM   H17S13981   3.300   1.241   7.763 -0.5436 -0.6044  1.4542
  130OSM   H17T13982   3.273   1.395   7.858  0.7009  2.0704 -2.2225
  130OSM   C18S13983   3.417   1.268   7.942 -0.1691  0.3549  0.0214
  130OSM   H18S13984   3.366   1.187   7.999 -0.1689 -0.4424 -1.0877
  130OSM   H18T13985   3.442   1.349   8.014 -0.0753  0.4395 -0.1063
  130OSM   H18U13986   3.515   1.224   7.911  0.3561  1.8260 -0.5118
  130OSM    C1F13987   3.524   1.625   6.824  0.0716  0.2326  0.3556
  130OSM     OF13988   3.638   1.602   6.865  0.2905 -0.4732  0.7766
  130OSM    C2F13989   3.407   1.573   6.892 -0.5105  0.3393  0.3323
  130OSM    H2F13990   3.326   1.559   6.817 -0.9817  0.9420  0.7219
  130OSM    H2G13991   3.377   1.645   6.971 -0.1687  0.3997  0.4076
  130OSM    C3F13992   3.437   1.452   6.993  0.1938  0.8927  0.4432
  130OSM    H3F13993   3.517   1.490   7.060  1.8255  1.5720 -1.7685
  130OSM    H3G13994   3.471   1.361   6.938 -2.7260 -0.0910  0.0880
  130OSM    C4F13995   3.315   1.412   7.072 -0.2084 -0.2101 -0.0270
  130OSM    H4F13996   3.229   1.396   7.004 -0.2712  1.0199 -0.2535
  130OSM    H4G13997   3.299   1.506   7.128 -0.5751 -0.9558  1.1718
  130OSM    C5F13998   3.336   1.306   7.182  0.5787 -0.6964 -1.0447
  130OSM    H5F13999   3.257   1.306   7.259 -0.3369 -1.1937 -1.9628
  130OSM    H5G14000   3.433   1.343   7.223  0.1368  2.5412 -2.5432
  130OSM    C6F14001   3.367   1.169   7.138 -0.1963 -0.0168 -0.0920
  130OSM    H6F14002   3.414   1.105   7.217 -1.7132 -1.5192 -0.3406
  130OSM    H6G14003   3.444   1.184   7.059 -2.2676 -3.0885 -2.9658
  130OSM    C7F14004   3.251   1.101   7.081 -0.3954  0.1062  0.4870
  130OSM    H7F14005   3.289   1.015   7.023 -2.0714  0.8507 -1.8329
  130OSM    H7G14006   3.203   1.162   7.002 -0.3386  1.6348  1.5758
  130OSM    C8F14007   3.142   1.060   7.182 -0.3154 -0.3442  0.3546
  130OSM    H8F14008   3.067   1.000   7.126 -0.3561  1.0554 -1.1609
  130OSM    H8G14009   3.105   1.159   7.216  1.4724  0.5099 -0.0570
  130OSM    C9F14010   3.192   0.973   7.298  0.5986  0.4130 -0.2127
  130OSM    H9F14011   3.241   0.878   7.270  2.1790  1.1667 -0.0824
  130OSM   C10F14012   3.180   0.996   7.427 -0.4369 -0.3799 -0.4264
  130OSM   H10F14013   3.218   0.919   7.496  4.3877  0.7191 -1.4716
  130OSM   C11F14014   3.106   1.112   7.500 -0.4456  0.4412 -0.1287
  130OSM   H11F14015   3.023   1.151   7.436 -0.7977  0.3933  0.2974
  130OSM   H11G14016   3.184   1.186   7.525  0.2961  0.2649 -1.8003
  130OSM   C12F14017   3.049   1.069   7.637  0.4115  0.1420 -0.0892
  130OSM   H12F14018   3.133   1.037   7.702 -0.8542 -0.1401  1.4627
  130OSM   H12G14019   2.981   0.981   7.631 -1.5349  1.4735  1.3476
  130OSM   C13F14020   2.974   1.189   7.699 -0.5319  0.1895 -0.1180
  130OSM   H13F14021   2.881   1.212   7.642 -1.3100  0.0342  1.0574
  130OSM   H13G14022   3.040   1.278   7.700 -0.9390  0.4911  0.0691
  130OSM   C14F14023   2.914   1.164   7.839 -0.1575 -0.6591 -0.2593
  130OSM   H14F14024   2.861   1.066   7.837 -2.7783  0.6248  1.4191
  130OSM   H14G14025   2.829   1.235   7.846 -0.6274 -0.9790 -2.1825
  130OSM   C15F14026   3.010   1.182   7.961  0.2071 -0.0501 -0.2514
  130OSM   H15F14027   3.065   1.279   7.956  1.4397 -0.7283  0.0027
  130OSM   H15G14028   3.090   1.106   7.951 -0.1352 -0.5290  0.5759
  130OSM   C16F14029   2.922   1.170   8.088 -0.1300  0.2535 -0.1147
  130OSM   H16F14030   2.842   1.095   8.071  0.2259 -0.9771  3.0223
  130OSM   H16G14031   2.882   1.270   8.114 -0.3906 -0.1708  1.2027
  130OSM   C17F14032   2.996   1.124   8.209 -0.9795  0.1083 -0.5089
  130OSM   H17F14033   3.094   1.176   8.214 -1.5394  1.1972 -0.6342
  130OSM   H17G14034   3.014   1.015   8.197 -0.0587 -0.1346  2.3229
  130OSM   C18F14035   2.920   1.151   8.335 -0.2944 -0.4978 -0.6826
  130OSM   H18F14036   2.816   1.115   8.326 -0.4886 -0.4647  1.0525
  130OSM   H18G14037   2.907   1.260   8.346  0.2259 -0.6549  2.1088
  130OSM   H18H14038   2.974   1.116   8.425  0.3605  1.8820 -0.0778
  131OSM      N14039   3.659   0.175   5.813  0.5347  0.0228  0.7073
  131OSM    C1514040   3.805   0.154   5.814  0.0785 -0.2787  1.2092
  131OSM   H15A14041   3.855   0.167   5.908  2.8643 -2.5646  0.1822
  131OSM   H15B14042   3.858   0.221   5.748  1.8074 -0.5466  2.2649
  131OSM   H15C14043   3.825   0.060   5.766  1.5455 -0.0869  1.4239
  131OSM    C1414044   3.624   0.321   5.817  0.5469 -0.0352  0.4951
  131OSM   H14A14045   3.663   0.364   5.908 -0.6506 -0.5572  1.2888
  131OSM   H14B14046   3.517   0.337   5.827  0.2589  0.7601 -2.7787
  131OSM   H14C14047   3.656   0.382   5.734  0.0663  0.8623  0.9453
  131OSM    C1314048   3.605   0.117   5.684 -0.7574 -0.1745  0.4538
  131OSM   H13A14049   3.501   0.143   5.667 -0.0438  0.9231 -3.0328
  131OSM   H13B14050   3.618   0.009   5.684  0.4755 -0.0406  0.1184
  131OSM   H13C14051   3.658   0.153   5.598 -2.1238  0.6798 -0.0627
  131OSM    C1214052   3.597   0.104   5.928  0.4984  0.5496 -0.0157
  131OSM   H12A14053   3.600  -0.004   5.917 -2.5117  0.5120 -1.4853
  131OSM   H12B14054   3.492   0.130   5.936 -0.0332 -1.8322  2.8884
  131OSM    C1114055   3.662   0.123   6.071 -0.5027  0.3272  0.0975
  131OSM   H11A14056   3.760   0.071   6.065  0.8110  2.3376  2.3863
  131OSM   H11B14057   3.592   0.073   6.141  0.6784  0.8528  1.7147
  131OSM      P14058   3.568   0.348   6.185  0.1954  0.0256  0.3351
  131OSM    O1314059   3.592   0.492   6.144 -0.0554  0.5851 -0.1319
  131OSM    O1414060   3.431   0.301   6.173 -0.1341  0.6465  0.2042
  131OSM    O1114061   3.613   0.341   6.335  0.9793 -0.6273  0.1551
  131OSM    O1214062   3.682   0.264   6.104 -0.0691  0.1818  0.5641
  131OSM    C1S14063   3.749   0.305   6.373  0.2355  0.4815  0.6753
  131OSM    H1S14064   3.821   0.383   6.342  1.3802 -0.6033  0.4921
  131OSM    H1T14065   3.780   0.204   6.336 -0.3104  0.4171  0.3863
  131OSM     NF14066   3.895   0.261   6.561  0.3499 -0.1655  0.5478
  131OSM    HNF14067   3.906   0.168   6.594  2.5394  0.2482  1.1840
  131OSM    C2S14068   3.767   0.309   6.527  0.0920  0.5590 -0.5730
  131OSM    H2S14069   3.755   0.413   6.563  2.8057  1.5587 -2.2663
  131OSM    C3S14070   3.644   0.244   6.599 -0.7832  0.1106  0.3557
  131OSM    H3S14071   3.635   0.137   6.569 -2.2268 -0.1447  1.5888
  131OSM     O314072   3.519   0.310   6.572 -0.1288 -0.3641 -1.0397
  131OSM    HO314073   3.528   0.351   6.486 -0.5738 -0.1840 -1.0001
  131OSM    C4S14074   3.664   0.242   6.743  0.1843  0.0938 -0.3114
  131OSM    H4S14075   3.670   0.141   6.787 -0.0178 -0.1852 -0.9054
  131OSM    C5S14076   3.646   0.350   6.822 -1.4852 -0.0453 -0.8828
  131OSM    H5S14077   3.622   0.445   6.772 -0.6340  0.9155  0.4655
  131OSM    C6S14078   3.648   0.368   6.976 -0.4477  0.4599  0.1738
  131OSM    H6S14079   3.542   0.388   7.004 -1.2040  0.2673 -2.3141
  131OSM    H6T14080   3.705   0.457   7.008  3.6337 -2.4523  1.9106
  131OSM    C7S14081   3.720   0.247   7.051  0.5765  0.6134 -0.1017
  131OSM    H7S14082   3.815   0.244   6.994 -1.0910 -0.8701 -3.0422
  131OSM    H7T14083   3.651   0.163   7.031  2.3877 -1.3153  1.3557
  131OSM    C8S14084   3.757   0.258   7.195  0.2955 -0.6032  0.4456
  131OSM    H8S14085   3.674   0.313   7.244  2.2903  0.4719  2.8243
  131OSM    H8T14086   3.851   0.317   7.197 -0.0362  0.1100 -1.6715
  131OSM    C9S14087   3.769   0.120   7.251 -0.3936 -0.7542 -0.3134
  131OSM    H9S14088   3.840   0.058   7.193 -0.4942 -1.9410  0.7989
  131OSM    H9T14089   3.672   0.067   7.238 -0.4291 -0.8115  0.1711
  131OSM   C10S14090   3.820   0.108   7.402 -0.3863 -0.3628  0.2397
  131OSM   H10S14091   3.898   0.187   7.411 -0.3775 -0.2440 -0.8106
  131OSM   H10T14092   3.882   0.017   7.420  0.7012 -0.1533 -2.1285
  131OSM   C11S14093   3.712   0.126   7.507 -0.0121  0.0481 -0.1431
  131OSM   H11S14094   3.642   0.041   7.490 -1.0870  0.7836  0.4661
  131OSM   H11T14095   3.646   0.212   7.482 -0.8828 -0.1435  1.3411
  131OSM   C12S14096   3.755   0.137   7.658  0.0431  0.4504  0.2011
  131OSM   H12S14097   3.819   0.222   7.688 -2.3610  2.0033  1.2991
  131OSM   H12T14098   3.817   0.045   7.667 -1.8924 -0.8660  0.8911
  131OSM   C13S14099   3.643   0.110   7.761  0.1308  1.0171 -0.3723
  131OSM   H13S14100   3.609   0.011   7.724  0.4348  0.6968  0.1917
  131OSM   H13T14101   3.558   0.183   7.757 -0.3785  0.6536  2.3051
  131OSM   C14S14102   3.695   0.092   7.901  0.5324 -0.1880  0.7831
  131OSM   H14S14103   3.747   0.189   7.919  1.0724  0.4386 -3.2639
  131OSM   H14T14104   3.771   0.011   7.901  0.4245 -0.3084 -0.5417
  131OSM   C15S14105   3.592   0.076   8.012 -0.8388  0.1135  0.2076
  131OSM   H15S14106   3.531  -0.011   7.979  2.0157 -1.4837 -1.2239
  131OSM   H15T14107   3.524   0.164   8.002 -1.4768 -0.5269 -1.4684
  131OSM   C16S14108   3.659   0.071   8.146 -0.0195 -0.2461 -0.9899
  131OSM   H16S14109   3.736   0.147   8.168 -0.7162  0.5092 -1.0989
  131OSM   H16T14110   3.703  -0.027   8.173  1.2656  0.7765  0.8011
  131OSM   C17S14111   3.539   0.096   8.246 -0.5113  0.3672 -0.2023
  131OSM   H17S14112   3.490   0.189   8.210 -0.4348  1.1965  1.7214
  131OSM   H17T14113   3.580   0.113   8.348 -0.0715  3.3911 -0.8029
  131OSM   C18S14114   3.440  -0.027   8.249 -0.2938  0.0042  0.9664
  131OSM   H18S14115   3.370  -0.018   8.334  0.5261 -0.0999  1.6638
  131OSM   H18T14116   3.495  -0.123   8.257  0.2872  0.0701 -1.4076
  131OSM   H18U14117   3.390  -0.028   8.150  2.0008 -0.8958 -0.2557
  131OSM    C1F14118   4.008   0.327   6.532  0.6513  0.9539  0.5246
  131OSM     OF14119   4.006   0.448   6.516  0.2189  0.1079 -1.1266
  131OSM    C2F14120   4.133   0.247   6.510  0.5489 -0.2653 -0.9596
  131OSM    H2F14121   4.181   0.265   6.411  1.2210  1.1068 -0.4212
  131OSM    H2G14122   4.115   0.138   6.508 -1.1696 -0.0337 -0.0161
  131OSM    C3F14123   4.245   0.276   6.613  0.4175 -0.5423 -0.4606
  131OSM    H3F14124   4.220   0.252   6.718  1.5353  0.6648  0.1092
  131OSM    H3G14125   4.263   0.386   6.614 -1.3726 -0.2227  0.3095
  131OSM    C4F14126   4.366   0.193   6.575  0.0209  0.1625  0.5927
  131OSM    H4F14127   4.378   0.201   6.465 -0.8926  0.4707  0.5074
  131OSM    H4G14128   4.350   0.085   6.597  2.3595 -0.4093 -0.2624
  131OSM    C5F14129   4.494   0.229   6.646 -0.2053  0.1628  1.2154
  131OSM    H5F14130   4.524   0.335   6.633  3.0139 -0.8833 -1.3629
  131OSM    H5G14131   4.582   0.176   6.603 -0.0897  0.2354  1.3574
  131OSM    C6F14132   4.488   0.184   6.795 -0.2255  0.5705 -0.3543
  131OSM    H6F14133   4.430   0.089   6.802 -1.0471  1.0993  0.2855
  131OSM    H6G14134   4.425   0.251   6.857  0.7118 -0.6856  2.0951
  131OSM    C7F14135   4.628   0.157   6.847 -0.0700  0.4892 -0.4060
  131OSM    H7F14136   4.684   0.116   6.760 -0.3528 -0.3835 -0.1833
  131OSM    H7G14137   4.640   0.083   6.929 -1.1729  0.1139 -0.5769
  131OSM    C8F14138   4.700   0.286   6.886 -0.9070  0.3360 -0.2127
  131OSM    H8F14139   4.728   0.351   6.801 -0.3796  0.3229 -0.0485
  131OSM    H8G14140   4.796   0.244   6.923 -0.7810  0.7580 -0.0553
  131OSM    C9F14141   4.639   0.372   6.998 -0.5655  0.1222  0.1518
  131OSM    H9F14142   4.535   0.398   6.974 -1.5629 -1.2041  2.6114
  131OSM   C10F14143   4.694   0.404   7.118  0.1068 -0.7006 -0.1367
  131OSM   H10F14144   4.626   0.466   7.178 -0.0154  1.0776 -1.9969
  131OSM   C11F14145   4.832   0.374   7.171  0.4080 -0.1135  0.1536
  131OSM   H11F14146   4.880   0.470   7.201  0.4533  1.2174 -3.6599
  131OSM   H11G14147   4.904   0.330   7.099 -0.4889 -1.0017 -0.2229
  131OSM   C12F14148   4.824   0.285   7.299  0.4891 -0.1147 -0.4019
  131OSM   H12F14149   4.926   0.271   7.339  1.0172  2.6003 -0.6151
  131OSM   H12G14150   4.775   0.187   7.280  0.7493 -0.2314 -0.4755
  131OSM   C13F14151   4.740   0.334   7.419  0.3861  0.0999 -0.1682
  131OSM   H13F14152   4.635   0.343   7.382  0.4674 -0.9942 -0.7284
  131OSM   H13G14153   4.770   0.436   7.450  0.6306 -0.0196 -0.0088
  131OSM   C14F14154   4.739   0.236   7.542  0.0482  0.2129 -0.2065
  131OSM   H14F14155   4.838   0.243   7.591 -0.5962  1.1938  1.0207
  131OSM   H14G14156   4.743   0.130   7.511  3.1063 -0.3193  1.6867
  131OSM   C15F14157   4.633   0.280   7.638  0.7033  0.3565  0.0824
  131OSM   H15F14158   4.533   0.298   7.593  0.4825  1.2590  0.8953
  131OSM   H15G14159   4.667   0.377   7.681  0.0774 -1.0705  4.2946
  131OSM   C16F14160   4.616   0.177   7.752  0.3994 -0.1630  0.7379
  131OSM   H16F14161   4.708   0.161   7.812  2.7902 -0.0029 -2.6134
  131OSM   H16G14162   4.580   0.081   7.710 -0.8721  0.3188  0.6528
  131OSM   C17F14163   4.484   0.210   7.834 -0.3961 -0.7725 -0.0419
  131OSM   H17F14164   4.396   0.236   7.771 -0.0204  1.4242  0.2731
  131OSM   H17G14165   4.508   0.295   7.902  2.5994 -2.3746  1.1028
  131OSM   C18F14166   4.447   0.093   7.910 -0.2300  0.2039 -0.2419
  131OSM   H18F14167   4.521   0.094   7.993  1.3802  1.4553 -1.6245
  131OSM   H18G14168   4.446  -0.005   7.857  1.6941  1.0546 -1.9829
  131OSM   H18H14169   4.344   0.122   7.938 -1.1058 -1.7970 -1.1419
  132OSM      N14170   6.251   4.105   5.718 -0.3216 -0.0965  0.4253
  132OSM    C1514171   6.396   4.083   5.699 -0.1195 -0.0553  0.1868
  132OSM   H15A14172   6.465   4.165   5.712  1.2576 -1.0840 -0.2751
  132OSM   H15B14173   6.415   4.052   5.597  2.5442  1.3301  0.1622
  132OSM   H15C14174   6.438   4.012   5.768 -1.3937  2.0180  3.2776
  132OSM    C1414175   6.209   4.221   5.628 -0.2447 -0.5893 -0.2210
  132OSM   H14A14176   6.109   4.254   5.649  0.2191  0.1518  0.9553
  132OSM   H14B14177   6.209   4.199   5.522 -0.6346 -1.6198 -0.0124
  132OSM   H14C14178   6.269   4.309   5.650  0.3743 -0.2688 -2.8589
  132OSM    C1314179   6.174   3.983   5.673  0.1102 -0.0825  0.0191
  132OSM   H13A14180   6.172   3.976   5.566 -0.4379 -1.4106  0.0918
  132OSM   H13B14181   6.069   3.989   5.698 -0.1090  1.0171 -1.1022
  132OSM   H13C14182   6.218   3.894   5.717  1.4122 -0.0330 -1.1148
  132OSM    C1214183   6.234   4.147   5.860 -0.1035  0.4897 -0.5318
  132OSM   H12A14184   6.268   4.066   5.923 -1.8129 -0.3223 -0.5727
  132OSM   H12B14185   6.128   4.157   5.879  0.2484  1.4362  1.0871
  132OSM    C1114186   6.294   4.275   5.903  0.4525 -0.1284 -0.2425
  132OSM   H11A14187   6.385   4.289   5.840  0.8169 -1.1099  0.0341
  132OSM   H11B14188   6.327   4.267   6.009  0.8713 -1.0843 -0.4333
  132OSM      P14189   6.225   4.526   5.879  0.2662 -0.1157  0.0382
  132OSM    O1314190   6.283   4.547   5.747  0.0146 -0.2064 -0.3238
  132OSM    O1414191   6.110   4.613   5.909  0.0670 -0.0136 -0.3894
  132OSM    O1114192   6.332   4.550   5.994 -0.4237  0.7275 -0.5546
  132OSM    O1214193   6.186   4.370   5.899  0.0829 -0.3116  0.0200
  132OSM    C1S14194   6.293   4.537   6.128 -0.3219  0.0918  0.1282
  132OSM    H1S14195   6.247   4.439   6.151  0.7558 -0.3823  0.3201
  132OSM    H1T14196   6.232   4.623   6.165  1.6436  0.8643  1.7352
  132OSM     NF14197   6.381   4.522   6.358  0.3579  0.5716 -0.1245
  132OSM    HNF14198   6.372   4.600   6.419 -0.1164  1.7950 -1.7035
  132OSM    C2S14199   6.421   4.548   6.218 -0.3553 -0.4665  0.4618
  132OSM    H2S14200   6.492   4.468   6.186 -0.6901  0.3159 -2.5578
  132OSM    C3S14201   6.486   4.689   6.196 -0.7519  0.0141  0.1857
  132OSM    H3S14202   6.399   4.753   6.223  0.1373  1.2873  0.1428
  132OSM     O314203   6.523   4.701   6.060 -0.2628  0.5006  0.7673
  132OSM    HO314204   6.468   4.636   6.016  1.1050  1.9557 -3.5437
  132OSM    C4S14205   6.607   4.716   6.294 -0.1523  0.4793  0.3512
  132OSM    H4S14206   6.673   4.630   6.313 -1.5579 -0.4993  0.9736
  132OSM    C5S14207   6.637   4.833   6.356 -0.9659 -0.2458  1.0958
  132OSM    H5S14208   6.570   4.919   6.337 -1.3589 -0.4667  1.4535
  132OSM    C6S14209   6.745   4.844   6.456 -0.7167 -0.2270 -0.2955
  132OSM    H6S14210   6.786   4.947   6.449  0.6736 -0.8287 -1.7846
  132OSM    H6T14211   6.830   4.777   6.431  0.0591  0.4877  0.3605
  132OSM    C7S14212   6.699   4.810   6.602 -1.0354 -0.5527  0.6948
  132OSM    H7S14213   6.675   4.703   6.581 -1.4405 -0.4559  0.6474
  132OSM    H7T14214   6.617   4.874   6.641  0.0909  0.8434  0.8641
  132OSM    C8S14215   6.818   4.824   6.694 -0.2490  0.7645  0.8801
  132OSM    H8S14216   6.839   4.933   6.692  2.7463  0.3366  3.0469
  132OSM    H8T14217   6.915   4.786   6.658  0.2194  0.3321  2.4950
  132OSM    C9S14218   6.791   4.772   6.835 -0.4847  0.1967 -0.4454
  132OSM    H9S14219   6.761   4.667   6.850  0.2213 -0.1879 -1.5691
  132OSM    H9T14220   6.715   4.837   6.884 -0.4711  0.6619 -1.0196
  132OSM   C10S14221   6.919   4.799   6.911 -0.3845  0.3169  0.4604
  132OSM   H10S14222   6.916   4.903   6.949 -0.4102 -0.3982  2.6131
  132OSM   H10T14223   7.011   4.792   6.849 -0.8567  2.0995 -0.4823
  132OSM   C11S14224   6.958   4.715   7.036  0.3533  0.0837  0.1825
  132OSM   H11S14225   7.068   4.723   7.049  0.1914  1.5742  0.7864
  132OSM   H11T14226   6.947   4.605   7.021 -2.6378  0.1154  1.5493
  132OSM   C12S14227   6.881   4.754   7.161 -0.1884  1.2046 -0.5776
  132OSM   H12S14228   6.784   4.702   7.151  1.8224 -3.0280 -0.2838
  132OSM   H12T14229   6.856   4.862   7.159 -0.5451  1.4220  3.9665
  132OSM   C13S14230   6.958   4.701   7.283 -0.0103  0.5107 -0.1477
  132OSM   H13S14231   7.066   4.725   7.274  0.0242  0.2530 -0.4290
  132OSM   H13T14232   6.952   4.591   7.279  1.0588  0.4678 -1.5684
  132OSM   C14S14233   6.904   4.762   7.411 -0.4519 -0.2094 -0.6387
  132OSM   H14S14234   6.797   4.737   7.430 -1.4882  2.9937 -1.4908
  132OSM   H14T14235   6.894   4.870   7.386  0.7817 -0.2101 -1.1646
  132OSM   C15S14236   6.987   4.733   7.532  0.2953 -0.6244 -0.3599
  132OSM   H15S14237   7.088   4.779   7.521  0.6059 -1.3131 -0.4762
  132OSM   H15T14238   7.000   4.623   7.543 -1.4903 -0.8433 -0.2296
  132OSM   C16S14239   6.941   4.792   7.660 -0.0447 -0.1807  0.0217
  132OSM   H16S14240   6.951   4.901   7.641  2.7875 -0.1705  1.1160
  132OSM   H16T14241   7.018   4.774   7.738 -0.4807  2.2551  1.1110
  132OSM   C17S14242   6.804   4.745   7.709  0.5692 -0.0757 -0.7705
  132OSM   H17S14243   6.786   4.636   7.696 -1.9516  0.4386 -2.4118
  132OSM   H17T14244   6.728   4.791   7.642  0.4534 -0.2958 -0.7910
  132OSM   C18S14245   6.780   4.784   7.855 -0.4530 -0.4788 -0.4002
  132OSM   H18S14246   6.821   4.706   7.923  0.7605 -0.8746 -1.5211
  132OSM   H18T14247   6.675   4.789   7.890 -0.8486  0.9943 -1.6969
  132OSM   H18U14248   6.830   4.882   7.870 -0.4096 -0.1311 -2.5061
  132OSM    C1F14249   6.329   4.408   6.406 -0.1630  0.4527 -0.1868
  132OSM     OF14250   6.302   4.311   6.335 -0.9165 -0.8296  0.0952
  132OSM    C2F14251   6.297   4.406   6.553  0.4872 -0.8730 -0.5036
  132OSM    H2F14252   6.189   4.400   6.576  0.3481 -2.5437 -1.4418
  132OSM    H2G14253   6.340   4.501   6.591 -0.7231 -0.9143  1.0199
  132OSM    C3F14254   6.359   4.289   6.628 -0.8733  0.4867  0.2682
  132OSM    H3F14255   6.466   4.266   6.610 -0.9399 -2.5063  2.9758
  132OSM    H3G14256   6.309   4.198   6.589  1.8991 -0.4340 -1.4094
  132OSM    C4F14257   6.342   4.299   6.781  0.1293  0.6811 -0.3832
  132OSM    H4F14258   6.232   4.314   6.792  0.1105 -0.0567  0.5109
  132OSM    H4G14259   6.395   4.387   6.824 -2.4655  1.4257  1.5764
  132OSM    C5F14260   6.383   4.170   6.854 -0.1825 -0.2307 -0.1220
  132OSM    H5F14261   6.491   4.160   6.830  0.2447  3.2367 -0.1728
  132OSM    H5G14262   6.333   4.080   6.812 -0.6847 -0.9698  1.9863
  132OSM    C6F14263   6.353   4.176   6.999  0.3252  0.6323 -0.4787
  132OSM    H6F14264   6.246   4.204   7.006  0.5293  1.6887 -1.5251
  132OSM    H6G14265   6.423   4.248   7.047  2.1229 -1.7783  0.8097
  132OSM    C7F14266   6.386   4.050   7.088  0.7499 -0.3273 -0.6556
  132OSM    H7F14267   6.490   4.014   7.072  0.4466 -0.5877 -2.1516
  132OSM    H7G14268   6.311   3.972   7.063  0.6954 -0.7278  0.6425
  132OSM    C8F14269   6.355   4.071   7.231  0.4618 -0.5031 -0.3869
  132OSM    H8F14270   6.266   4.137   7.230  1.8638  1.4823 -0.2752
  132OSM    H8G14271   6.434   4.124   7.289 -1.0316  1.2237  0.1415
  132OSM    C9F14272   6.344   3.939   7.311  0.0552 -0.3850  0.1219
  132OSM    H9F14273   6.330   3.846   7.254 -0.6490  1.4708 -2.9682
  132OSM   C10F14274   6.331   3.922   7.445  0.2299  0.3152  0.0676
  132OSM   H10F14275   6.329   3.815   7.473  0.9436 -0.4149 -2.3947
  132OSM   C11F14276   6.332   4.028   7.553 -0.1313 -0.0686 -0.3148
  132OSM   H11F14277   6.247   4.003   7.620 -0.4177  0.7880 -0.3504
  132OSM   H11G14278   6.328   4.132   7.516  1.9807 -0.9616 -3.4421
  132OSM   C12F14279   6.463   4.012   7.631  0.2380 -0.8541 -0.0577
  132OSM   H12F14280   6.475   4.103   7.693 -1.1761  0.5465 -1.7344
  132OSM   H12G14281   6.551   4.007   7.563  0.3141  0.9098 -0.1164
  132OSM   C13F14282   6.453   3.893   7.735 -0.3368  0.4327 -0.0161
  132OSM   H13F14283   6.431   3.803   7.674  1.5572  1.3397 -2.1861
  132OSM   H13G14284   6.363   3.908   7.798  0.4420  0.6012  1.0815
  132OSM   C14F14285   6.583   3.873   7.808 -0.2417 -0.4673  0.3952
  132OSM   H14F14286   6.575   3.935   7.900  0.1498 -2.7093  2.0153
  132OSM   H14G14287   6.660   3.919   7.741 -0.2548  0.3999  0.9640
  132OSM   C15F14288   6.600   3.733   7.845  0.7884 -0.4338 -0.2183
  132OSM   H15F14289   6.586   3.665   7.758 -2.1204  2.0198 -1.8579
  132OSM   H15G14290   6.518   3.703   7.912  2.5866 -3.4731  0.7992
  132OSM   C16F14291   6.736   3.690   7.911  0.3926 -0.5244  0.1583
  132OSM   H16F14292   6.773   3.779   7.965 -1.0724 -0.4037  1.0241
  132OSM   H16G14293   6.819   3.669   7.840  2.2606  1.5770  1.5995
  132OSM   C17F14294   6.730   3.585   8.017 -0.5371 -0.2429 -0.3128
  132OSM   H17F14295   6.721   3.485   7.971  0.0066 -0.2694 -0.3607
  132OSM   H17G14296   6.631   3.604   8.064  0.0136  2.1281  0.0056
  132OSM   C18F14297   6.843   3.599   8.120  0.0936  0.1507 -0.1464
  132OSM   H18F14298   6.943   3.576   8.077 -0.6875 -0.0146 -1.9950
  132OSM   H18G14299   6.826   3.540   8.212  1.9525  1.7022  1.2605
  132OSM   H18H14300   6.853   3.704   8.155  1.2104 -0.0152  0.0418
  133SAPE     N14301   0.090   0.010  10.559  0.1474  0.1528  0.3250
  133SAPE   HN114302   0.034   0.089  10.522  0.2738  0.1770  0.1860
  133SAPE   HN214303   0.145  -0.032  10.481 -1.2413 -0.2060 -0.4866
  133SAPE   HN314304   0.024  -0.063  10.593  1.0815  0.0651  2.0994
  133SAPE   C1214305   0.174   0.050  10.672 -0.0504 -1.0967 -0.7305
  133SAPE  H12A14306   0.217  -0.046  10.707  2.5092  0.3864  0.5050
  133SAPE  H12B14307   0.111   0.105  10.744 -0.1008 -0.0655 -1.5326
  133SAPE   C1114308   0.292   0.139  10.627  0.5013 -0.6648 -0.2881
  133SAPE  H11A14309   0.366   0.066  10.587  1.5611  0.7757 -1.0679
  133SAPE  H11B14310   0.341   0.185  10.716  4.0263 -1.4385 -1.6469
  133SAPE     P14311   0.341   0.338  10.459  0.6219  0.2346 -0.2284
  133SAPE   O1314312   0.257   0.409  10.357 -0.1856  0.1335  0.4861
  133SAPE   O1414313   0.390   0.420  10.573 -0.2317 -0.6265  0.1761
  133SAPE   O1214314   0.251   0.226  10.522  0.0221 -0.3124  0.2137
  133SAPE   O1114315   0.450   0.254  10.387  0.2144  0.1222  0.1843
  133SAPE    C114316   0.434   0.126  10.318  0.1642 -0.5862  0.3506
  133SAPE    HA14317   0.528   0.067  10.315 -0.4138 -1.8462  3.3057
  133SAPE    HB14318   0.344   0.070  10.353 -1.1855  1.0161 -0.3991
  133SAPE    C214319   0.400   0.148  10.165  0.2104 -0.0083  0.7749
  133SAPE    HS14320   0.469   0.230  10.136 -0.2486 -0.0076 -0.3787
  133SAPE   O2114321   0.262   0.192  10.150 -0.5480  0.2644  0.2024
  133SAPE   C2114322   0.246   0.286  10.067  0.1610 -0.6635 -0.1550
  133SAPE   O2214323   0.335   0.349  10.010 -0.2647 -0.1388 -0.0085
  133SAPE   C2214324   0.102   0.326  10.057 -0.0524 -0.3266  0.4199
  133SAPE   H2R14325   0.043   0.232  10.070  0.1490 -0.4853  0.1900
  133SAPE   H2S14326   0.078   0.390  10.145 -0.8513 -0.3061  0.2000
  133SAPE    C314327   0.443   0.019  10.075 -0.3663 -0.6610  0.3834
  133SAPE    HX14328   0.394  -0.069  10.122 -1.5530 -0.6970 -0.8653
  133SAPE    HY14329   0.551  -0.009  10.078 -0.3925 -0.6833  1.5191
  133SAPE   O3114330   0.393   0.040   9.940  0.4075 -0.3601 -0.2449
  133SAPE   C3114331   0.426  -0.060   9.863  0.2042  0.3697 -0.3003
  133SAPE   O3214332   0.499  -0.156   9.897  0.3243 -0.2148  0.1301
  133SAPE   C3214333   0.366  -0.041   9.720 -0.5981 -0.4675 -0.0400
  133SAPE   H2X14334   0.407   0.050   9.670 -0.7795 -1.4779 -2.1135
  133SAPE   H2Y14335   0.260  -0.015   9.741 -0.7661 -1.4643  0.4036
  133SAPE   C2314336   0.067   0.389   9.918  0.7452  0.5088 -0.2239
  133SAPE   H3R14337   0.134   0.477   9.907  0.9359  0.6452  1.6710
  133SAPE   H3S14338  -0.034   0.431   9.939  0.2325 -0.3512 -0.8732
  133SAPE   C2414339   0.056   0.303   9.792 -0.0161 -0.1056  0.7618
  133SAPE   H4R14340   0.004   0.206   9.808 -1.8013  0.2796 -2.0303
  133SAPE   H4S14341   0.157   0.278   9.754  1.3830  1.9260  2.8296
  133SAPE   C2514342  -0.038   0.368   9.693  0.4861 -0.4233  0.5090
  133SAPE   H5R14343  -0.110   0.441   9.733  1.5484  0.3577  1.0885
  133SAPE   C2614344  -0.031   0.352   9.559 -0.0260 -0.3935 -0.5191
  133SAPE   H6R14345  -0.090   0.424   9.501  0.8048  1.6214  1.0111
  133SAPE   C2714346   0.069   0.267   9.484  0.0507  1.0159 -0.3617
  133SAPE   H7R14347   0.019   0.172   9.456  0.0803  0.6709  0.7176
  133SAPE   H7S14348   0.147   0.221   9.549  0.0838 -0.3634 -1.3428
  133SAPE   C2814349   0.147   0.331   9.371  0.5101  0.0134  1.0176
  133SAPE   H8R14350   0.239   0.380   9.403  0.1770  0.9093  0.6211
  133SAPE   C2914351   0.112   0.337   9.244  0.2411  0.1330  0.2633
  133SAPE   H9R14352   0.176   0.394   9.174  0.0004  1.3700  1.0121
  133SAPE  C21014353  -0.015   0.288   9.177 -0.2956 -0.5560  0.4218
  133SAPE  H10R14354  -0.053   0.362   9.104  1.7977 -0.0174 -0.1757
  133SAPE  H10S14355  -0.096   0.269   9.251 -0.2024  0.2130  0.7289
  133SAPE  C21114356   0.003   0.152   9.108  0.8400 -0.0022  0.4876
  133SAPE  H11R14357  -0.043   0.064   9.155 -0.1353 -0.0317 -0.4647
  133SAPE  C21214358   0.068   0.133   8.988 -0.0236  0.2149 -0.3478
  133SAPE  H12R14359   0.075   0.028   8.955  2.5233 -0.7761  2.8448
  133SAPE  C21314360   0.130   0.231   8.897  0.4734 -0.5802 -0.0504
  133SAPE  H13R14361   0.212   0.189   8.835 -0.4017  0.2839 -1.8562
  133SAPE  H13S14362   0.181   0.315   8.950  0.9239 -1.0071  0.2091
  133SAPE  C21414363   0.028   0.287   8.802  0.0432  0.2097 -0.1163
  133SAPE  H14R14364  -0.052   0.214   8.778  1.1498 -0.2772 -2.7197
  133SAPE  C21514365   0.017   0.415   8.766  0.1171  0.2481  0.3428
  133SAPE  H15R14366  -0.070   0.445   8.706  1.4631  2.1318 -0.7878
  133SAPE  C21614367   0.124   0.517   8.800 -0.2474 -0.4380 -0.2184
  133SAPE  H16R14368   0.106   0.591   8.719 -1.1636  0.6849  0.9692
  133SAPE  H16S14369   0.230   0.482   8.800 -0.5535 -1.3907 -0.0758
  133SAPE  C21714370   0.105   0.590   8.929 -0.2762  0.2015 -0.2164
  133SAPE  H17R14371   0.179   0.672   8.938  1.6075 -1.3440 -0.8345
  133SAPE  H17S14372   0.114   0.514   9.010 -1.7572 -0.2072 -0.4072
  133SAPE  C21814373  -0.043   0.650   8.951  0.1686  0.2263  0.2926
  133SAPE  H18R14374  -0.116   0.567   8.942  0.9057 -0.2572 -1.7599
  133SAPE  H18S14375  -0.066   0.722   8.870  0.3310 -1.9794 -1.8300
  133SAPE  C21914376  -0.070   0.717   9.083  0.1299 -0.1615  0.1024
  133SAPE  H19R14377   0.004   0.798   9.100  0.7813 -1.1320  2.2732
  133SAPE  H19S14378  -0.048   0.637   9.157  1.4897  0.8571  0.8585
  133SAPE  C22014379  -0.212   0.756   9.105  0.8493 -0.4243 -1.0553
  133SAPE  H20R14380  -0.256   0.824   9.029 -1.3078  0.0035  0.4974
  133SAPE  H20S14381  -0.220   0.794   9.209 -1.3845  0.9606 -1.6652
  133SAPE  H20T14382  -0.264   0.658   9.114  0.8700 -0.2297  2.9308
  133SAPE   C3314383   0.389  -0.164   9.630  0.1300  0.2344  0.6642
  133SAPE   H3X14384   0.322  -0.244   9.669  1.3546 -0.0101  2.3928
  133SAPE   H3Y14385   0.493  -0.203   9.627  0.0815  0.0022 -3.3029
  133SAPE   C3414386   0.357  -0.139   9.482  1.2671 -0.2028  0.2362
  133SAPE   H4X14387   0.423  -0.057   9.448 -0.2043 -0.1103 -2.7031
  133SAPE   H4Y14388   0.258  -0.090   9.492 -0.1946 -2.4426 -2.0166
  133SAPE   C3514389   0.344  -0.263   9.399 -0.5796  0.9789 -0.3819
  133SAPE   H5X14390   0.287  -0.347   9.443 -0.8283  1.1116 -0.4488
  133SAPE   H5Y14391   0.447  -0.303   9.391  0.1939  2.5121  1.2559
  133SAPE   C3614392   0.292  -0.243   9.253 -0.3525 -0.0606  0.5153
  133SAPE   H6X14393   0.193  -0.195   9.245 -0.0539  0.4065 -0.4537
  133SAPE   H6Y14394   0.299  -0.344   9.209 -1.5152  0.0368  0.0868
  133SAPE   C3714395   0.387  -0.157   9.168  0.0645  0.6010  0.1455
  133SAPE   H7X14396   0.482  -0.211   9.186  0.7988  2.4521  2.3157
  133SAPE   H7Y14397   0.389  -0.054   9.209 -0.7496  0.0311  1.7143
  133SAPE   C3814398   0.348  -0.167   9.022  0.2832 -0.4492  0.0080
  133SAPE   H8X14399   0.240  -0.145   9.010 -0.3126 -2.7460  0.5356
  133SAPE   H8Y14400   0.363  -0.276   9.004 -1.2236 -0.6774  0.0432
  133SAPE   C3914401   0.428  -0.083   8.921  0.1712  0.9038 -0.1842
  133SAPE   H9X14402   0.534  -0.101   8.948  0.2433  1.8463  0.2277
  133SAPE   H9Y14403   0.397   0.024   8.927 -2.9883  0.0126  3.0693
  133SAPE  C31014404   0.417  -0.131   8.772  0.3769  0.4154  0.3029
  133SAPE  H10X14405   0.434  -0.240   8.759  0.6833  0.1863  2.2763
  133SAPE  H10Y14406   0.494  -0.069   8.722  0.4608  0.4585  0.4858
  133SAPE  C31114407   0.298  -0.088   8.692 -0.2780  0.7174 -0.3080
  133SAPE  H11X14408   0.312   0.022   8.680  0.9744  0.4121 -2.0395
  133SAPE  H11Y14409   0.200  -0.112   8.740 -0.6444  1.2804 -0.7618
  133SAPE  C31214410   0.294  -0.142   8.546 -0.8498 -0.1842 -0.3895
  133SAPE  H12X14411   0.386  -0.103   8.499 -1.3430 -0.4553 -1.6184
  133SAPE  H12Y14412   0.198  -0.113   8.498 -1.1673 -1.0321 -0.2964
  133SAPE  C31314413   0.288  -0.298   8.537 -0.1871  0.4932 -0.1199
  133SAPE  H13X14414   0.185  -0.333   8.561 -0.1613  1.2835  1.2462
  133SAPE  H13Y14415   0.348  -0.358   8.608  0.0750 -0.6266 -1.2565
  133SAPE  C31414416   0.336  -0.345   8.402  0.5930 -0.2670 -0.2526
  133SAPE  H14X14417   0.447  -0.332   8.401  0.5086  0.6154 -1.8317
  133SAPE  H14Y14418   0.281  -0.284   8.327 -1.0090 -0.5300  0.6684
  133SAPE  C31514419   0.317  -0.486   8.360 -0.6171 -0.2431  0.0467
  133SAPE  H15X14420   0.374  -0.554   8.428  0.1338  0.3778  0.0454
  133SAPE  H15Y14421   0.356  -0.503   8.257 -2.4225  2.9462 -1.3178
  133SAPE  C31614422   0.178  -0.552   8.369 -0.9563 -0.2124 -0.2031
  133SAPE  H16X14423   0.116  -0.479   8.313  0.7451  0.2635 -1.5860
  133SAPE  H16Y14424   0.141  -0.555   8.473  0.7113 -1.5753  0.4071
  133SAPE  C31714425   0.155  -0.677   8.276  0.2161 -0.4370  0.5682
  133SAPE  H17X14426   0.248  -0.736   8.286 -0.7664 -2.3871 -0.9549
  133SAPE  H17Y14427   0.154  -0.640   8.171 -0.2127  0.1110  0.7579
  133SAPE  C31814428   0.039  -0.764   8.324 -0.9079  0.1416 -0.2176
  133SAPE  H18X14429   0.056  -0.864   8.279  0.7706  0.6843 -0.8373
  133SAPE  H18Y14430  -0.058  -0.720   8.291 -1.7991 -1.1316  0.6120
  133SAPE  H18Z14431   0.032  -0.774   8.435  1.3477 -2.0012 -0.1988
  134SAPE     N14432   2.127   1.813  10.660 -0.2083 -0.2597  0.2041
  134SAPE   HN114433   2.124   1.916  10.646 -1.9492 -0.6052 -2.6485
  134SAPE   HN214434   2.059   1.778  10.590 -0.0958  0.1800 -0.1291
  134SAPE   HN314435   2.088   1.794  10.755  0.4093  0.0115  0.5211
  134SAPE   C1214436   2.268   1.761  10.653  0.7914 -0.4748 -0.1621
  134SAPE  H12A14437   2.315   1.779  10.752 -2.5408 -0.0308  1.4728
  134SAPE  H12B14438   2.323   1.804  10.567 -3.5386  4.1067 -1.1303
  134SAPE   C1114439   2.257   1.604  10.643  0.3666  0.2643 -0.0458
  134SAPE  H11A14440   2.214   1.560  10.736  0.9298 -1.0468 -0.3728
  134SAPE  H11B14441   2.362   1.568  10.636  0.2597 -0.3418  1.0966
  134SAPE     P14442   2.070   1.470  10.517  0.3424  0.0711 -0.0079
  134SAPE   O1314443   2.110   1.349  10.591 -0.3058  0.3199 -0.1923
  134SAPE   O1414444   1.937   1.535  10.543 -0.5095  0.3760 -0.1388
  134SAPE   O1214445   2.182   1.575  10.526  0.2794 -0.8907  0.1713
  134SAPE   O1114446   2.077   1.430  10.366 -0.3998  0.1657 -0.1222
  134SAPE    C114447   2.125   1.512  10.264  0.2255 -0.4284  1.0556
  134SAPE    HA14448   2.190   1.596  10.295 -1.1607  1.1449 -0.1441
  134SAPE    HB14449   2.175   1.459  10.179 -1.1877 -3.2695  1.8526
  134SAPE    C214450   2.009   1.585  10.192 -0.3489 -0.3167 -0.4739
  134SAPE    HS14451   1.963   1.644  10.274 -0.3707  0.8885 -1.3321
  134SAPE   O2114452   1.927   1.483  10.131 -0.3838  0.1995  0.9679
  134SAPE   C2114453   1.804   1.500  10.127  0.4356  0.2333 -0.0287
  134SAPE   O2214454   1.732   1.581  10.182  0.0764 -0.2972  0.2407
  134SAPE   C2214455   1.749   1.410  10.012  0.0171  0.2885 -0.2232
  134SAPE   H2R14456   1.806   1.315  10.016  0.8466  0.7370 -1.0615
  134SAPE   H2S14457   1.640   1.389  10.018 -0.0836  0.6457 -0.6689
  134SAPE    C314458   2.063   1.693  10.092  0.1765  0.8859 -0.2633
  134SAPE    HX14459   2.095   1.777  10.157 -2.8316  0.7929  1.5164
  134SAPE    HY14460   1.977   1.719  10.026 -2.0069 -5.1163 -0.3815
  134SAPE   O3114461   2.168   1.640  10.014  0.1775  0.5111  0.5233
  134SAPE   C3114462   2.259   1.728   9.976 -0.3166 -0.2946  0.6973
  134SAPE   O3214463   2.248   1.846   9.988  0.5161 -0.4454  0.5044
  134SAPE   C3214464   2.385   1.663   9.921  0.2290  0.6237  0.4925
  134SAPE   H2X14465   2.382   1.552   9.919  2.1340  0.5402 -1.6230
  134SAPE   H2Y14466   2.474   1.695   9.979  1.8395 -3.1571  0.4190
  134SAPE   C2314467   1.770   1.457   9.871  0.8738  0.3287  0.1296
  134SAPE   H3R14468   1.869   1.502   9.849 -0.8018  3.7950 -0.9466
  134SAPE   H3S14469   1.704   1.543   9.848 -0.7144 -0.9240 -0.1627
  134SAPE   C2414470   1.750   1.346   9.760 -0.0348  0.7731 -0.3102
  134SAPE   H4R14471   1.654   1.290   9.761  0.8814 -0.8814 -0.5583
  134SAPE   H4S14472   1.818   1.264   9.792 -1.5945 -0.4487  0.0252
  134SAPE   C2514473   1.781   1.402   9.623 -0.3845  0.6406  0.1523
  134SAPE   H5R14474   1.695   1.459   9.586 -2.0016 -0.1634  2.3955
  134SAPE   C2614475   1.893   1.379   9.559  0.0188 -0.3767  0.5903
  134SAPE   H6R14476   1.903   1.425   9.460  1.3767 -1.0414  0.3863
  134SAPE   C2714477   2.010   1.288   9.591  0.4174  0.0810 -0.3499
  134SAPE   H7R14478   2.082   1.286   9.507  0.0204 -1.4684 -0.6792
  134SAPE   H7S14479   1.965   1.191   9.620 -0.7217  0.6757 -0.0527
  134SAPE   C2814480   2.098   1.344   9.698 -0.1101 -0.9813 -0.5752
  134SAPE   H8R14481   2.116   1.451   9.682 -0.1658 -0.6601  1.2954
  134SAPE   C2914482   2.132   1.280   9.815  0.3511 -0.8117 -0.3595
  134SAPE   H9R14483   2.195   1.341   9.880 -0.9085  1.7142 -1.3770
  134SAPE  C21014484   2.120   1.137   9.862 -0.7146 -0.5466 -0.4213
  134SAPE  H10R14485   2.080   1.085   9.772 -0.1818  0.7773 -1.4739
  134SAPE  H10S14486   2.052   1.126   9.949  0.8820  0.2965  0.9792
  134SAPE  C21114487   2.248   1.061   9.890 -0.2964 -0.1108  0.4696
  134SAPE  H11R14488   2.279   1.073   9.995  0.6251  1.3021  0.0647
  134SAPE  C21214489   2.323   0.980   9.814  0.1287  0.7466 -0.2058
  134SAPE  H12R14490   2.412   0.926   9.849  0.2647  0.6166 -0.7413
  134SAPE  C21314491   2.291   0.951   9.670  0.2988 -0.1848 -0.8772
  134SAPE  H13R14492   2.224   1.031   9.631 -1.1502  1.0331  3.5679
  134SAPE  H13S14493   2.231   0.858   9.660 -2.2574  1.2504  0.1382
  134SAPE  C21414494   2.416   0.934   9.589  0.5026  0.8326 -0.3119
  134SAPE  H14R14495   2.507   0.908   9.644  0.1340  1.2035  0.4930
  134SAPE  C21514496   2.424   0.954   9.455 -0.7479  0.2763  0.8831
  134SAPE  H15R14497   2.522   0.932   9.411 -0.3220  1.3717  1.2587
  134SAPE  C21614498   2.314   0.994   9.362 -0.4955 -0.5007 -0.2164
  134SAPE  H16R14499   2.313   1.105   9.354  0.5644 -0.4696 -0.0601
  134SAPE  H16S14500   2.213   0.977   9.405 -1.2825  2.0581 -0.8480
  134SAPE  C21714501   2.315   0.933   9.223  0.1905  1.1433 -0.8867
  134SAPE  H17R14502   2.283   0.827   9.215  1.7714  0.7161 -1.8550
  134SAPE  H17S14503   2.423   0.938   9.197 -0.0135  2.8149 -1.5476
  134SAPE  C21814504   2.223   1.022   9.129 -0.2925  0.8562  0.1780
  134SAPE  H18R14505   2.254   1.128   9.133  0.8333  0.6329 -1.5710
  134SAPE  H18S14506   2.115   1.011   9.152 -0.9476  3.5683 -1.2065
  134SAPE  C21914507   2.242   0.981   8.980  0.2466 -0.4878  0.0151
  134SAPE  H19R14508   2.241   0.870   8.975  3.2714 -0.7113  1.7498
  134SAPE  H19S14509   2.343   1.014   8.949  0.4297 -0.7574  0.3168
  134SAPE  C22014510   2.141   1.034   8.885  0.6428 -0.5296  0.5565
  134SAPE  H20R14511   2.157   1.021   8.776  2.9564  2.1451  0.4737
  134SAPE  H20S14512   2.135   1.143   8.902 -1.4238 -0.5476  0.2517
  134SAPE  H20T14513   2.040   0.991   8.904  0.7308 -1.9605 -1.7409
  134SAPE   C3314514   2.398   1.708   9.772 -0.3394  0.0328 -0.2203
  134SAPE   H3X14515   2.504   1.697   9.740  0.0269 -0.8930  1.2483
  134SAPE   H3Y14516   2.386   1.818   9.762  3.1254  0.6160  0.6779
  134SAPE   C3414517   2.308   1.639   9.668 -0.2723  0.3310  0.2457
  134SAPE   H4X14518   2.206   1.682   9.675  0.2563  1.5949  0.5194
  134SAPE   H4Y14519   2.314   1.528   9.667 -0.1446  0.3341 -1.2677
  134SAPE   C3514520   2.355   1.681   9.522  0.2594 -0.1759  0.1176
  134SAPE   H5X14521   2.463   1.658   9.509  0.0218 -0.7478 -0.9593
  134SAPE   H5Y14522   2.355   1.792   9.517  2.4935 -0.1553 -3.1467
  134SAPE   C3614523   2.274   1.619   9.410  0.4390 -0.0380 -0.4925
  134SAPE   H6X14524   2.166   1.627   9.434  0.5553 -0.9415  0.4173
  134SAPE   H6Y14525   2.304   1.512   9.413 -0.1039 -0.1790  0.4023
  134SAPE   C3714526   2.303   1.688   9.279 -0.6530 -0.2344 -0.2036
  134SAPE   H7X14527   2.413   1.696   9.267 -0.4597 -0.0009  1.5050
  134SAPE   H7Y14528   2.258   1.789   9.289 -1.3049 -0.5108 -0.2576
  134SAPE   C3814529   2.239   1.613   9.166  0.0154  0.1489 -0.3496
  134SAPE   H8X14530   2.131   1.609   9.190  0.2125 -0.1089  0.5186
  134SAPE   H8Y14531   2.292   1.516   9.155  3.0802  1.3607  2.2950
  134SAPE   C3914532   2.265   1.697   9.042 -0.6052 -0.6361  0.4466
  134SAPE   H9X14533   2.375   1.696   9.024 -0.5422  1.4041  0.4942
  134SAPE   H9Y14534   2.231   1.799   9.072  0.7825 -0.2758  0.8791
  134SAPE  C31014535   2.196   1.646   8.911 -0.0261 -0.3305  0.1567
  134SAPE  H10X14536   2.213   1.718   8.828 -2.2526  2.0797  1.6753
  134SAPE  H10Y14537   2.086   1.651   8.922 -0.1672  2.1661 -1.6335
  134SAPE  C31114538   2.245   1.507   8.873  0.2059  0.0980 -0.0252
  134SAPE  H11X14539   2.237   1.430   8.952 -0.2203  0.0715 -0.0933
  134SAPE  H11Y14540   2.356   1.512   8.865  0.4552 -1.6649  1.6414
  134SAPE  C31214541   2.184   1.472   8.735  0.0083 -0.0510 -0.3276
  134SAPE  H12X14542   2.199   1.559   8.667  1.3706  0.6826  0.8493
  134SAPE  H12Y14543   2.076   1.452   8.751 -0.2676  0.8592 -0.9975
  134SAPE  C31314544   2.241   1.348   8.664 -0.8494  0.0316 -0.2991
  134SAPE  H13X14545   2.234   1.253   8.721  0.4625 -0.0721 -0.2743
  134SAPE  H13Y14546   2.350   1.367   8.655 -0.8490  0.9926  1.4454
  134SAPE  C31414547   2.171   1.328   8.528  0.1406  0.0055 -0.7588
  134SAPE  H14X14548   2.177   1.428   8.480  1.0342  1.1904  1.6493
  134SAPE  H14Y14549   2.062   1.317   8.543  0.0850  0.2925 -0.9260
  134SAPE  C31514550   2.222   1.211   8.447 -0.3236  0.1620  0.7850
  134SAPE  H15X14551   2.199   1.117   8.501  1.0314  0.7286  2.4780
  134SAPE  H15Y14552   2.333   1.216   8.446 -0.2087 -1.7882 -0.0800
  134SAPE  C31614553   2.183   1.226   8.302 -0.1556  0.2345 -0.3814
  134SAPE  H16X14554   2.200   1.123   8.263 -1.4297 -1.3687  2.9315
  134SAPE  H16Y14555   2.249   1.300   8.252  0.8446 -0.3164  0.0949
  134SAPE  C31714556   2.035   1.272   8.270 -0.6169 -0.0242 -0.5088
  134SAPE  H17X14557   2.010   1.364   8.327  2.0064  0.8012 -0.5883
  134SAPE  H17Y14558   1.974   1.199   8.327 -0.8359  1.2021  0.8837
  134SAPE  C31814559   1.989   1.275   8.121  0.2645  0.8602 -0.7293
  134SAPE  H18X14560   1.958   1.173   8.090  0.1224  0.4073  0.8285
  134SAPE  H18Y14561   2.063   1.312   8.047 -1.5495  3.2121 -1.5086
  134SAPE  H18Z14562   1.899   1.339   8.111  0.9956  1.7235 -2.0090
  135SAPE     N14563   1.303   6.550  10.526  0.3941 -0.4895  0.1486
  135SAPE   HN114564   1.229   6.571  10.456  0.4046 -0.0966  0.2519
  135SAPE   HN214565   1.247   6.494  10.594 -0.0618  1.2575  1.2892
  135SAPE   HN314566   1.321   6.643  10.568  0.6368 -0.6328  0.3655
  135SAPE   C1214567   1.409   6.472  10.460 -0.7418 -0.0604 -0.0994
  135SAPE  H12A14568   1.462   6.426  10.546 -1.4881  0.6904  0.7797
  135SAPE  H12B14569   1.471   6.540  10.397 -0.0461  0.4792  1.1260
  135SAPE   C1114570   1.357   6.354  10.376 -0.0884 -0.2881  0.7329
  135SAPE  H11A14571   1.294   6.292  10.443 -2.6019  1.5291  0.1869
  135SAPE  H11B14572   1.441   6.293  10.335 -1.1392 -0.1902 -1.7790
  135SAPE     P14573   1.317   6.423  10.126  0.3997  0.0416 -0.1319
  135SAPE   O1314574   1.203   6.429  10.032  0.2112 -0.0108 -0.3247
  135SAPE   O1414575   1.416   6.540  10.114 -0.0557  0.0266  0.0430
  135SAPE   O1214576   1.268   6.407  10.281  0.1933  0.1280 -0.4791
  135SAPE   O1114577   1.401   6.294  10.104  0.0437 -0.0851 -0.3491
  135SAPE    C114578   1.332   6.164  10.103  0.9554  0.5349  0.3956
  135SAPE    HA14579   1.232   6.163  10.151  0.2263  0.9300 -1.0381
  135SAPE    HB14580   1.316   6.128   9.999 -1.8718  4.0239 -0.5859
  135SAPE    C214581   1.423   6.053  10.180  0.4279 -0.9974  0.4215
  135SAPE    HS14582   1.412   6.074  10.288 -1.3224 -1.4310  0.3510
  135SAPE   O2114583   1.564   6.065  10.139 -0.2116 -0.9298 -0.0806
  135SAPE   C2114584   1.644   6.025  10.236  0.0924  0.6903  1.1889
  135SAPE   O2214585   1.618   5.985  10.347  0.0634  0.1956  0.2586
  135SAPE   C2214586   1.784   6.024  10.170  0.2428 -0.0012 -0.6961
  135SAPE   H2R14587   1.827   5.923  10.189  2.0685  0.6742 -1.0508
  135SAPE   H2S14588   1.774   6.030  10.060 -1.0587  0.7409 -0.5559
  135SAPE    C314589   1.367   5.919  10.141  0.1610  0.2827 -0.2731
  135SAPE    HX14590   1.260   5.916  10.170  0.2781  1.1674  0.2820
  135SAPE    HY14591   1.424   5.842  10.197 -0.5801 -1.0059 -1.2396
  135SAPE   O3114592   1.381   5.894  10.002 -0.3895 -0.3537 -0.2601
  135SAPE   C3114593   1.490   5.828   9.960 -0.1697 -0.0221  0.1655
  135SAPE   O3214594   1.574   5.778  10.034  0.0177 -0.2045 -0.0494
  135SAPE   C3214595   1.479   5.810   9.805  0.1556 -0.0093 -0.2312
  135SAPE   H2X14596   1.451   5.910   9.764  1.0816 -0.3635 -1.8229
  135SAPE   H2Y14597   1.400   5.743   9.764  0.4711 -1.1813  1.0078
  135SAPE   C2314598   1.884   6.132  10.227  0.4327  0.3201  0.4638
  135SAPE   H3R14599   1.885   6.117  10.338 -0.3902  2.1288  0.7514
  135SAPE   H3S14600   1.864   6.240  10.208 -0.9721 -0.1642 -1.0599
  135SAPE   C2414601   2.032   6.110  10.188  0.7044 -0.0024  0.2953
  135SAPE   H4R14602   2.051   6.003  10.212 -1.2161 -0.6833 -0.9454
  135SAPE   H4S14603   2.099   6.172  10.251 -0.1584 -1.0750  2.3695
  135SAPE   C2514604   2.053   6.161  10.047  0.2183 -0.5965 -0.0412
  135SAPE   H5R14605   2.048   6.271  10.051 -0.4607 -0.6546  1.8123
  135SAPE   C2614606   2.059   6.088   9.935 -0.1089  0.0734  0.4053
  135SAPE   H6R14607   2.076   6.148   9.844  0.6720  0.8270  1.0222
  135SAPE   C2714608   2.050   5.944   9.922 -0.0284  0.4331 -0.1184
  135SAPE   H7R14609   2.010   5.901  10.017 -2.8391 -2.7159 -2.4791
  135SAPE   H7S14610   2.149   5.894   9.916 -0.3138 -0.0698 -0.6919
  135SAPE   C2814611   1.950   5.905   9.815  0.1176 -0.0915 -0.1867
  135SAPE   H8R14612   1.852   5.883   9.861  0.3934 -1.2915 -0.1318
  135SAPE   C2914613   1.960   5.894   9.682 -0.0482 -0.5701 -0.0089
  135SAPE   H9R14614   1.874   5.860   9.622  0.0638  0.4155 -0.7744
  135SAPE  C21014615   2.092   5.911   9.612  0.9077 -0.0369  0.2383
  135SAPE  H10R14616   2.165   5.841   9.657 -1.1624 -2.1836  0.4845
  135SAPE  H10S14617   2.131   6.014   9.629 -0.9578  1.0912 -1.8042
  135SAPE  C21114618   2.089   5.871   9.467 -0.1016 -0.0835 -0.3383
  135SAPE  H11R14619   2.045   5.772   9.450 -0.4708  0.2265 -1.2005
  135SAPE  C21214620   2.151   5.927   9.359 -0.0073 -0.0183  0.4174
  135SAPE  H12R14621   2.144   5.883   9.258 -1.7870  3.9696 -1.4299
  135SAPE  C21314622   2.224   6.058   9.355  0.0217  0.1454  0.2477
  135SAPE  H13R14623   2.225   6.112   9.452  0.9869  0.1216  0.2638
  135SAPE  H13S14624   2.170   6.131   9.291 -1.4396 -1.3897 -0.3405
  135SAPE  C21414625   2.368   6.040   9.308 -0.2857 -0.1170 -0.0031
  135SAPE  H14R14626   2.401   5.935   9.309 -3.7126 -1.3489  0.1759
  135SAPE  C21514627   2.444   6.142   9.274 -0.0282  0.1523 -0.4701
  135SAPE  H15R14628   2.550   6.118   9.255 -0.2315 -2.4688  1.2235
  135SAPE  C21614629   2.414   6.288   9.283  0.1302  0.3126 -1.0005
  135SAPE  H16R14630   2.481   6.356   9.341 -1.9652  0.6014  1.2700
  135SAPE  H16S14631   2.314   6.297   9.331  1.2980 -0.7693  1.8665
  135SAPE  C21714632   2.390   6.340   9.139 -0.4653  0.3626  0.1960
  135SAPE  H17R14633   2.485   6.343   9.081 -1.1220 -0.7096 -1.0018
  135SAPE  H17S14634   2.354   6.444   9.153  1.8495  1.3843 -0.7790
  135SAPE  C21814635   2.283   6.272   9.053  0.0156  0.1647  0.0356
  135SAPE  H18R14636   2.190   6.267   9.115 -0.4317 -1.0322 -0.7093
  135SAPE  H18S14637   2.316   6.168   9.031  0.6648  0.1628  0.9552
  135SAPE  C21914638   2.262   6.331   8.916 -0.4283  0.1385 -0.1501
  135SAPE  H19R14639   2.349   6.301   8.854 -1.3623  1.5085 -2.1935
  135SAPE  H19S14640   2.263   6.441   8.933 -0.3083 -0.0928  1.5298
  135SAPE  C22014641   2.129   6.294   8.852  0.1845  0.1684 -0.0685
  135SAPE  H20R14642   2.114   6.329   8.748 -2.5047 -0.5590 -0.0140
  135SAPE  H20S14643   2.047   6.315   8.924  0.0473 -2.1994  0.5329
  135SAPE  H20T14644   2.136   6.183   8.851  2.1284  0.2651 -1.3418
  135SAPE   C3314645   1.608   5.759   9.733  0.1392 -0.1730 -0.4574
  135SAPE   H3X14646   1.631   5.660   9.778  0.4207 -0.4805 -1.2616
  135SAPE   H3Y14647   1.690   5.830   9.756 -2.4732  2.8911  0.2697
  135SAPE   C3414648   1.576   5.729   9.585 -0.0987  0.2443  0.1022
  135SAPE   H4X14649   1.545   5.825   9.540 -4.5802 -0.7278  0.6424
  135SAPE   H4Y14650   1.481   5.672   9.588 -0.4564  0.8342  0.1096
  135SAPE   C3514651   1.677   5.656   9.497 -0.1862 -0.5036  0.1418
  135SAPE   H5X14652   1.690   5.549   9.521 -2.2596 -0.7266  0.4218
  135SAPE   H5Y14653   1.777   5.705   9.505 -0.4307  0.3942 -1.7454
  135SAPE   C3614654   1.627   5.675   9.355 -0.6188  0.3969 -0.5418
  135SAPE   H6X14655   1.644   5.777   9.315  0.2518  0.2024 -0.6898
  135SAPE   H6Y14656   1.518   5.656   9.350 -0.4578 -0.2549 -2.3602
  135SAPE   C3714657   1.693   5.579   9.254  0.4528  0.1695 -0.1227
  135SAPE   H7X14658   1.657   5.618   9.156 -1.1597  0.0158  0.3832
  135SAPE   H7Y14659   1.673   5.472   9.274  0.9118 -0.2752 -1.8783
  135SAPE   C3814660   1.843   5.613   9.245  0.3884 -0.2373 -0.6372
  135SAPE   H8X14661   1.886   5.570   9.338 -0.1195  0.2550 -0.1652
  135SAPE   H8Y14662   1.856   5.723   9.252 -0.5733 -0.2024  2.2939
  135SAPE   C3914663   1.923   5.572   9.125  0.3218 -0.1093 -0.7345
  135SAPE   H9X14664   2.024   5.618   9.134  0.5166 -0.6438 -0.0662
  135SAPE   H9Y14665   1.869   5.606   9.034  2.0144 -0.6483 -1.9865
  135SAPE  C31014666   1.949   5.421   9.118  0.1753  1.0998 -0.1625
  135SAPE  H10X14667   1.855   5.362   9.119  0.9280 -0.3164 -2.9347
  135SAPE  H10Y14668   2.009   5.385   9.204  1.0590 -0.0448 -1.2257
  135SAPE  C31114669   2.015   5.389   8.983 -0.4517  0.2362 -0.5714
  135SAPE  H11X14670   2.050   5.284   8.994 -0.2215  0.4000  0.3481
  135SAPE  H11Y14671   2.113   5.439   8.963 -0.0059 -0.9442 -1.5016
  135SAPE  C31214672   1.936   5.395   8.852 -0.5043  0.5619 -0.1093
  135SAPE  H12X14673   1.913   5.500   8.827  2.8300  1.2128 -0.9021
  135SAPE  H12Y14674   1.840   5.347   8.881 -0.0818  0.9182  2.1198
  135SAPE  C31314675   1.988   5.314   8.724  0.1337  0.1319 -0.6283
  135SAPE  H13X14676   1.911   5.326   8.645 -0.4939 -2.1547 -0.4340
  135SAPE  H13Y14677   1.992   5.212   8.767  0.1785  0.8705  1.2093
  135SAPE  C31414678   2.123   5.370   8.670  0.8165 -0.2629 -0.3869
  135SAPE  H14X14679   2.178   5.286   8.623 -0.2826 -1.0284 -0.3529
  135SAPE  H14Y14680   2.188   5.408   8.751 -2.3030  2.1495  1.1741
  135SAPE  C31514681   2.101   5.499   8.579  0.4698 -0.1680  0.2425
  135SAPE  H15X14682   2.048   5.572   8.644 -4.0215 -2.0757 -0.8996
  135SAPE  H15Y14683   2.042   5.468   8.490  0.3922  0.9911 -0.1235
  135SAPE  C31614684   2.230   5.563   8.532 -0.4177  0.0327 -0.6797
  135SAPE  H16X14685   2.297   5.568   8.621 -0.2532 -1.9618 -0.6371
  135SAPE  H16Y14686   2.201   5.667   8.510 -0.1152  0.5342  1.1408
  135SAPE  C31714687   2.303   5.498   8.414 -0.1215 -0.2012 -0.1554
  135SAPE  H17X14688   2.232   5.501   8.329  2.3166  2.6597 -2.2940
  135SAPE  H17Y14689   2.328   5.391   8.430  0.2521 -0.0448  0.3846
  135SAPE  C31814690   2.425   5.579   8.373  0.0389 -0.7512  0.0715
  135SAPE  H18X14691   2.401   5.687   8.371  1.4832 -0.3968 -3.4661
  135SAPE  H18Y14692   2.448   5.559   8.267 -1.2970 -0.6282 -0.2663
  135SAPE  H18Z14693   2.506   5.572   8.449  0.6316  1.6489 -0.2933
  136SAPE     N14694   4.341   6.256  10.509 -0.1790 -0.2881 -0.9550
  136SAPE   HN114695   4.429   6.296  10.548 -0.2302  1.1658 -2.2466
  136SAPE   HN214696   4.328   6.166  10.560  0.6426  0.3787  0.5210
  136SAPE   HN314697   4.351   6.230  10.409  0.5161  0.0326 -0.9755
  136SAPE   C1214698   4.218   6.325  10.548  0.3290 -0.5725  0.1537
  136SAPE  H12A14699   4.206   6.315  10.658 -1.1329 -1.3350 -0.0489
  136SAPE  H12B14700   4.135   6.268  10.501 -1.7778  1.4446  1.2001
  136SAPE   C1114701   4.221   6.465  10.488 -0.1132  1.0912 -1.0434
  136SAPE  H11A14702   4.121   6.506  10.512  0.2217 -0.0595  3.0475
  136SAPE  H11B14703   4.237   6.460  10.378  0.9570  1.0187 -0.9003
  136SAPE     P14704   4.344   6.694  10.536  0.3204  0.0649 -0.2295
  136SAPE   O1314705   4.226   6.769  10.585 -0.5488 -0.3410 -0.4108
  136SAPE   O1414706   4.477   6.728  10.594  0.4761 -0.1325  0.9332
  136SAPE   O1214707   4.320   6.545  10.566 -0.0755 -0.3090  0.2334
  136SAPE   O1114708   4.351   6.698  10.385 -0.2113  0.2138 -0.0727
  136SAPE    C114709   4.469   6.656  10.305 -0.6958  0.0275  0.2974
  136SAPE    HA14710   4.557   6.710  10.345 -0.4092  0.5705 -1.0184
  136SAPE    HB14711   4.487   6.546  10.310 -0.2931 -0.1038 -2.4519
  136SAPE    C214712   4.450   6.684  10.160 -0.5660 -0.1774 -0.2800
  136SAPE    HS14713   4.553   6.666  10.121 -0.8473 -0.4684 -0.9011
  136SAPE   O2114714   4.412   6.824  10.136  0.2065  0.2802  0.3517
  136SAPE   C2114715   4.501   6.910  10.171 -1.4140  0.2552  0.0167
  136SAPE   O2214716   4.621   6.884  10.180  0.3088 -0.1043 -0.0590
  136SAPE   C2214717   4.438   7.041  10.201  0.4445 -0.4525  0.8874
  136SAPE   H2R14718   4.327   7.029  10.198  0.4858 -0.8499 -1.8789
  136SAPE   H2S14719   4.473   7.065  10.303  3.1300  1.8103 -0.4387
  136SAPE    C314720   4.353   6.593  10.079  0.6745 -0.6127 -0.4759
  136SAPE    HX14721   4.251   6.635  10.093  0.4850 -0.8232 -1.1458
  136SAPE    HY14722   4.342   6.490  10.120 -2.3343 -0.5586 -0.9114
  136SAPE   O3114723   4.373   6.605   9.933  0.3646 -0.1735 -0.2117
  136SAPE   C3114724   4.452   6.527   9.872  0.1866 -1.0913 -0.0303
  136SAPE   O3214725   4.522   6.442   9.928  0.4641  0.3756  0.8583
  136SAPE   C3214726   4.448   6.556   9.729  0.4492 -0.3899  0.1912
  136SAPE   H2X14727   4.482   6.661   9.716  0.9872 -0.5822  0.0293
  136SAPE   H2Y14728   4.342   6.547   9.697  0.2068  0.2228  0.7815
  136SAPE   C2314729   4.476   7.157  10.106  0.9091  1.0015 -0.3617
  136SAPE   H3R14730   4.555   7.136  10.031  0.4279  1.1547 -0.9181
  136SAPE   H3S14731   4.504   7.241  10.173  3.7081 -0.8129  0.9369
  136SAPE   C2414732   4.359   7.197  10.008 -1.0161  0.5517 -0.5565
  136SAPE   H4R14733   4.312   7.104   9.970 -1.4058  0.8510 -0.8128
  136SAPE   H4S14734   4.409   7.250   9.924  0.4000  0.1713  0.0217
  136SAPE   C2514735   4.251   7.287  10.069  0.5975 -0.0237  0.4165
  136SAPE   H5R14736   4.199   7.263  10.163 -0.7553  1.7237  0.1572
  136SAPE   C2614737   4.212   7.400  10.015  0.6673  0.2457  0.0061
  136SAPE   H6R14738   4.139   7.456  10.076 -0.6535 -0.7948 -0.5676
  136SAPE   C2714739   4.247   7.463   9.880 -0.1423 -0.0002 -0.2487
  136SAPE   H7R14740   4.259   7.389   9.798  1.3442  0.6073 -0.6138
  136SAPE   H7S14741   4.352   7.499   9.889  0.0087 -0.8035  1.5432
  136SAPE   C2814742   4.168   7.582   9.838  0.8124 -0.3424 -0.1697
  136SAPE   H8R14743   4.121   7.633   9.924 -1.7048  0.6153 -1.9743
  136SAPE   C2914744   4.155   7.633   9.709 -0.4583 -0.1434 -0.2798
  136SAPE   H9R14745   4.085   7.715   9.685 -2.1307 -1.5050 -0.2261
  136SAPE  C21014746   4.215   7.570   9.589  0.7396  0.3014 -0.5213
  136SAPE  H10R14747   4.298   7.502   9.618 -0.5565 -0.8607  0.5650
  136SAPE  H10S14748   4.242   7.645   9.511  0.1534  2.6803  1.4446
  136SAPE  C21114749   4.117   7.480   9.532  0.1022 -0.1969  0.1020
  136SAPE  H11R14750   4.049   7.424   9.599  0.1807 -0.0567  0.2986
  136SAPE  C21214751   4.094   7.463   9.398 -0.6138 -0.1705 -0.1096
  136SAPE  H12R14752   4.037   7.375   9.366 -1.1216 -0.1639  0.7538
  136SAPE  C21314753   4.170   7.524   9.284 -0.0507 -0.0292 -0.3185
  136SAPE  H13R14754   4.270   7.474   9.283 -0.0556 -0.0405 -0.2830
  136SAPE  H13S14755   4.196   7.631   9.301 -0.5719  0.3802 -1.9891
  136SAPE  C21414756   4.097   7.522   9.151  0.0127  0.4885 -0.1424
  136SAPE  H14R14757   4.006   7.584   9.148 -0.7187 -0.5849 -1.2486
  136SAPE  C21514758   4.143   7.465   9.034 -0.1527  0.3231  0.3941
  136SAPE  H15R14759   4.077   7.466   8.946 -0.8198 -2.0371  0.8123
  136SAPE  C21614760   4.274   7.390   9.022  0.1128 -0.1342 -0.1928
  136SAPE  H16R14761   4.266   7.279   9.025 -0.5963 -0.1420 -1.5271
  136SAPE  H16S14762   4.336   7.421   9.109 -2.6463 -0.5593  2.0995
  136SAPE  C21714763   4.341   7.426   8.892  0.3986 -0.6122 -0.0210
  136SAPE  H17R14764   4.446   7.395   8.911  0.4727  0.0095  0.6175
  136SAPE  H17S14765   4.348   7.536   8.888  3.0026 -0.6710  0.9663
  136SAPE  C21814766   4.286   7.367   8.766 -0.0028  0.2567  0.3920
  136SAPE  H18R14767   4.175   7.375   8.761 -0.0612 -0.9571 -1.1655
  136SAPE  H18S14768   4.308   7.258   8.772 -0.2531  0.1450 -0.6032
  136SAPE  C21914769   4.340   7.429   8.633  0.0150  0.8252 -0.0045
  136SAPE  H19R14770   4.338   7.540   8.639 -0.2008  0.7963  0.5137
  136SAPE  H19S14771   4.269   7.392   8.556 -0.6788  2.5663 -0.2393
  136SAPE  C22014772   4.477   7.384   8.589  0.1333  0.8010  0.0642
  136SAPE  H20R14773   4.475   7.273   8.580 -1.2410  0.8971 -1.2714
  136SAPE  H20S14774   4.557   7.421   8.656  0.9145  0.8328 -0.8608
  136SAPE  H20T14775   4.502   7.422   8.488 -0.0573  0.1520 -0.2381
  136SAPE   C3314776   4.542   6.474   9.646  0.0320  0.1765  0.6375
  136SAPE   H3X14777   4.509   6.369   9.630  0.4908 -0.2160  2.1874
  136SAPE   H3Y14778   4.641   6.456   9.691  0.4948  1.9704  0.4174
  136SAPE   C3414779   4.597   6.538   9.517  0.1064  0.0342  0.1607
  136SAPE   H4X14780   4.695   6.492   9.490  1.6136  1.8590  2.1645
  136SAPE   H4Y14781   4.637   6.636   9.552 -0.4422  0.7724 -1.2220
  136SAPE   C3514782   4.490   6.572   9.421  0.6170  0.1387 -0.1469
  136SAPE   H5X14783   4.405   6.630   9.463 -0.7511  0.7221 -3.4184
  136SAPE   H5Y14784   4.450   6.481   9.371  1.1251  0.5455 -1.3067
  136SAPE   C3614785   4.533   6.650   9.303  0.7237 -0.4510  0.5504
  136SAPE   H6X14786   4.578   6.747   9.333 -0.6208  1.0896 -2.0249
  136SAPE   H6Y14787   4.444   6.677   9.242  0.3763 -1.1783  0.7172
  136SAPE   C3714788   4.645   6.580   9.217  0.1140 -0.0693  0.0284
  136SAPE   H7X14789   4.606   6.480   9.187  0.8178 -0.1946 -0.4845
  136SAPE   H7Y14790   4.725   6.557   9.290  0.0831  0.2460  0.1646
  136SAPE   C3814791   4.701   6.671   9.102 -0.4280 -0.0199 -0.1238
  136SAPE   H8X14792   4.721   6.769   9.150 -0.1960 -0.8362  1.5162
  136SAPE   H8Y14793   4.618   6.704   9.037 -1.6280  0.5364  1.6092
  136SAPE   C3914794   4.821   6.606   9.039  0.6546 -0.3226 -0.4763
  136SAPE   H9X14795   4.785   6.512   8.991 -1.0075 -0.4531  0.9275
  136SAPE   H9Y14796   4.909   6.582   9.103 -0.4668  1.3822  1.8707
  136SAPE  C31014797   4.877   6.692   8.928 -0.1114  0.4878 -0.7713
  136SAPE  H10X14798   4.795   6.717   8.857 -0.6801  1.0690  0.0734
  136SAPE  H10Y14799   4.965   6.642   8.882  1.3787  1.1512  1.1901
  136SAPE  C31114800   4.924   6.834   8.975 -0.0214 -0.9151  0.7418
  136SAPE  H11X14801   4.979   6.835   9.071 -0.4666 -1.5408  1.0140
  136SAPE  H11Y14802   4.833   6.897   8.983  2.1523  2.2798  2.4948
  136SAPE  C31214803   5.019   6.896   8.871 -0.2345  0.3324  0.1388
  136SAPE  H12X14804   5.113   6.837   8.865 -0.3339  0.3274 -1.8515
  136SAPE  H12Y14805   5.038   7.001   8.903 -1.8728  1.5345 -2.4487
  136SAPE  C31314806   4.962   6.920   8.732 -0.2046  0.1825  0.0541
  136SAPE  H13X14807   4.869   6.980   8.747 -0.0845  0.0164  1.6820
  136SAPE  H13Y14808   4.934   6.827   8.679 -0.0320  1.0454 -1.6121
  136SAPE  C31414809   5.065   6.996   8.648  0.3067  0.2970  0.5085
  136SAPE  H14X14810   5.160   6.940   8.658 -0.0770 -0.8476 -1.6801
  136SAPE  H14Y14811   5.076   7.103   8.673 -1.7992  1.6644 -3.5153
  136SAPE  C31514812   5.007   7.001   8.495  0.3556  0.4234 -0.9210
  136SAPE  H15X14813   4.994   6.897   8.457  0.3196  0.1164 -0.0852
  136SAPE  H15Y14814   5.096   7.037   8.440 -0.4021  1.8550 -1.2387
  136SAPE  C31614815   4.892   7.102   8.476 -0.1838  0.2331  0.2397
  136SAPE  H16X14816   4.935   7.204   8.471 -1.7798  1.0618  2.2446
  136SAPE  H16Y14817   4.818   7.088   8.557 -0.4315 -0.4141 -0.0908
  136SAPE  C31714818   4.821   7.080   8.338 -0.6393  0.4856  0.1641
  136SAPE  H17X14819   4.899   7.072   8.259 -2.6991 -3.2627 -1.7727
  136SAPE  H17Y14820   4.758   7.168   8.312 -0.2855  1.4684  2.4511
  136SAPE  C31814821   4.741   6.948   8.330 -0.1278  0.3830 -0.0740
  136SAPE  H18X14822   4.809   6.862   8.352 -0.5565  0.3372  1.1406
  136SAPE  H18Y14823   4.694   6.932   8.231 -0.6719 -0.3430  0.2913
  136SAPE  H18Z14824   4.664   6.931   8.408  1.4710  0.3482  1.5842
  137SAPE     N14825   0.932   1.766  10.551  0.3238  0.0501  0.0638
  137SAPE   HN114826   1.015   1.748  10.492 -1.0621 -1.7562 -1.4599
  137SAPE   HN214827   0.852   1.747  10.486  0.6362  0.5779 -0.4832
  137SAPE   HN314828   0.925   1.867  10.577 -0.1694  0.9727 -3.1597
  137SAPE   C1214829   0.927   1.663  10.656  0.1194  0.1679  0.1725
  137SAPE  H12A14830   1.005   1.690  10.730 -0.0835  2.9510 -0.5212
  137SAPE  H12B14831   0.942   1.562  10.613 -0.2535 -0.4409  1.4268
  137SAPE   C1114832   0.791   1.641  10.729 -0.3237 -0.2591  0.1447
  137SAPE  H11A14833   0.798   1.558  10.802  0.2836  0.5905  1.0893
  137SAPE  H11B14834   0.715   1.629  10.648  1.3256 -3.1311 -1.0961
  137SAPE     P14835   0.646   1.865  10.798 -0.2022  0.0977 -0.2945
  137SAPE   O1314836   0.549   1.817  10.893  0.1933 -0.1247  0.0871
  137SAPE   O1414837   0.703   2.001  10.820 -0.0036  0.4592  0.1480
  137SAPE   O1214838   0.769   1.764  10.805 -0.2319  0.0238  0.1445
  137SAPE   O1114839   0.595   1.854  10.653 -0.3021  0.3549  0.8825
  137SAPE    C114840   0.575   1.970  10.565  0.3073  0.1072 -0.0262
  137SAPE    HA14841   0.556   2.064  10.621  1.0890 -0.6547  1.5896
  137SAPE    HB14842   0.664   1.994  10.502 -1.4133  3.7731 -1.3315
  137SAPE    C214843   0.446   1.966  10.481 -0.5122  0.0270 -0.6107
  137SAPE    HS14844   0.366   1.983  10.557 -0.8899  1.0958 -1.2208
  137SAPE   O2114845   0.438   1.834  10.415  0.3232  0.2800 -0.3368
  137SAPE   C2114846   0.318   1.789  10.390 -0.1706  0.4023 -0.3599
  137SAPE   O2214847   0.210   1.830  10.435  0.1041  0.0293  0.0666
  137SAPE   C2214848   0.335   1.664  10.299 -0.2063  0.2085 -0.0920
  137SAPE   H2R14849   0.419   1.597  10.327  2.3305  2.6073 -1.3444
  137SAPE   H2S14850   0.238   1.610  10.302  0.8693 -2.0126 -1.9709
  137SAPE    C314851   0.452   2.075  10.370 -0.1735  0.3820 -0.2362
  137SAPE    HX14852   0.526   2.061  10.288  0.0534  1.9967 -0.3293
  137SAPE    HY14853   0.490   2.173  10.404  3.0579 -0.5785 -0.6970
  137SAPE   O3114854   0.332   2.072  10.285  0.0792  0.2584 -0.2573
  137SAPE   C3114855   0.238   2.150  10.313  0.1909 -0.4796 -0.4930
  137SAPE   O3214856   0.239   2.227  10.409  0.2519 -0.3998 -0.4183
  137SAPE   C3214857   0.140   2.153  10.199  0.2536 -0.4865  0.9454
  137SAPE   H2X14858   0.103   2.257  10.180  0.3275 -0.6055  0.0876
  137SAPE   H2Y14859   0.059   2.079  10.214 -0.2499 -0.2304 -0.3289
  137SAPE   C2314860   0.364   1.705  10.148  0.0228 -0.0947 -0.3470
  137SAPE   H3R14861   0.448   1.777  10.138 -0.7652  0.5696 -2.9019
  137SAPE   H3S14862   0.274   1.762  10.116 -0.4621 -0.8871 -0.4202
  137SAPE   C2414863   0.372   1.578  10.055  0.2529 -0.4661  0.2017
  137SAPE   H4R14864   0.371   1.628   9.956 -0.5902 -0.8778 -0.0039
  137SAPE   H4S14865   0.278   1.524  10.079  0.8829 -1.5501  0.2918
  137SAPE   C2514866   0.491   1.483  10.086  0.4685 -0.7380 -0.5508
  137SAPE   H5R14867   0.503   1.452  10.191  0.0840 -0.2781 -0.3673
  137SAPE   C2614868   0.586   1.444   9.999  0.4158 -0.5959  0.2474
  137SAPE   H6R14869   0.667   1.374  10.025  3.0234  1.8251 -0.8565
  137SAPE   C2714870   0.575   1.469   9.849  0.4656 -0.2418 -0.2577
  137SAPE   H7R14871   0.533   1.571   9.834 -0.6024 -0.4298  1.2505
  137SAPE   H7S14872   0.504   1.392   9.810  1.6352 -1.2616 -0.4381
  137SAPE   C2814873   0.711   1.457   9.785  0.1722  0.3420  0.6233
  137SAPE   H8R14874   0.795   1.501   9.840 -0.2766  0.0018  1.5983
  137SAPE   C2914875   0.739   1.414   9.658  0.2193 -0.8518  0.1963
  137SAPE   H9R14876   0.844   1.406   9.626  0.2767 -0.8609  0.3814
  137SAPE  C21014877   0.646   1.359   9.551 -0.5058  0.2244 -0.9696
  137SAPE  H10R14878   0.547   1.334   9.594  0.8963  0.0105  2.4262
  137SAPE  H10S14879   0.681   1.259   9.516  1.5521 -0.2786  2.1319
  137SAPE  C21114880   0.628   1.463   9.442 -0.0419 -0.4420  0.5427
  137SAPE  H11R14881   0.587   1.561   9.471 -0.9005 -0.2781 -1.0889
  137SAPE  C21214882   0.663   1.449   9.314  0.1147  1.1775  0.1675
  137SAPE  H12R14883   0.650   1.535   9.246 -0.4753  1.8926  1.1431
  137SAPE  C21314884   0.709   1.322   9.240  0.0888 -0.3604  0.0442
  137SAPE  H13R14885   0.643   1.237   9.269 -1.3219 -0.2929 -2.6947
  137SAPE  H13S14886   0.811   1.288   9.267  0.2523 -1.2195 -1.5189
  137SAPE  C21414887   0.713   1.326   9.087 -0.8515  0.2827 -0.5931
  137SAPE  H14R14888   0.816   1.311   9.052 -0.0362  1.6443  1.0858
  137SAPE  C21514889   0.608   1.354   9.005 -0.3708 -0.0103  0.1875
  137SAPE  H15R14890   0.623   1.345   8.896  3.6178  0.1056  0.5709
  137SAPE  C21614891   0.468   1.377   9.056  0.0646 -0.4455  0.6381
  137SAPE  H16R14892   0.457   1.368   9.166 -0.5826  1.3580  0.7676
  137SAPE  H16S14893   0.398   1.304   9.010 -0.1748 -0.2383  0.6712
  137SAPE  C21714894   0.416   1.515   9.014 -0.4023 -0.2444 -0.0237
  137SAPE  H17R14895   0.461   1.591   9.082  0.3481 -1.4362  0.8385
  137SAPE  H17S14896   0.307   1.508   9.035 -0.6214  1.3215 -0.4765
  137SAPE  C21814897   0.429   1.548   8.873 -0.2442 -0.3424  0.1938
  137SAPE  H18R14898   0.378   1.459   8.829 -0.7335 -1.3297  2.6045
  137SAPE  H18S14899   0.537   1.547   8.845 -0.4741 -1.4777 -0.7419
  137SAPE  C21914900   0.353   1.673   8.839 -0.0766 -0.5055 -0.0818
  137SAPE  H19R14901   0.395   1.764   8.886  0.7413 -1.6235  1.4430
  137SAPE  H19S14902   0.248   1.667   8.874 -1.1872 -0.2601 -3.0383
  137SAPE  C22014903   0.357   1.692   8.686 -0.2626 -0.2691  0.5556
  137SAPE  H20R14904   0.281   1.767   8.658 -0.7295  0.4953  3.5615
  137SAPE  H20S14905   0.338   1.596   8.634  2.7840 -0.1497 -1.0489
  137SAPE  H20T14906   0.463   1.712   8.658  0.8167 -1.9840  3.0216
  137SAPE   C3314907   0.194   2.116  10.059  0.7719 -0.0619  0.0294
  137SAPE   H3X14908   0.193   2.005  10.056 -0.8354 -0.1604  1.8217
  137SAPE   H3Y14909   0.296   2.155  10.039 -0.7589  4.0054 -1.0050
  137SAPE   C3414910   0.112   2.168   9.947  0.0259 -0.4916 -0.1653
  137SAPE   H4X14911   0.094   2.278   9.952 -0.1907 -0.5263 -0.1849
  137SAPE   H4Y14912   0.011   2.122   9.955  0.1909 -0.7371  0.4937
  137SAPE   C3514913   0.159   2.126   9.807  0.6404  0.0044  0.3795
  137SAPE   H5X14914   0.143   2.017   9.789  0.3562  0.3880 -1.9697
  137SAPE   H5Y14915   0.269   2.138   9.797  0.4189  0.5484 -1.8049
  137SAPE   C3614916   0.094   2.201   9.692 -0.3484 -0.0858  0.3637
  137SAPE   H6X14917   0.118   2.309   9.706  0.2358 -0.1129 -0.3400
  137SAPE   H6Y14918  -0.015   2.183   9.693 -0.5426  0.8969  2.8093
  137SAPE   C3714919   0.143   2.165   9.547  0.0146 -0.0677 -0.2175
  137SAPE   H7X14920   0.128   2.055   9.545 -1.5350  0.0943  0.8610
  137SAPE   H7Y14921   0.252   2.173   9.527 -0.0845  0.8465 -0.4178
  137SAPE   C3814922   0.061   2.222   9.434 -0.1581  0.1903 -0.4927
  137SAPE   H8X14923   0.068   2.328   9.467  0.9663 -0.1156  0.3130
  137SAPE   H8Y14924  -0.048   2.201   9.442 -0.4315  2.0151  1.0821
  137SAPE   C3914925   0.114   2.196   9.296  0.0790 -0.0675 -0.2323
  137SAPE   H9X14926   0.224   2.198   9.313  0.9154 -3.3222 -3.8920
  137SAPE   H9Y14927   0.086   2.279   9.227  0.8019  0.9717  0.6958
  137SAPE  C31014928   0.082   2.061   9.234 -0.0940 -0.2420 -0.5489
  137SAPE  H10X14929  -0.026   2.046   9.209 -0.5021  1.4396  0.0504
  137SAPE  H10Y14930   0.102   1.985   9.312 -1.1639  1.1869  1.1776
  137SAPE  C31114931   0.166   2.013   9.111  0.0938 -0.1499  0.5535
  137SAPE  H11X14932   0.134   1.909   9.086  0.5099  0.6732 -4.5413
  137SAPE  H11Y14933   0.273   2.004   9.137  0.0034 -1.9513  0.4041
  137SAPE  C31214934   0.160   2.094   8.982 -0.6607 -0.2927 -0.3435
  137SAPE  H12X14935   0.189   2.200   9.000  0.0151 -0.0974 -2.3472
  137SAPE  H12Y14936   0.052   2.087   8.956 -0.3277 -0.9338 -1.6514
  137SAPE  C31314937   0.254   2.052   8.872  0.3261 -0.6061  0.0328
  137SAPE  H13X14938   0.218   2.107   8.782  1.6608  2.8749  1.4620
  137SAPE  H13Y14939   0.247   1.943   8.851 -0.6617 -0.5530  0.0140
  137SAPE  C31414940   0.398   2.088   8.908  0.2114 -0.2147 -0.1176
  137SAPE  H14X14941   0.437   2.014   8.981 -0.6022  0.8921  1.5077
  137SAPE  H14Y14942   0.410   2.186   8.958  1.8643  0.7206 -2.1986
  137SAPE  C31514943   0.482   2.096   8.781 -0.6757 -0.5560  0.2863
  137SAPE  H15X14944   0.447   2.010   8.719  1.7830 -1.7330  0.4225
  137SAPE  H15Y14945   0.591   2.082   8.797 -0.2362  0.6173 -1.4267
  137SAPE  C31614946   0.456   2.227   8.701 -0.0295 -0.1630  0.4200
  137SAPE  H16X14947   0.477   2.301   8.782  2.7966 -0.9412  0.4960
  137SAPE  H16Y14948   0.348   2.224   8.674 -0.2356 -2.7050  1.2735
  137SAPE  C31714949   0.554   2.240   8.580 -0.0003 -0.0994  0.3833
  137SAPE  H17X14950   0.536   2.161   8.504  2.1081 -0.6430  0.3807
  137SAPE  H17Y14951   0.655   2.208   8.613  0.6577  1.7347  0.2462
  137SAPE  C31814952   0.551   2.372   8.508 -0.5751 -0.4368  0.1127
  137SAPE  H18X14953   0.631   2.382   8.431 -1.2109  2.0763 -0.3011
  137SAPE  H18Y14954   0.573   2.455   8.579  0.7042 -1.5828  1.1200
  137SAPE  H18Z14955   0.451   2.382   8.462 -0.7547  1.8378  0.8551
  138SAPE     N14956   4.977   3.726  10.662  0.1337  0.3731  1.1890
  138SAPE   HN114957   5.037   3.712  10.579 -2.3035  0.2630 -0.6607
  138SAPE   HN214958   4.886   3.762  10.626 -0.0144 -0.5180  0.6664
  138SAPE   HN314959   5.014   3.793  10.734  0.4658  0.6442  0.7695
  138SAPE   C1214960   4.960   3.592  10.738 -0.2716  0.2968 -0.5073
  138SAPE  H12A14961   4.864   3.540  10.718 -1.0775  2.0458 -1.4127
  138SAPE  H12B14962   4.960   3.618  10.846 -0.2968  0.9430 -0.6620
  138SAPE   C1114963   5.083   3.503  10.714 -0.0399 -0.2997 -0.6031
  138SAPE  H11A14964   5.114   3.510  10.608  0.2700 -0.2156 -0.5090
  138SAPE  H11B14965   5.062   3.396  10.735  1.7374 -0.4880  0.4021
  138SAPE     P14966   5.314   3.613  10.762 -0.4436  0.2585  0.1715
  138SAPE   O1314967   5.371   3.694  10.870 -0.1453 -0.0538 -0.3683
  138SAPE   O1414968   5.400   3.501  10.710 -0.7975  0.3480  0.3240
  138SAPE   O1214969   5.181   3.555  10.810 -0.0679 -0.0441 -0.1152
  138SAPE   O1114970   5.260   3.701  10.644 -0.3212  0.5714  0.3395
  138SAPE    C114971   5.361   3.786  10.574 -0.0044  0.6945  0.1063
  138SAPE    HA14972   5.420   3.854  10.640  0.0583  2.5357 -1.7510
  138SAPE    HB14973   5.438   3.722  10.526 -0.4929 -0.9474  1.3979
  138SAPE    C214974   5.304   3.875  10.466  0.3867  0.0981  0.2745
  138SAPE    HS14975   5.214   3.930  10.500 -0.3609 -1.4613  0.8891
  138SAPE   O2114976   5.284   3.787  10.356 -0.2997 -0.1373 -0.0688
  138SAPE   C2114977   5.182   3.715  10.350  0.1465  0.1269 -0.0124
  138SAPE   O2214978   5.093   3.706  10.430  0.3812 -0.3080 -0.3795
  138SAPE   C2214979   5.205   3.627  10.225  0.4922  0.2594  0.0021
  138SAPE   H2R14980   5.229   3.697  10.142  1.5632 -1.7571 -1.4647
  138SAPE   H2S14981   5.303   3.576  10.238  0.7146  0.3913 -1.0747
  138SAPE    C314982   5.410   3.973  10.414 -0.9371 -0.5741 -0.9875
  138SAPE    HX14983   5.507   3.924  10.390  1.5265  3.0252  0.8288
  138SAPE    HY14984   5.434   4.042  10.497 -2.6586  0.7041 -1.4924
  138SAPE   O3114985   5.370   4.042  10.299 -0.2508  0.2438  0.1051
  138SAPE   C3114986   5.407   4.170  10.298  0.2575 -0.1776 -0.0617
  138SAPE   O3214987   5.481   4.231  10.375 -0.0662  0.4566 -0.9539
  138SAPE   C3214988   5.357   4.211  10.158 -0.2610 -0.2846 -0.0073
  138SAPE   H2X14989   5.247   4.197  10.155 -0.4055  0.8626 -0.9369
  138SAPE   H2Y14990   5.412   4.147  10.085  0.9321 -1.8598  2.1853
  138SAPE   C2314991   5.094   3.533  10.182 -0.0033  0.2451 -0.1608
  138SAPE   H3R14992   5.066   3.471  10.269  0.5647  2.1960  1.4829
  138SAPE   H3S14993   5.143   3.458  10.115 -1.9444  0.2222 -1.6607
  138SAPE   C2414994   4.980   3.596  10.112  0.5083 -0.3381  0.5664
  138SAPE   H4R14995   5.000   3.624  10.007 -3.5744 -1.2834 -0.6258
  138SAPE   H4S14996   4.958   3.685  10.175 -1.1583  0.2808 -0.8439
  138SAPE   C2514997   4.854   3.508  10.110  0.3576  0.3778 -0.4022
  138SAPE   H5R14998   4.787   3.531  10.194  0.3776 -0.4512 -0.1497
  138SAPE   C2614999   4.829   3.410  10.017 -0.5437  0.0763  0.4321
  138SAPE   H6R15000   4.740   3.346  10.018 -1.1928  0.9228 -0.6016
  138SAPE   C2715001   4.932   3.365   9.912  0.6286  0.6040  0.0815
  138SAPE   H7R15002   4.954   3.260   9.942 -1.0771 -0.1754 -1.2466
  138SAPE   H7S15003   5.026   3.422   9.896  0.5723  0.3824 -1.1288
  138SAPE   C2815004   4.856   3.354   9.777  0.1118  0.2637 -0.4804
  138SAPE   H8R15005   4.755   3.311   9.787 -0.0226  0.5092 -0.7486
  138SAPE   C2915006   4.897   3.371   9.650  0.1603  0.2173  0.0910
  138SAPE   H9R15007   4.831   3.366   9.562  2.0861 -3.1626 -1.3809
  138SAPE  C21015008   5.038   3.406   9.609 -0.5170  0.8983 -1.0483
  138SAPE  H10R15009   5.110   3.407   9.694  0.6509 -0.6557 -1.9609
  138SAPE  H10S15010   5.048   3.514   9.588  1.3695  0.8065 -0.8064
  138SAPE  C21115011   5.098   3.309   9.505  0.1203 -0.5623 -0.4227
  138SAPE  H11R15012   5.155   3.229   9.554 -0.6377 -0.5043  0.5867
  138SAPE  C21215013   5.089   3.311   9.369 -0.8574  0.3953 -0.0378
  138SAPE  H12R15014   5.151   3.239   9.312  1.2711  2.1603 -0.1199
  138SAPE  C21315015   5.013   3.411   9.279  0.3663 -0.2300  0.3043
  138SAPE  H13R15016   5.085   3.460   9.210  2.4093 -2.0865  1.0044
  138SAPE  H13S15017   4.963   3.491   9.338 -1.3480 -0.2305 -1.0776
  138SAPE  C21415018   4.911   3.338   9.198  0.2711  0.1762 -0.2610
  138SAPE  H14R15019   4.813   3.322   9.246 -0.0348  1.5384 -0.3705
  138SAPE  C21515020   4.939   3.287   9.078  0.3924 -0.0029 -0.1888
  138SAPE  H15R15021   4.860   3.228   9.029  2.7322 -2.1143 -1.6437
  138SAPE  C21615022   5.064   3.316   8.997 -0.4049 -0.3655  0.3908
  138SAPE  H16R15023   5.148   3.262   9.046  0.7255  0.6728 -0.3748
  138SAPE  H16S15024   5.092   3.423   8.986 -2.3112  0.2534  1.1994
  138SAPE  C21715025   5.042   3.277   8.852 -0.2016 -0.3006 -0.6167
  138SAPE  H17R15026   4.958   3.339   8.816 -1.3804 -0.6641  1.3520
  138SAPE  H17S15027   5.032   3.166   8.854  1.9745 -0.7292  4.6757
  138SAPE  C21815028   5.164   3.301   8.761  0.5686  0.0929 -0.1874
  138SAPE  H18R15029   5.202   3.405   8.775  1.2573 -0.0039 -1.2266
  138SAPE  H18S15030   5.122   3.297   8.659 -0.4658 -1.2150  0.2667
  138SAPE  C21915031   5.277   3.192   8.778  0.6275 -0.0000 -0.1310
  138SAPE  H19R15032   5.224   3.096   8.764  0.9499 -0.0286 -1.2348
  138SAPE  H19S15033   5.314   3.184   8.882 -2.2671 -1.4055  0.8964
  138SAPE  C22015034   5.384   3.192   8.675 -0.5124  0.6483  0.1975
  138SAPE  H20R15035   5.340   3.219   8.576  0.1599  0.0464 -0.2788
  138SAPE  H20S15036   5.429   3.091   8.672 -1.3925  0.2313 -3.0496
  138SAPE  H20T15037   5.468   3.259   8.703  0.6896 -2.0468  3.7467
  138SAPE   C3315038   5.381   4.366  10.121 -0.3001  0.7333 -0.0202
  138SAPE   H3X15039   5.489   4.382  10.102 -0.5558  0.2682 -2.1919
  138SAPE   H3Y15040   5.349   4.436  10.202  0.4741 -0.3134  1.2283
  138SAPE   C3415041   5.299   4.420  10.004  0.1868 -0.0474  0.3549
  138SAPE   H4X15042   5.309   4.530   9.996  0.6897 -0.2026 -1.6324
  138SAPE   H4Y15043   5.194   4.393  10.029 -0.2628 -0.0165 -1.3585
  138SAPE   C3515044   5.338   4.368   9.862  0.1020 -0.4633  0.5863
  138SAPE   H5X15045   5.346   4.257   9.859  1.2178 -0.3798 -1.6793
  138SAPE   H5Y15046   5.439   4.406   9.838  0.3241 -1.8048 -0.7165
  138SAPE   C3615047   5.246   4.416   9.751  0.6226 -0.4765 -0.8777
  138SAPE   H6X15048   5.305   4.462   9.669  1.4123  0.1386  0.0106
  138SAPE   H6Y15049   5.192   4.506   9.788  1.0826 -0.6523  0.2747
  138SAPE   C3715050   5.142   4.314   9.712  0.5904  0.2926  0.8154
  138SAPE   H7X15051   5.075   4.288   9.797 -1.3903 -0.3857 -0.8778
  138SAPE   H7Y15052   5.192   4.224   9.672 -0.2162 -0.1946  0.8855
  138SAPE   C3815053   5.061   4.357   9.591 -0.4448 -0.1564 -0.5789
  138SAPE   H8X15054   5.128   4.376   9.505 -0.9916 -1.3804 -1.3035
  138SAPE   H8Y15055   5.013   4.457   9.603 -0.8243 -0.4683  0.6571
  138SAPE   C3915056   4.949   4.257   9.548  0.0497 -0.7067 -0.9389
  138SAPE   H9X15057   4.886   4.238   9.637  2.0242 -3.7462 -0.0167
  138SAPE   H9Y15058   4.992   4.157   9.526 -0.1203 -1.1247  0.5109
  138SAPE  C31015059   4.866   4.312   9.434 -0.7750  0.0197 -0.7382
  138SAPE  H10X15060   4.876   4.423   9.430 -0.1730  0.0204  0.4379
  138SAPE  H10Y15061   4.763   4.279   9.460 -0.1017  0.7523  3.4386
  138SAPE  C31115062   4.901   4.259   9.300  0.1377  0.1419  0.6527
  138SAPE  H11X15063   4.887   4.149   9.290 -1.1189  0.3333  0.1909
  138SAPE  H11Y15064   5.005   4.295   9.282  1.0782 -1.3804  2.6756
  138SAPE  C31215065   4.815   4.318   9.179 -0.2250 -0.0712 -0.2022
  138SAPE  H12X15066   4.822   4.429   9.182  0.2166 -0.1142  0.6770
  138SAPE  H12Y15067   4.706   4.310   9.195 -0.4047 -4.2734 -2.1747
  138SAPE  C31315068   4.844   4.254   9.050  0.4735  0.4072  0.0060
  138SAPE  H13X15069   4.802   4.151   9.049  0.4613  0.4154 -0.9401
  138SAPE  H13Y15070   4.954   4.253   9.034  0.4129 -1.9517 -0.7250
  138SAPE  C31415071   4.776   4.321   8.926 -0.2282  1.0100 -0.3139
  138SAPE  H14X15072   4.815   4.423   8.905  0.4851  1.0457  1.0457
  138SAPE  H14Y15073   4.674   4.339   8.965 -0.6726 -0.5634 -0.6747
  138SAPE  C31515074   4.770   4.239   8.798 -0.2024  0.5141 -0.3807
  138SAPE  H15X15075   4.775   4.130   8.821 -2.8805  0.8659  2.6673
  138SAPE  H15Y15076   4.856   4.270   8.736 -1.1752  2.8669 -0.6479
  138SAPE  C31615077   4.649   4.275   8.716 -0.4917 -0.6408  0.2375
  138SAPE  H16X15078   4.634   4.385   8.721  0.4358 -0.4261 -1.1643
  138SAPE  H16Y15079   4.558   4.221   8.751 -0.0531 -0.2613  2.0604
  138SAPE  C31715080   4.657   4.240   8.567  0.4545  0.5813  0.3472
  138SAPE  H17X15081   4.655   4.130   8.552  0.9348  0.7481 -1.0929
  138SAPE  H17Y15082   4.750   4.281   8.523 -0.4946  1.9298 -0.4796
  138SAPE  C31815083   4.534   4.300   8.491  0.5797 -0.2023 -0.2418
  138SAPE  H18X15084   4.439   4.244   8.491  0.6841 -0.3899  0.5002
  138SAPE  H18Y15085   4.556   4.305   8.382  1.5523 -1.2890 -0.1230
  138SAPE  H18Z15086   4.511   4.400   8.533 -0.3684  0.3085 -1.9065
  139SAPE     N15087   3.996   2.666  10.766 -0.4527  0.1419  0.0120
  139SAPE   HN115088   3.988   2.580  10.824  0.1291  0.5598  0.7330
  139SAPE   HN215089   3.970   2.738  10.835 -0.4480 -1.3940  1.6939
  139SAPE   HN315090   3.926   2.662  10.689 -1.5125  2.3053  0.7893
  139SAPE   C1215091   4.140   2.681  10.708  0.1364 -0.9628 -0.5445
  139SAPE  H12A15092   4.214   2.654  10.786  1.7447 -0.1001 -1.7122
  139SAPE  H12B15093   4.157   2.787  10.679 -0.5090 -0.6198  0.2862
  139SAPE   C1115094   4.163   2.601  10.576  0.1247  0.1781 -0.2344
  139SAPE  H11A15095   4.271   2.602  10.550  0.2894  1.5073  0.3942
  139SAPE  H11B15096   4.109   2.654  10.494  0.7082 -1.9761 -2.1013
  139SAPE     P15097   4.198   2.354  10.645  0.2325  0.4214  0.0757
  139SAPE   O1315098   4.312   2.401  10.730  0.0009  0.0022 -0.1507
  139SAPE   O1415099   4.115   2.240  10.695  0.7017  0.2319 -0.3250
  139SAPE   O1215100   4.102   2.470  10.592  0.1770 -0.1796  0.8436
  139SAPE   O1115101   4.265   2.303  10.504 -0.0539 -0.1514 -0.8247
  139SAPE    C115102   4.196   2.222  10.400 -0.0120  0.5381  0.6810
  139SAPE    HA15103   4.235   2.118  10.405  3.1103  1.5498  0.1013
  139SAPE    HB15104   4.086   2.219  10.412 -0.0716  1.6917  0.5762
  139SAPE    C215105   4.229   2.281  10.264 -0.1391  0.2519 -0.3631
  139SAPE    HS15106   4.206   2.202  10.189 -0.9338  1.6477 -1.6374
  139SAPE   O2115107   4.372   2.314  10.255  0.1935 -0.2907 -0.1371
  139SAPE   C2115108   4.449   2.207  10.243  0.2260 -0.5288 -0.1397
  139SAPE   O2215109   4.409   2.089  10.232 -0.6015  0.0265  0.2966
  139SAPE   C2215110   4.592   2.255  10.244 -0.4925  0.2109  0.3626
  139SAPE   H2R15111   4.597   2.362  10.213 -2.7878  0.6445  1.2466
  139SAPE   H2S15112   4.630   2.257  10.348 -1.5025  1.8479  0.7469
  139SAPE    C315113   4.138   2.404  10.230 -0.2504  0.0908  0.3816
  139SAPE    HX15114   4.179   2.495  10.280  0.5181 -0.1857  0.2704
  139SAPE    HY15115   4.042   2.380  10.281 -0.1292 -0.0222  0.5572
  139SAPE   O3115116   4.119   2.424  10.088 -0.6489 -0.2716 -0.9052
  139SAPE   C3115117   4.043   2.334  10.023  0.0329  0.5787 -0.0810
  139SAPE   O3215118   3.980   2.242  10.074  0.4399 -0.5628  0.1264
  139SAPE   C3215119   4.058   2.356   9.871  0.0166 -0.4771 -0.2468
  139SAPE   H2X15120   4.117   2.448   9.850  1.8578 -1.9076 -1.5926
  139SAPE   H2Y15121   3.954   2.386   9.844 -0.4256 -1.6158  0.1289
  139SAPE   C2315122   4.686   2.170  10.153  0.1972 -0.3502 -0.3476
  139SAPE   H3R15123   4.662   2.062  10.157  0.0226 -0.2646  1.4211
  139SAPE   H3S15124   4.786   2.185  10.197  1.1587  1.3935 -2.8727
  139SAPE   C2415125   4.697   2.216  10.005  0.5627 -0.0466  0.4499
  139SAPE   H4R15126   4.606   2.175   9.956 -0.8188  1.5295  1.5778
  139SAPE   H4S15127   4.787   2.164   9.967 -0.8334 -2.0098 -0.3452
  139SAPE   C2515128   4.719   2.362   9.983  0.4350  0.4661  0.1213
  139SAPE   H5R15129   4.784   2.411  10.058  0.3752  1.5553 -0.5208
  139SAPE   C2615130   4.671   2.441   9.885  0.4703  0.2586 -0.0122
  139SAPE   H6R15131   4.683   2.549   9.897  0.3451  0.1491  1.1949
  139SAPE   C2715132   4.580   2.387   9.778 -0.2056 -0.0612 -0.0108
  139SAPE   H7R15133   4.563   2.278   9.789 -0.8319 -0.0738 -1.0389
  139SAPE   H7S15134   4.621   2.412   9.678 -1.2360  0.7826 -0.2404
  139SAPE   C2815135   4.444   2.448   9.792  0.1176  0.0887 -0.5978
  139SAPE   H8R15136   4.396   2.406   9.881 -0.4234  1.8013 -0.0277
  139SAPE   C2915137   4.378   2.540   9.718 -0.3366  0.0905  0.5432
  139SAPE   H9R15138   4.281   2.581   9.749  0.6017  4.2541 -1.4095
  139SAPE  C21015139   4.421   2.602   9.587 -0.4543  0.1680 -0.1053
  139SAPE  H10R15140   4.518   2.561   9.552 -0.2809 -1.3230  1.9507
  139SAPE  H10S15141   4.440   2.711   9.600  0.3052 -0.0433  0.6591
  139SAPE  C21115142   4.321   2.586   9.477 -0.2108  0.0936 -0.0408
  139SAPE  H11R15143   4.259   2.677   9.475  0.6789  0.7075 -1.4863
  139SAPE  C21215144   4.326   2.503   9.369 -0.1532  0.2842 -0.3275
  139SAPE  H12R15145   4.249   2.482   9.294 -0.0063 -1.2992 -0.0666
  139SAPE  C21315146   4.432   2.402   9.357  0.5730  0.5031  0.0956
  139SAPE  H13R15147   4.401   2.317   9.293  1.7374  0.6595 -0.6960
  139SAPE  H13S15148   4.442   2.351   9.456 -0.7627  2.2064  1.1781
  139SAPE  C21415149   4.564   2.449   9.299  0.1924 -0.1286 -0.3863
  139SAPE  H14R15150   4.609   2.525   9.365 -0.7017 -0.2505  0.3884
  139SAPE  C21515151   4.617   2.419   9.177  0.4593 -0.1458  0.2739
  139SAPE  H15R15152   4.720   2.451   9.152 -0.3357  3.7009  1.1865
  139SAPE  C21615153   4.559   2.336   9.068 -0.2846  0.6758  0.0702
  139SAPE  H16R15154   4.476   2.273   9.105 -0.4875 -1.2246 -3.2172
  139SAPE  H16S15155   4.640   2.265   9.040  0.5227  1.0688  1.3003
  139SAPE  C21715156   4.509   2.413   8.948 -0.0849  0.0473 -0.7941
  139SAPE  H17R15157   4.587   2.488   8.923 -1.5374  2.3940  1.2856
  139SAPE  H17S15158   4.426   2.479   8.983 -1.4357 -1.4849 -0.9836
  139SAPE  C21815159   4.471   2.310   8.841 -0.1013  0.1461  0.0995
  139SAPE  H18R15160   4.404   2.228   8.876  1.4418 -1.5786 -0.7912
  139SAPE  H18S15161   4.558   2.250   8.806 -0.8043 -1.7018  1.3380
  139SAPE  C21915162   4.417   2.386   8.720 -0.0383 -0.2473 -0.1232
  139SAPE  H19R15163   4.326   2.442   8.751  0.8518  0.8955  0.4887
  139SAPE  H19S15164   4.379   2.313   8.645  1.6481 -0.3657 -0.9188
  139SAPE  C22015165   4.516   2.486   8.654  0.0162 -0.1625 -0.0161
  139SAPE  H20R15166   4.462   2.525   8.565  0.7669  1.6616  0.2813
  139SAPE  H20S15167   4.608   2.431   8.623 -0.2002 -0.4903 -0.0771
  139SAPE  H20T15168   4.538   2.565   8.729  1.8153 -0.0657 -0.6047
  139SAPE   C3315169   4.115   2.233   9.800 -0.3934 -0.1239 -0.0106
  139SAPE   H3X15170   4.062   2.139   9.825 -0.5925 -0.1713 -0.5928
  139SAPE   H3Y15171   4.221   2.210   9.826  0.1572  1.8606 -0.2970
  139SAPE   C3415172   4.088   2.245   9.648  0.6723 -0.1925 -0.4433
  139SAPE   H4X15173   4.126   2.345   9.617  1.3739  0.0905  1.2252
  139SAPE   H4Y15174   3.980   2.250   9.620  0.3692  1.2020  0.8410
  139SAPE   C3515175   4.153   2.132   9.570 -0.3206  0.1788 -0.3615
  139SAPE   H5X15176   4.108   2.035   9.599  0.2257 -0.1476 -0.5846
  139SAPE   H5Y15177   4.263   2.123   9.586 -0.2932 -0.5746 -0.9261
  139SAPE   C3615178   4.121   2.142   9.421 -0.1534 -0.2515  0.5696
  139SAPE   H6X15179   4.174   2.231   9.381  3.1487 -0.5192  3.8263
  139SAPE   H6Y15180   4.011   2.138   9.405  0.0250  0.8997 -1.2219
  139SAPE   C3715181   4.187   2.018   9.350  0.1399 -0.6199 -0.8939
  139SAPE   H7X15182   4.128   1.934   9.392 -0.3440 -0.0241 -0.3628
  139SAPE   H7Y15183   4.295   2.023   9.373  0.4745  1.5905 -2.5894
  139SAPE   C3815184   4.171   2.017   9.193 -0.2605 -0.1520 -0.8951
  139SAPE   H8X15185   4.220   1.922   9.162  0.6297  0.4135 -1.2468
  139SAPE   H8Y15186   4.220   2.104   9.145  2.6808 -0.9678  0.4435
  139SAPE   C3915187   4.019   2.023   9.149 -0.5524 -0.2230  0.0896
  139SAPE   H9X15188   3.973   2.121   9.175  0.8981  1.0586 -1.9389
  139SAPE   H9Y15189   3.959   1.947   9.204 -0.2329 -0.4142  0.1744
  139SAPE  C31015190   3.994   1.996   9.004  0.0730  0.2519 -0.4477
  139SAPE  H10X15191   4.046   1.902   8.978 -0.9639 -0.1701 -1.0641
  139SAPE  H10Y15192   4.056   2.067   8.945  0.5014  0.7002  0.5109
  139SAPE  C31115193   3.853   1.994   8.945 -0.3037 -0.3306 -0.1304
  139SAPE  H11X15194   3.817   2.099   8.938 -0.4528 -0.1273  2.5260
  139SAPE  H11Y15195   3.794   1.940   9.021  0.4594 -0.0428  0.6845
  139SAPE  C31215196   3.857   1.926   8.809 -0.0234  0.5624  0.5335
  139SAPE  H12X15197   3.883   1.820   8.831 -0.4549  0.3384  0.0127
  139SAPE  H12Y15198   3.936   1.964   8.741  0.3283 -0.3059  0.4441
  139SAPE  C31315199   3.727   1.919   8.733  0.6451  0.0087 -0.6496
  139SAPE  H13X15200   3.731   1.860   8.639  0.8486 -0.7811 -0.1476
  139SAPE  H13Y15201   3.682   2.021   8.722  0.3703  0.1876  1.6800
  139SAPE  C31415202   3.615   1.838   8.817 -0.2904  0.4838  0.1272
  139SAPE  H14X15203   3.595   1.897   8.909  1.6164  0.9404  0.2988
  139SAPE  H14Y15204   3.646   1.737   8.854 -3.0773 -0.5745 -0.1999
  139SAPE  C31515205   3.477   1.826   8.748 -0.3467  0.1111  0.2421
  139SAPE  H15X15206   3.424   1.732   8.771 -2.2442  0.4851 -2.2732
  139SAPE  H15Y15207   3.503   1.801   8.643  2.1544 -1.3850  1.1366
  139SAPE  C31615208   3.377   1.948   8.760 -0.8138  0.3809 -0.4814
  139SAPE  H16X15209   3.439   2.040   8.753 -1.5319  0.8000 -1.5645
  139SAPE  H16Y15210   3.295   1.947   8.685 -0.5328  1.0044 -0.8111
  139SAPE  C31715211   3.307   1.936   8.898 -0.2050 -0.4727 -0.0877
  139SAPE  H17X15212   3.389   1.925   8.972  1.0489  1.6997 -1.0377
  139SAPE  H17Y15213   3.260   1.836   8.912 -0.2710 -0.3050  0.9643
  139SAPE  C31815214   3.224   2.059   8.930 -0.6860 -0.3910 -0.2569
  139SAPE  H18X15215   3.173   2.044   9.027  1.1619 -1.0013  0.6687
  139SAPE  H18Y15216   3.145   2.069   8.853  1.0688 -0.5864 -2.1949
  139SAPE  H18Z15217   3.279   2.155   8.921  0.1920 -0.8950 -0.4640
  140SAPE     N15218   0.043   4.398  10.852  0.5452  0.2407  0.0084
  140SAPE   HN115219   0.086   4.388  10.758 -1.0984  0.9958 -0.8743
  140SAPE   HN215220   0.099   4.467  10.907  2.7731 -2.2534  1.0505
  140SAPE   HN315221   0.047   4.299  10.883 -0.5070 -0.0019 -0.5687
  140SAPE   C1215222  -0.097   4.451  10.831  0.2676  0.3136  0.5276
  140SAPE  H12A15223  -0.080   4.532  10.757  0.5563 -0.7220 -0.5625
  140SAPE  H12B15224  -0.134   4.500  10.924 -0.9873  1.2097 -0.4185
  140SAPE   C1115225  -0.192   4.348  10.777 -0.4410  0.9170 -0.0206
  140SAPE  H11A15226  -0.293   4.392  10.765 -0.0030  1.7867 -0.5792
  140SAPE  H11B15227  -0.205   4.266  10.851 -1.1876 -0.4855 -1.6391
  140SAPE     P15228  -0.226   4.221  10.539 -0.0240 -0.1231  0.1956
  140SAPE   O1315229  -0.213   4.077  10.562 -0.6530 -0.1170 -0.0150
  140SAPE   O1415230  -0.364   4.279  10.541 -0.9422  0.1739  0.3038
  140SAPE   O1215231  -0.143   4.296  10.650  1.1754 -0.4659 -0.1355
  140SAPE   O1115232  -0.154   4.265  10.406  0.4760 -0.7633  0.4190
  140SAPE    C115233  -0.015   4.238  10.392 -0.0648 -0.1362  0.5543
  140SAPE    HA15234   0.048   4.325  10.421 -0.4812  0.3196  0.1166
  140SAPE    HB15235   0.027   4.149  10.443  2.9190  0.9430  0.1982
  140SAPE    C215236   0.006   4.214  10.236 -0.3259  0.1069 -0.2359
  140SAPE    HS15237   0.112   4.182  10.233 -0.0061  1.1227 -0.0044
  140SAPE   O2115238  -0.014   4.334  10.164 -0.0852  0.3186  0.4131
  140SAPE   C2115239   0.097   4.412  10.149  0.3744 -0.0847  0.0829
  140SAPE   O2215240   0.204   4.393  10.203  0.0108  0.4082 -0.0726
  140SAPE   C2215241   0.061   4.531  10.056 -0.8968  0.1549 -0.0244
  140SAPE   H2R15242   0.032   4.615  10.123  3.6305  0.4682  1.8839
  140SAPE   H2S15243   0.158   4.548  10.005 -1.5128 -0.9541 -1.6195
  140SAPE    C315244  -0.079   4.098  10.194  0.1685  0.0737  0.1145
  140SAPE    HX15245  -0.184   4.116  10.228  0.3586  1.3643  0.0559
  140SAPE    HY15246  -0.044   4.002  10.239 -0.0369 -0.5380 -0.9696
  140SAPE   O3115247  -0.067   4.083  10.051 -0.1003  0.2313  0.4936
  140SAPE   C3115248   0.038   4.020  10.007  0.3946 -0.0772 -0.2059
  140SAPE   O3215249   0.118   3.961  10.082  0.2666 -0.5253  0.7642
  140SAPE   C3215250   0.055   4.042   9.858 -0.4919 -0.4267 -0.5087
  140SAPE   H2X15251   0.114   4.136   9.842  1.0677 -1.4759 -1.1799
  140SAPE   H2Y15252  -0.053   4.048   9.832 -1.5817  1.7513  3.6380
  140SAPE   C2315253  -0.060   4.505   9.951 -0.3211 -0.1993 -0.6357
  140SAPE   H3R15254  -0.101   4.595   9.902 -1.5652  1.7893  3.5788
  140SAPE   H3S15255  -0.149   4.460  10.001  0.3316  0.3840  1.1587
  140SAPE   C2415256  -0.012   4.403   9.851 -0.1447  0.3292  0.0026
  140SAPE   H4R15257  -0.096   4.331   9.842 -1.6067  1.8717  0.5993
  140SAPE   H4S15258   0.083   4.361   9.891 -0.7455  0.1911  1.3268
  140SAPE   C2515259   0.017   4.461   9.715  0.2301 -0.2456 -0.4459
  140SAPE   H5R15260   0.111   4.515   9.702 -0.8864  1.4167 -2.1087
  140SAPE   C2615261  -0.066   4.456   9.610 -0.2167  0.6686 -0.4746
  140SAPE   H6R15262  -0.035   4.507   9.518  0.2155  0.1799 -0.6064
  140SAPE   C2715263  -0.198   4.383   9.597  0.1674 -0.0392  0.1929
  140SAPE   H7R15264  -0.240   4.355   9.696  3.1069  0.6913  1.7514
  140SAPE   H7S15265  -0.197   4.297   9.527 -0.2229  1.4059 -1.6651
  140SAPE   C2815266  -0.306   4.477   9.559  0.1220 -1.1534 -0.3717
  140SAPE   H8R15267  -0.346   4.534   9.644  2.1679 -1.0620  0.5814
  140SAPE   C2915268  -0.355   4.504   9.432  0.1709 -0.7438 -0.6099
  140SAPE   H9R15269  -0.442   4.569   9.418 -0.5450 -1.0716  1.8006
  140SAPE  C21015270  -0.312   4.431   9.313 -0.0409 -1.1724 -0.1059
  140SAPE  H10R15271  -0.403   4.422   9.249 -1.0664 -0.4622  1.2045
  140SAPE  H10S15272  -0.293   4.325   9.341  1.7755 -1.0139 -0.6476
  140SAPE  C21115273  -0.196   4.484   9.223 -0.3174 -1.0602  0.3913
  140SAPE  H11R15274  -0.097   4.475   9.270 -0.8942  0.5622  2.0256
  140SAPE  C21215275  -0.205   4.557   9.107  1.0790 -0.6386 -0.3463
  140SAPE  H12R15276  -0.112   4.579   9.053 -0.0065 -0.3495 -2.1782
  140SAPE  C21315277  -0.339   4.599   9.043 -0.3860 -0.1028 -0.1492
  140SAPE  H13R15278  -0.427   4.606   9.110 -0.8222  0.2341 -0.7413
  140SAPE  H13S15279  -0.365   4.528   8.961 -1.3836  0.5062 -0.3822
  140SAPE  C21415280  -0.329   4.720   8.957  0.2686  0.5414 -0.7944
  140SAPE  H14R15281  -0.391   4.808   8.982  0.5274  0.7348 -0.8336
  140SAPE  C21515282  -0.251   4.729   8.847  0.9590 -0.2599  0.4077
  140SAPE  H15R15283  -0.262   4.820   8.785 -0.6410  0.1005  1.1732
  140SAPE  C21615284  -0.160   4.628   8.786  0.8390 -0.3763 -0.6111
  140SAPE  H16R15285  -0.190   4.533   8.835  0.4658 -1.4307 -2.8077
  140SAPE  H16S15286  -0.055   4.638   8.822  1.0911 -0.5126 -1.2990
  140SAPE  C21715287  -0.182   4.612   8.634 -0.9813 -0.4619  0.3679
  140SAPE  H17R15288  -0.289   4.615   8.603 -0.7995  0.7252 -0.1986
  140SAPE  H17S15289  -0.132   4.517   8.605  2.7718  1.9917 -2.1001
  140SAPE  C21815290  -0.107   4.731   8.555 -0.0807 -0.2750 -0.1279
  140SAPE  H18R15291  -0.008   4.741   8.606 -0.3624  2.4394  0.0538
  140SAPE  H18S15292  -0.159   4.829   8.554 -0.3934 -0.4184 -2.2708
  140SAPE  C21915293  -0.077   4.694   8.407 -0.2530 -0.1417 -0.4128
  140SAPE  H19R15294  -0.012   4.604   8.406  1.7124  1.1534  1.2383
  140SAPE  H19S15295  -0.040   4.781   8.348 -1.9558  0.9404  0.0320
  140SAPE  C22015296  -0.206   4.658   8.326 -0.4265 -0.1538  0.0782
  140SAPE  H20R15297  -0.262   4.754   8.324  0.5260  0.4781 -3.6226
  140SAPE  H20S15298  -0.275   4.594   8.386 -2.5364 -0.7622 -2.7472
  140SAPE  H20T15299  -0.184   4.618   8.225 -1.2311 -0.8896  0.1789
  140SAPE   C3315300   0.138   3.936   9.787 -0.0511  0.2470 -0.6733
  140SAPE   H3X15301   0.085   3.840   9.769  0.9413 -0.6791  1.1369
  140SAPE   H3Y15302   0.220   3.909   9.856 -0.7837  1.6625  0.8108
  140SAPE   C3415303   0.181   3.984   9.651 -0.5382 -0.4877  0.5882
  140SAPE   H4X15304   0.237   3.912   9.589  0.4102 -0.1245  1.0026
  140SAPE   H4Y15305   0.253   4.062   9.685  2.1682 -3.0388  1.0414
  140SAPE   C3515306   0.064   4.047   9.572  0.1139  0.1222 -0.0204
  140SAPE   H5X15307   0.028   4.138   9.625 -0.0415  0.1433 -0.1585
  140SAPE   H5Y15308  -0.013   3.967   9.565  2.6187 -2.5109  0.7436
  140SAPE   C3615309   0.107   4.085   9.431 -0.0866  0.0189  0.4735
  140SAPE   H6X15310   0.153   3.991   9.394 -1.8543 -1.4179  1.7280
  140SAPE   H6Y15311   0.181   4.168   9.432  0.4725 -0.4118 -1.3008
  140SAPE   C3715312  -0.004   4.122   9.334  0.2653  0.2856  0.0332
  140SAPE   H7X15313  -0.053   4.216   9.367 -1.7704 -0.4320 -0.7695
  140SAPE   H7Y15314  -0.069   4.032   9.325 -0.4666  0.4760  2.5663
  140SAPE   C3815315   0.064   4.147   9.191  0.1192  0.1356  0.0653
  140SAPE   H8X15316   0.121   4.053   9.172  1.1150  0.7923 -0.2948
  140SAPE   H8Y15317   0.132   4.236   9.192 -0.9772  0.9941  0.1676
  140SAPE   C3915318  -0.037   4.171   9.086 -0.3950 -0.0846  0.4427
  140SAPE   H9X15319  -0.096   4.264   9.104 -2.7549 -0.8785 -2.3796
  140SAPE   H9Y15320  -0.091   4.074   9.079  0.5679 -0.5372 -1.2168
  140SAPE  C31015321   0.032   4.199   8.953  0.3998 -0.3387 -0.6729
  140SAPE  H10X15322   0.107   4.121   8.927  0.8646 -0.2228  0.2737
  140SAPE  H10Y15323   0.077   4.301   8.951  1.7616 -0.8840  0.5065
  140SAPE  C31115324  -0.081   4.207   8.839  0.4102  0.1386 -0.4738
  140SAPE  H11X15325  -0.150   4.287   8.872  0.4960 -0.1273  0.3821
  140SAPE  H11Y15326  -0.129   4.107   8.834 -1.0071  0.7924 -0.3473
  140SAPE  C31215327  -0.018   4.231   8.696 -0.1736  0.6597  0.1428
  140SAPE  H12X15328   0.058   4.154   8.675  0.5419  1.5312 -0.5349
  140SAPE  H12Y15329   0.031   4.331   8.693 -0.6679  0.9849  1.6601
  140SAPE  C31315330  -0.125   4.217   8.591 -0.0001  0.4521  0.5899
  140SAPE  H13X15331  -0.216   4.274   8.621 -0.8436 -0.0581 -0.8434
  140SAPE  H13Y15332  -0.151   4.109   8.592  2.3114 -0.2401 -1.9316
  140SAPE  C31415333  -0.087   4.251   8.449 -0.1500 -0.2537 -0.8170
  140SAPE  H14X15334   0.007   4.194   8.435  0.0969  0.2310 -1.1575
  140SAPE  H14Y15335  -0.061   4.359   8.457 -0.7770 -0.2460  2.5081
  140SAPE  C31515336  -0.204   4.240   8.348  0.2889 -0.6064  0.5082
  140SAPE  H15X15337  -0.288   4.306   8.377 -0.5238 -0.8105 -1.2599
  140SAPE  H15Y15338  -0.247   4.137   8.359 -1.3999 -0.1696 -1.3956
  140SAPE  C31615339  -0.161   4.260   8.194 -0.1479 -0.6404  0.3648
  140SAPE  H16X15340  -0.071   4.196   8.189 -0.3296 -0.8810  0.1581
  140SAPE  H16Y15341  -0.134   4.364   8.164 -0.5503 -0.9686 -1.2551
  140SAPE  C31715342  -0.265   4.221   8.091  0.6574  0.4956 -0.3039
  140SAPE  H17X15343  -0.349   4.294   8.089 -0.3031 -0.5626  0.4369
  140SAPE  H17Y15344  -0.316   4.128   8.124 -0.2182  1.2734  0.6121
  140SAPE  C31815345  -0.211   4.192   7.949  0.1589 -0.4768  0.0162
  140SAPE  H18X15346  -0.294   4.143   7.894  0.9327 -0.5967 -1.0637
  140SAPE  H18Y15347  -0.129   4.117   7.945 -0.0643 -0.6730 -2.8568
  140SAPE  H18Z15348  -0.185   4.278   7.884 -2.6953 -1.1053 -2.1322
  141SAPE     N15349   1.816   5.237  10.607  0.4131  0.7423  0.1070
  141SAPE   HN115350   1.714   5.230  10.627  0.4633 -1.4656 -0.1295
  141SAPE   HN215351   1.853   5.329  10.638 -0.9211  1.6036 -0.7514
  141SAPE   HN315352   1.826   5.243  10.504  3.0452  0.6437  0.2971
  141SAPE   C1215353   1.902   5.123  10.648 -0.1593 -0.3302 -0.8239
  141SAPE  H12A15354   1.893   5.037  10.579 -0.6914  1.1240 -2.6390
  141SAPE  H12B15355   1.867   5.081  10.745  2.2987  1.0988  0.8054
  141SAPE   C1115356   2.057   5.156  10.648 -0.2478  0.0514 -0.5081
  141SAPE  H11A15357   2.087   5.215  10.558  0.5636  0.6779  0.1622
  141SAPE  H11B15358   2.122   5.066  10.637 -0.9900 -0.4999 -0.4978
  141SAPE     P15359   2.228   5.219  10.845 -0.5422  0.0812  0.2298
  141SAPE   O1315360   2.266   5.354  10.889  0.0857  0.1078  0.2358
  141SAPE   O1415361   2.230   5.109  10.942  0.3351  0.0561  0.1710
  141SAPE   O1215362   2.093   5.235  10.764  0.2591 -0.0504  0.0227
  141SAPE   O1115363   2.334   5.185  10.735 -0.0646  0.1926 -0.3846
  141SAPE    C115364   2.415   5.063  10.740  0.4060 -0.2044  0.6710
  141SAPE    HA15365   2.507   5.091  10.796  1.3670 -1.6316 -0.1199
  141SAPE    HB15366   2.364   4.972  10.778  0.4334  0.4576  2.3649
  141SAPE    C215367   2.471   5.030  10.600  0.7735 -0.1410 -0.0922
  141SAPE    HS15368   2.524   5.125  10.577 -1.2129  0.8327 -0.9669
  141SAPE   O2115369   2.352   5.020  10.512  0.3277  0.4399 -0.2446
  141SAPE   C2115370   2.372   5.089  10.401 -0.6218  0.1752  0.7341
  141SAPE   O2215371   2.480   5.120  10.355  0.2285  0.2203 -0.1688
  141SAPE   C2215372   2.243   5.095  10.315  0.3691 -0.7276 -0.6485
  141SAPE   H2R15373   2.180   5.007  10.341 -0.2520  0.3568  1.8556
  141SAPE   H2S15374   2.185   5.179  10.359 -1.5773 -1.8469 -0.9581
  141SAPE    C315375   2.573   4.913  10.594 -0.6723  0.7879  0.5454
  141SAPE    HX15376   2.526   4.823  10.638  0.1591  0.0795  0.0450
  141SAPE    HY15377   2.653   4.936  10.667 -3.7787  1.2682  4.0641
  141SAPE   O3115378   2.618   4.880  10.461 -0.1928  0.5971  0.1476
  141SAPE   C3115379   2.718   4.951  10.400  1.0525  0.2540 -0.4244
  141SAPE   O3215380   2.767   5.053  10.450 -0.2050  0.5263 -0.0590
  141SAPE   C3215381   2.757   4.877  10.269 -0.4235  0.1012  0.0113
  141SAPE   H2X15382   2.689   4.899  10.184 -0.2152  0.2512 -0.1166
  141SAPE   H2Y15383   2.763   4.768  10.292  0.3855  0.1517  0.0900
  141SAPE   C2315384   2.272   5.113  10.164  0.2648 -0.1790  0.0081
  141SAPE   H3R15385   2.351   5.191  10.152 -1.2787  1.2668 -1.4291
  141SAPE   H3S15386   2.183   5.151  10.110  0.8755  0.4661 -0.5736
  141SAPE   C2415387   2.315   4.974  10.091 -0.1622 -0.1127  0.5746
  141SAPE   H4R15388   2.406   4.949  10.149  0.1820  1.7902  0.8937
  141SAPE   H4S15389   2.338   5.001   9.986 -1.8090  2.7786  0.8468
  141SAPE   C2515390   2.211   4.866  10.093  0.0143 -0.4614 -0.1097
  141SAPE   H5R15391   2.181   4.831  10.193  1.1791  0.0182  0.4286
  141SAPE   C2615392   2.120   4.847   9.997  0.0801 -0.1173 -0.3972
  141SAPE   H6R15393   2.056   4.759   9.992  0.6853 -0.5204 -1.1438
  141SAPE   C2715394   2.123   4.919   9.861 -0.3428  0.8075 -0.1357
  141SAPE   H7R15395   2.140   5.028   9.876  0.9402  0.3387  2.4547
  141SAPE   H7S15396   2.022   4.909   9.816  0.7480  1.3208 -2.8652
  141SAPE   C2815397   2.209   4.855   9.752 -0.4261 -0.5986 -0.3946
  141SAPE   H8R15398   2.268   4.766   9.777 -2.0286 -2.0005 -1.3571
  141SAPE   C2915399   2.233   4.921   9.627 -0.3883 -0.7732 -0.2398
  141SAPE   H9R15400   2.296   4.864   9.556 -1.6758  0.0045 -2.0737
  141SAPE  C21015401   2.187   5.053   9.571  0.2710 -0.7586 -0.1335
  141SAPE  H10R15402   2.099   5.090   9.628  0.3531 -0.4753 -0.1886
  141SAPE  H10S15403   2.167   5.048   9.462 -2.5713  0.7516  0.2050
  141SAPE  C21115404   2.303   5.145   9.595 -0.3245 -0.4109 -0.7533
  141SAPE  H11R15405   2.320   5.165   9.702 -1.6798  1.1614 -0.7912
  141SAPE  C21215406   2.381   5.205   9.504  0.2179  0.3220 -0.0883
  141SAPE  H12R15407   2.454   5.271   9.554 -1.0773  1.3673  0.4801
  141SAPE  C21315408   2.367   5.191   9.355  0.4552 -0.0131 -0.9185
  141SAPE  H13R15409   2.311   5.101   9.322  0.4891 -0.3730 -0.0377
  141SAPE  H13S15410   2.464   5.180   9.302  0.5997  1.5618 -1.0399
  141SAPE  C21415411   2.309   5.321   9.306 -0.4229 -0.1538 -0.8842
  141SAPE  H14R15412   2.218   5.354   9.359 -0.5524  0.9704 -1.7704
  141SAPE  C21515413   2.350   5.379   9.190 -0.1390  0.4265 -0.3383
  141SAPE  H15R15414   2.317   5.479   9.158 -0.9233 -0.7777 -3.7053
  141SAPE  C21615415   2.454   5.321   9.100 -0.2833 -0.3754  0.6010
  141SAPE  H16R15416   2.454   5.211   9.087 -0.3758 -0.3762  0.6129
  141SAPE  H16S15417   2.556   5.339   9.141  0.7624 -0.7713 -1.6547
  141SAPE  C21715418   2.448   5.389   8.959  0.0539  0.2327 -0.7508
  141SAPE  H17R15419   2.448   5.498   8.980 -1.0253 -0.0192  0.6995
  141SAPE  H17S15420   2.356   5.366   8.899  0.4317  1.6176 -1.9202
  141SAPE  C21815421   2.579   5.380   8.875 -0.0551  0.3247 -0.1136
  141SAPE  H18R15422   2.606   5.272   8.872 -0.0992  0.1210  3.2787
  141SAPE  H18S15423   2.658   5.432   8.933 -0.5101  1.4863 -0.5130
  141SAPE  C21915424   2.576   5.442   8.739 -0.7218 -0.6887 -0.2031
  141SAPE  H19R15425   2.558   5.548   8.766  0.4178 -0.0511 -1.7867
  141SAPE  H19S15426   2.494   5.412   8.671 -0.8150  1.3833 -1.0662
  141SAPE  C22015427   2.709   5.416   8.665 -0.0960  0.0634  0.1436
  141SAPE  H20R15428   2.723   5.473   8.571  1.1583 -1.3815 -0.5979
  141SAPE  H20S15429   2.727   5.308   8.644 -0.9408 -0.1120  0.2886
  141SAPE  H20T15430   2.788   5.441   8.740 -0.8949 -0.6129  1.2440
  141SAPE   C3315431   2.896   4.935  10.238  0.1212  0.0052  0.1259
  141SAPE   H3X15432   2.972   4.917  10.317 -1.2500 -1.8674  1.0916
  141SAPE   H3Y15433   2.898   5.045  10.221 -0.2694  0.0535  0.3835
  141SAPE   C3415434   2.958   4.864  10.115 -0.6212  0.4103  0.6267
  141SAPE   H4X15435   2.876   4.877  10.041  0.5446 -0.0559 -0.8033
  141SAPE   H4Y15436   2.975   4.757  10.143  1.6140  0.5321 -0.0652
  141SAPE   C3515437   3.093   4.930  10.077 -0.3141  0.0693 -0.2232
  141SAPE   H5X15438   3.177   4.922  10.148  0.2739  0.6845 -0.8307
  141SAPE   H5Y15439   3.088   5.041  10.076  0.3517  0.1015 -1.1453
  141SAPE   C3615440   3.135   4.898   9.933 -0.2228 -0.0735  0.1516
  141SAPE   H6X15441   3.212   4.969   9.896 -1.0178  1.0011  0.5059
  141SAPE   H6Y15442   3.048   4.905   9.864 -0.5035 -0.9566  0.3960
  141SAPE   C3715443   3.198   4.762   9.917 -0.1679  0.5952 -0.2079
  141SAPE   H7X15444   3.126   4.677   9.915 -1.3950  1.6183 -0.7900
  141SAPE   H7Y15445   3.264   4.748  10.005 -0.6515 -0.3884  0.0075
  141SAPE   C3815446   3.275   4.748   9.790  0.0497 -0.1294 -0.2334
  141SAPE   H8X15447   3.353   4.824   9.768  1.2303 -0.7111  1.7408
  141SAPE   H8Y15448   3.213   4.738   9.698  3.6871 -2.9333 -2.6977
  141SAPE   C3915449   3.360   4.616   9.800 -0.2870  0.7676  0.6807
  141SAPE   H9X15450   3.281   4.538   9.804 -2.0063  2.0744 -2.8693
  141SAPE   H9Y15451   3.422   4.611   9.892  1.7214 -0.7030 -0.6736
  141SAPE  C31015452   3.446   4.578   9.672 -0.8110 -0.6181  0.5528
  141SAPE  H10X15453   3.372   4.598   9.591 -3.4051  1.1782  3.1423
  141SAPE  H10Y15454   3.469   4.469   9.676 -1.1099 -0.6750  0.7435
  141SAPE  C31115455   3.570   4.666   9.657  0.6786 -0.1855  0.6391
  141SAPE  H11X15456   3.629   4.656   9.750 -1.2158 -1.3312  1.7735
  141SAPE  H11Y15457   3.542   4.773   9.653  1.5136 -0.0011 -1.0704
  141SAPE  C31215458   3.671   4.624   9.539  0.4512  0.1646 -0.0480
  141SAPE  H12X15459   3.649   4.521   9.506  0.0900  0.3929 -0.5306
  141SAPE  H12Y15460   3.777   4.636   9.570  1.0328 -1.2297 -1.3761
  141SAPE  C31315461   3.656   4.718   9.418 -0.2890 -0.2586  0.4393
  141SAPE  H13X15462   3.736   4.698   9.344  0.7814  0.3129  1.4192
  141SAPE  H13Y15463   3.681   4.815   9.467  0.0701 -0.5456  0.8236
  141SAPE  C31415464   3.516   4.710   9.354 -0.3735 -0.0778  0.0369
  141SAPE  H14X15465   3.435   4.736   9.426  0.4296 -0.1332  0.9882
  141SAPE  H14Y15466   3.488   4.609   9.316 -2.7201  0.0170  1.3227
  141SAPE  C31515467   3.483   4.809   9.246 -0.0062  0.3415 -1.2035
  141SAPE  H15X15468   3.499   4.909   9.291  0.8945 -0.4027  0.2061
  141SAPE  H15Y15469   3.375   4.801   9.221 -0.2764  1.5212 -0.5049
  141SAPE  C31615470   3.562   4.800   9.115  0.3464 -0.0567 -0.1739
  141SAPE  H16X15471   3.541   4.708   9.057 -2.4900  2.5029 -3.7367
  141SAPE  H16Y15472   3.671   4.814   9.130  0.5112 -0.1780 -1.1782
  141SAPE  C31715473   3.532   4.914   9.012  0.6696  0.0935 -0.3827
  141SAPE  H17X15474   3.600   4.895   8.926 -0.4039 -2.4096 -0.7675
  141SAPE  H17Y15475   3.560   5.012   9.058 -3.9914  1.7262 -0.5501
  141SAPE  C31815476   3.387   4.911   8.974  0.1546  1.1271  0.0937
  141SAPE  H18X15477   3.351   4.983   8.898 -0.7110 -0.7210 -1.3328
  141SAPE  H18Y15478   3.327   4.927   9.066 -0.3473 -1.6646  0.3525
  141SAPE  H18Z15479   3.363   4.810   8.934  0.8207  1.3374 -0.8710
  142SAPE     N15480   1.769   3.746  10.403 -0.4841 -1.4925  0.6810
  142SAPE   HN115481   1.819   3.659  10.376  0.4509 -0.2258 -1.9313
  142SAPE   HN215482   1.724   3.751  10.497  0.2937  0.5257  1.0019
  142SAPE   HN315483   1.682   3.755  10.348 -2.6725 -0.8262  3.9366
  142SAPE   C1215484   1.869   3.860  10.382 -0.7049  0.4546 -0.2063
  142SAPE  H12A15485   1.836   3.943  10.447  0.4680  0.4400  0.4257
  142SAPE  H12B15486   1.866   3.889  10.274  0.3819 -1.8666 -0.9406
  142SAPE   C1115487   2.014   3.821  10.421  0.3042  0.8905 -0.4498
  142SAPE  H11A15488   2.075   3.913  10.419 -0.4613  1.4388  0.4949
  142SAPE  H11B15489   2.060   3.742  10.357  0.7620 -2.3038  3.4040
  142SAPE     P15490   2.021   3.840  10.690 -0.0375 -0.2717  0.7122
  142SAPE   O1315491   1.899   3.924  10.701 -0.3489  0.2162 -0.0967
  142SAPE   O1415492   2.052   3.745  10.795  0.2238 -0.4989  0.1552
  142SAPE   O1215493   2.010   3.772  10.552  0.3578  0.1119  0.8025
  142SAPE   O1115494   2.140   3.944  10.681  0.1957  0.4028 -0.6265
  142SAPE    C115495   2.269   3.883  10.647  0.7367 -0.3297 -0.0447
  142SAPE    HA15496   2.318   3.863  10.744 -1.9236  3.0148  2.2210
  142SAPE    HB15497   2.258   3.789  10.588 -3.7225 -0.4768  0.6982
  142SAPE    C215498   2.352   3.985  10.566 -0.0324 -0.4384 -0.8067
  142SAPE    HS15499   2.350   4.075  10.631 -1.4585 -0.2493 -1.0793
  142SAPE   O2115500   2.282   4.014  10.447 -1.2191  0.5629 -0.1199
  142SAPE   C2115501   2.327   4.116  10.371 -0.1500  0.3733 -0.3677
  142SAPE   O2215502   2.418   4.193  10.390  0.2410  0.3897  0.1773
  142SAPE   C2215503   2.252   4.117  10.245  0.1178  0.9545 -0.1514
  142SAPE   H2R15504   2.196   4.021  10.246  0.0466  0.9823  1.5313
  142SAPE   H2S15505   2.172   4.194  10.252 -2.8221 -1.8195 -0.5492
  142SAPE    C315506   2.498   3.939  10.548 -0.0584  1.0376 -0.6971
  142SAPE    HX15507   2.536   3.889  10.639 -2.1391 -1.0832 -0.9008
  142SAPE    HY15508   2.572   4.022  10.549  1.3053 -0.1338  0.5544
  142SAPE   O3115509   2.513   3.864  10.426  0.2994  0.6156 -0.4902
  142SAPE   C3115510   2.521   3.728  10.432 -0.2039 -0.2012  0.1329
  142SAPE   O3215511   2.513   3.657  10.530 -0.7033  0.4764 -0.0716
  142SAPE   C3215512   2.537   3.688  10.281 -0.2480  1.1823  0.1711
  142SAPE   H2X15513   2.590   3.763  10.219  1.0724 -0.0157 -0.2066
  142SAPE   H2Y15514   2.436   3.685  10.233  0.6365  2.9274 -1.9851
  142SAPE   C2315515   2.354   4.136  10.133 -1.2633  0.5595  0.2323
  142SAPE   H3R15516   2.420   4.046  10.132 -1.8500 -0.0217  3.2559
  142SAPE   H3S15517   2.431   4.214  10.149 -2.2001  1.5678 -0.0456
  142SAPE   C2415518   2.282   4.174   9.993  0.5302  1.1109 -0.0592
  142SAPE   H4R15519   2.204   4.252  10.008 -0.3122  0.9716 -3.0833
  142SAPE   H4S15520   2.240   4.074   9.971 -0.3918  1.6114 -0.6467
  142SAPE   C2515521   2.376   4.211   9.883  0.4701  0.4306  0.0771
  142SAPE   H5R15522   2.483   4.211   9.910  0.5498  1.3938 -0.1887
  142SAPE   C2615523   2.334   4.237   9.761 -0.7022 -0.1427 -0.1332
  142SAPE   H6R15524   2.409   4.275   9.690 -0.3042 -0.3812  0.1538
  142SAPE   C2715525   2.188   4.235   9.710 -0.9617  0.3644 -0.1414
  142SAPE   H7R15526   2.164   4.328   9.653 -0.0794  0.5943 -0.1566
  142SAPE   H7S15527   2.113   4.259   9.788  1.5682  0.9497  2.2611
  142SAPE   C2815528   2.172   4.104   9.636  0.9542  0.5478  0.3584
  142SAPE   H8R15529   2.200   4.010   9.686  1.0226 -0.1352 -0.9264
  142SAPE   C2915530   2.131   4.089   9.508  0.0677 -0.6638 -0.5333
  142SAPE   H9R15531   2.109   3.986   9.477  1.2900 -1.2607  0.4770
  142SAPE  C21015532   2.083   4.199   9.418  0.2371  0.4452  0.4540
  142SAPE  H10R15533   2.163   4.231   9.348 -0.2449 -1.3480 -0.9984
  142SAPE  H10S15534   2.052   4.282   9.485  1.4438  0.4134  1.0835
  142SAPE  C21115535   1.964   4.157   9.327  0.0820  0.0846  0.2504
  142SAPE  H11R15536   1.876   4.122   9.385  0.5829 -0.4426  0.7043
  142SAPE  C21215537   1.959   4.175   9.195 -0.5646 -0.1426 -0.2747
  142SAPE  H12R15538   1.874   4.141   9.134 -0.1451 -2.8943  0.5364
  142SAPE  C21315539   2.064   4.236   9.103 -0.2358 -0.8589 -0.2004
  142SAPE  H13R15540   2.108   4.318   9.164  2.6639 -2.5001  0.1123
  142SAPE  H13S15541   2.019   4.278   9.011  2.9599  1.1594 -1.0322
  142SAPE  C21415542   2.184   4.150   9.083  0.6503  0.4184 -1.0257
  142SAPE  H14R15543   2.239   4.123   9.174 -0.3861  0.8613 -0.2395
  142SAPE  C21515544   2.253   4.127   8.969 -0.9868 -0.2385 -0.6599
  142SAPE  H15R15545   2.349   4.074   8.978 -0.5496  0.7188  0.8291
  142SAPE  C21615546   2.225   4.174   8.830 -0.1896  0.7695  0.4214
  142SAPE  H16R15547   2.304   4.249   8.809 -2.7777  3.8705  0.9236
  142SAPE  H16S15548   2.135   4.239   8.818 -0.8883 -0.1893  0.3747
  142SAPE  C21715549   2.214   4.061   8.724  0.4606 -0.0462  0.2290
  142SAPE  H17R15550   2.117   4.011   8.744  0.1485 -0.6309 -2.3231
  142SAPE  H17S15551   2.282   3.976   8.741  0.1703 -0.2387  0.4319
  142SAPE  C21815552   2.245   4.102   8.575 -0.1629  0.1321  0.7473
  142SAPE  H18R15553   2.328   4.035   8.543  0.4476  1.2573 -0.1084
  142SAPE  H18S15554   2.288   4.204   8.568 -1.6399  0.6772 -0.9459
  142SAPE  C21915555   2.138   4.098   8.468  0.9307 -0.4438  0.7180
  142SAPE  H19R15556   2.183   4.155   8.384 -0.2102  0.6358  0.8090
  142SAPE  H19S15557   2.050   4.152   8.510 -1.4555 -0.9165 -3.1595
  142SAPE  C22015558   2.101   3.958   8.418 -0.1891 -0.1792  0.4031
  142SAPE  H20R15559   2.019   3.964   8.344 -0.0062  0.8828  0.2733
  142SAPE  H20S15560   2.056   3.905   8.505 -0.2377  1.8661  1.6855
  142SAPE  H20T15561   2.184   3.894   8.380  0.4042  0.6874  0.2132
  142SAPE   C3315562   2.601   3.550  10.276 -0.8786  0.4262 -0.1710
  142SAPE   H3X15563   2.537   3.480  10.334  1.9492  0.1479  2.9684
  142SAPE   H3Y15564   2.698   3.555  10.330 -1.2250  1.2522  0.3933
  142SAPE   C3415565   2.612   3.487  10.133  0.7304 -0.6860 -0.5887
  142SAPE   H4X15566   2.647   3.564  10.060 -2.3361  1.3203 -0.1222
  142SAPE   H4Y15567   2.507   3.472  10.102 -0.2916  0.7983  1.8268
  142SAPE   C3515568   2.677   3.348  10.127 -0.1915 -0.0335  0.4655
  142SAPE   H5X15569   2.596   3.278  10.157  0.0083 -1.4121 -1.9558
  142SAPE   H5Y15570   2.760   3.342  10.201  0.0831 -0.8523  0.1101
  142SAPE   C3615571   2.728   3.299   9.992  0.2379  0.3637  0.0599
  142SAPE   H6X15572   2.807   3.365   9.952  1.9886  0.1907  2.9361
  142SAPE   H6Y15573   2.642   3.294   9.921 -0.5077 -2.7356  0.9820
  142SAPE   C3715574   2.769   3.153  10.000 -0.0885 -0.0456 -0.6315
  142SAPE   H7X15575   2.679   3.095  10.031 -0.6733  1.6440  0.9495
  142SAPE   H7Y15576   2.855   3.136  10.068 -1.5697  2.6905  2.1860
  142SAPE   C3815577   2.821   3.104   9.865  0.5605  0.3803  0.0906
  142SAPE   H8X15578   2.891   3.180   9.825  2.3457 -0.8444  0.7223
  142SAPE   H8Y15579   2.727   3.096   9.806  1.5339 -0.4062 -1.4135
  142SAPE   C3915580   2.875   2.956   9.871  0.3648 -0.0762 -0.3384
  142SAPE   H9X15581   2.794   2.880   9.880 -0.4351  0.8009 -0.0372
  142SAPE   H9Y15582   2.945   2.945   9.957 -0.3795  2.1032  0.6061
  142SAPE  C31015583   2.952   2.922   9.747 -0.0466  0.5588  0.1665
  142SAPE  H10X15584   3.021   2.835   9.752 -3.1379 -2.0925  0.0583
  142SAPE  H10Y15585   3.020   3.007   9.725  0.9173 -0.5091 -1.1819
  142SAPE  C31115586   2.870   2.897   9.616  0.1503  0.1029 -0.3139
  142SAPE  H11X15587   2.801   2.983   9.599  0.0076  0.2648  0.9594
  142SAPE  H11Y15588   2.808   2.806   9.625 -0.2921  0.5601  1.7576
  142SAPE  C31215589   2.959   2.880   9.489  1.6451  0.0659 -0.2805
  142SAPE  H12X15590   3.013   2.782   9.493  1.3467 -0.2169 -2.1489
  142SAPE  H12Y15591   3.026   2.968   9.479  0.2565  0.9443 -2.4404
  142SAPE  C31315592   2.879   2.869   9.358  0.5696  0.0592 -0.6486
  142SAPE  H13X15593   2.794   2.941   9.360  0.6321  0.1444 -1.1305
  142SAPE  H13Y15594   2.834   2.767   9.352  3.3065 -1.3729  0.9922
  142SAPE  C31415595   2.966   2.882   9.230  0.5138  0.5514  0.6340
  142SAPE  H14X15596   3.030   2.791   9.231 -1.8502 -1.2427  2.6765
  142SAPE  H14Y15597   3.024   2.976   9.245  1.7844 -0.1082  0.0332
  142SAPE  C31515598   2.885   2.893   9.100 -0.3785  0.2674 -0.0796
  142SAPE  H15X15599   2.818   2.982   9.100  0.7075  1.1663 -2.6768
  142SAPE  H15Y15600   2.804   2.816   9.090 -0.9678  0.9671 -0.8541
  142SAPE  C31615601   2.971   2.880   8.968 -0.0975  0.7963 -0.1522
  142SAPE  H16X15602   3.046   2.801   8.991 -0.9548 -0.1969 -0.6649
  142SAPE  H16Y15603   3.040   2.965   8.952  0.3690  0.3180 -0.7209
  142SAPE  C31715604   2.890   2.830   8.847 -0.6149  0.5876 -0.5630
  142SAPE  H17X15605   2.818   2.912   8.826 -0.7231  0.9966  1.2409
  142SAPE  H17Y15606   2.842   2.734   8.875  0.0491  0.0746 -1.1578
  142SAPE  C31815607   2.990   2.815   8.737  0.1984  0.5134  0.2329
  142SAPE  H18X15608   2.939   2.773   8.648  2.4032 -0.2942 -0.7198
  142SAPE  H18Y15609   3.061   2.733   8.763 -2.7349 -1.8762  1.2634
  142SAPE  H18Z15610   3.037   2.913   8.712  0.4178  0.3668  0.0685
  143SAPE     N15611   3.926   4.878  11.075 -0.1055 -0.3471 -0.9985
  143SAPE   HN115612   3.894   4.801  11.137 -1.7809 -1.2943 -2.9368
  143SAPE   HN215613   4.006   4.930  11.117 -1.3768  1.5327 -0.7694
  143SAPE   HN315614   3.847   4.942  11.056  0.0189  0.1135 -0.0533
  143SAPE   C1215615   3.963   4.837  10.944  0.0862  0.9393 -0.1385
  143SAPE  H12A15616   4.059   4.786  10.969 -0.2516  0.4657  0.2135
  143SAPE  H12B15617   3.985   4.927  10.882 -1.5134  1.3069 -0.2263
  143SAPE   C1115618   3.854   4.750  10.886  0.4424  0.0269 -0.8213
  143SAPE  H11A15619   3.889   4.732  10.783 -0.2266  0.7852 -1.1879
  143SAPE  H11B15620   3.769   4.819  10.870  0.5828  0.0304 -1.5899
  143SAPE     P15621   3.894   4.505  10.992 -0.0658  0.3330 -0.1021
  143SAPE   O1315622   4.023   4.541  11.057 -0.2761  0.6994  0.2030
  143SAPE   O1415623   3.817   4.393  11.056  0.2270  0.0618 -0.8293
  143SAPE   O1215624   3.816   4.641  10.976 -0.0517  0.0491 -0.6308
  143SAPE   O1115625   3.926   4.463  10.847  0.4362 -0.4461  0.2083
  143SAPE    C115626   3.859   4.357  10.785  0.6688 -0.1028  0.4145
  143SAPE    HA15627   3.878   4.260  10.836 -0.3968 -0.3448  0.3714
  143SAPE    HB15628   3.751   4.379  10.790  0.7513  0.3788  0.0690
  143SAPE    C215629   3.911   4.337  10.644 -0.7542  0.1008  0.6016
  143SAPE    HS15630   4.010   4.288  10.647 -1.3753 -1.5568 -2.0747
  143SAPE   O2115631   3.918   4.467  10.583  0.1455 -0.8882  0.5294
  143SAPE   C2115632   4.021   4.502  10.513 -0.6851 -0.5004  0.0289
  143SAPE   O2215633   4.124   4.438  10.508  0.1938  0.7881 -0.4089
  143SAPE   C2215634   3.995   4.628  10.426 -0.1969 -0.5801  0.3432
  143SAPE   H2R15635   3.887   4.655  10.421  0.3560  1.7638 -0.1787
  143SAPE   H2S15636   4.044   4.705  10.489  0.2692  1.1967 -2.0501
  143SAPE    C315637   3.830   4.235  10.552 -0.3718 -0.6076 -0.3829
  143SAPE    HX15638   3.721   4.255  10.559 -0.4607 -1.3052  0.4123
  143SAPE    HY15639   3.842   4.139  10.607 -0.2844 -0.2244  0.2772
  143SAPE   O3115640   3.862   4.228  10.412  1.2248  0.7068 -0.0231
  143SAPE   C3115641   3.908   4.111  10.368 -0.7703 -0.4752  0.1353
  143SAPE   O3215642   3.926   4.012  10.436 -0.0023  0.3481 -0.8322
  143SAPE   C3215643   3.965   4.129  10.226 -0.2395 -0.0718 -0.2718
  143SAPE   H2X15644   4.011   4.229  10.210  1.4078 -0.6073  0.8043
  143SAPE   H2Y15645   3.878   4.128  10.158  1.0434  1.5805 -2.0740
  143SAPE   C2315646   4.057   4.618  10.283 -0.3910  0.1453 -0.1473
  143SAPE   H3R15647   3.999   4.549  10.218 -1.8981  0.5338  0.7522
  143SAPE   H3S15648   4.157   4.572  10.302 -0.9333 -2.4570 -2.7701
  143SAPE   C2415649   4.057   4.762  10.214  0.9500  0.6260 -0.7538
  143SAPE   H4R15650   4.119   4.753  10.123  0.7333 -0.2872 -0.8235
  143SAPE   H4S15651   4.107   4.832  10.285  1.0823 -0.2934  0.0884
  143SAPE   C2515652   3.911   4.795  10.180  0.1937  0.6705 -0.1737
  143SAPE   H5R15653   3.837   4.785  10.261  0.7937  0.0779  0.3228
  143SAPE   C2615654   3.863   4.838  10.061 -0.0138 -0.1469  0.8598
  143SAPE   H6R15655   3.763   4.884  10.061 -0.0998 -0.3183  0.3167
  143SAPE   C2715656   3.937   4.867   9.936 -0.2038  0.0380  0.7342
  143SAPE   H7R15657   4.012   4.946   9.959  0.1119 -0.7697  2.6407
  143SAPE   H7S15658   3.857   4.907   9.869  0.0860 -0.7966 -0.1418
  143SAPE   C2815659   4.009   4.760   9.857 -0.7696  0.2393 -0.2534
  143SAPE   H8R15660   4.048   4.672   9.911  4.3283  0.8019 -2.4484
  143SAPE   C2915661   4.047   4.777   9.725  0.2340 -0.3965  0.2079
  143SAPE   H9R15662   4.083   4.694   9.662  0.8444  1.5594 -2.1777
  143SAPE  C21015663   4.000   4.898   9.638  0.3578  0.1821  0.1594
  143SAPE  H10R15664   3.979   4.988   9.700 -2.6076 -0.7568  0.6903
  143SAPE  H10S15665   3.907   4.867   9.586  1.2624 -0.7761 -0.9445
  143SAPE  C21115666   4.109   4.927   9.538  0.0852  0.1104 -0.2216
  143SAPE  H11R15667   4.188   4.997   9.569  0.3097 -1.1104  2.2025
  143SAPE  C21215668   4.132   4.861   9.420 -0.5076 -0.7900 -0.1274
  143SAPE  H12R15669   4.220   4.891   9.362  1.2912 -4.7852  0.1950
  143SAPE  C21315670   4.059   4.742   9.362  0.2977  0.2897 -0.1452
  143SAPE  H13R15671   3.972   4.717   9.427  0.8735  1.7078  1.2321
  143SAPE  H13S15672   4.121   4.650   9.358 -0.9713 -0.5601 -1.3255
  143SAPE  C21415673   4.028   4.777   9.221  0.2361 -0.2196 -0.1321
  143SAPE  H14R15674   4.006   4.885   9.217  1.6161  0.1110  0.4562
  143SAPE  C21515675   3.996   4.702   9.113 -0.3063 -0.2812 -0.4169
  143SAPE  H15R15676   3.981   4.744   9.012 -1.6046 -0.3043 -0.2571
  143SAPE  C21615677   3.981   4.554   9.115 -0.6429  0.2083  0.6672
  143SAPE  H16R15678   4.030   4.489   9.191 -0.2572 -1.5604 -1.0312
  143SAPE  H16S15679   4.033   4.517   9.024  0.6167 -1.3862  1.9595
  143SAPE  C21715680   3.828   4.512   9.112 -0.4673 -0.0566  0.0645
  143SAPE  H17R15681   3.765   4.580   9.051 -0.4708  0.2975  0.4557
  143SAPE  H17S15682   3.782   4.540   9.209 -2.1420  0.1189 -0.7445
  143SAPE  C21815683   3.810   4.369   9.066  0.1182 -0.0231  0.4242
  143SAPE  H18R15684   3.820   4.299   9.152 -0.8840  0.4909  0.9727
  143SAPE  H18S15685   3.887   4.348   8.989 -1.1005 -0.1556 -0.8011
  143SAPE  C21915686   3.680   4.338   8.990  0.3116 -0.6370 -0.2213
  143SAPE  H19R15687   3.688   4.242   8.933 -2.2479 -1.5753  0.8272
  143SAPE  H19S15688   3.669   4.414   8.911 -2.1395 -1.0981 -0.3985
  143SAPE  C22015689   3.553   4.345   9.077 -0.2964  0.6457 -0.6350
  143SAPE  H20R15690   3.540   4.448   9.117 -0.0556 -0.6572  3.2483
  143SAPE  H20S15691   3.563   4.280   9.167 -1.3645  1.0112 -0.2308
  143SAPE  H20T15692   3.461   4.305   9.030  0.7568 -0.1510 -2.1098
  143SAPE   C3315693   4.063   4.020  10.182 -0.4550  0.8120 -0.5050
  143SAPE   H3X15694   4.032   3.914  10.183  0.8724  0.4080 -0.8409
  143SAPE   H3Y15695   4.151   4.030  10.250 -3.0649  0.4672  3.2122
  143SAPE   C3415696   4.104   4.033  10.036 -0.8220  0.3112 -0.2950
  143SAPE   H4X15697   4.166   4.124  10.021  0.5147 -0.6733 -0.9320
  143SAPE   H4Y15698   4.020   4.027   9.964  0.7716 -2.6976 -2.1335
  143SAPE   C3515699   4.197   3.919  10.002  0.1755  0.3622  0.3179
  143SAPE   H5X15700   4.134   3.827   9.995 -0.9275  1.0589  0.7588
  143SAPE   H5Y15701   4.288   3.897  10.062  0.1593 -1.3519 -0.2147
  143SAPE   C3615702   4.239   3.925   9.855  0.6403  0.3952  0.6978
  143SAPE   H6X15703   4.333   3.865   9.848 -0.4893 -1.2590 -1.1396
  143SAPE   H6Y15704   4.259   4.033   9.839 -0.1834  0.4045 -0.3599
  143SAPE   C3715705   4.134   3.858   9.753 -0.2030 -0.2618 -0.6838
  143SAPE   H7X15706   4.039   3.916   9.761 -0.3575 -0.7737  2.6614
  143SAPE   H7Y15707   4.108   3.759   9.797  0.0033 -0.0811 -0.1413
  143SAPE   C3815708   4.195   3.846   9.605 -0.5338  0.0705 -0.2849
  143SAPE   H8X15709   4.290   3.790   9.616 -0.9316 -0.5107  0.2476
  143SAPE   H8Y15710   4.233   3.948   9.585 -1.6219  0.5179 -0.1908
  143SAPE   C3915711   4.096   3.804   9.499  0.3132 -0.1802 -0.3321
  143SAPE   H9X15712   4.021   3.885   9.483  0.9037 -0.0809 -3.0960
  143SAPE   H9Y15713   4.042   3.713   9.532  2.6194 -1.4662  0.0505
  143SAPE  C31015714   4.176   3.786   9.363  0.0656 -0.0397 -0.1478
  143SAPE  H10X15715   4.240   3.696   9.366 -0.1661 -0.2005  0.0593
  143SAPE  H10Y15716   4.241   3.875   9.350  0.4420 -0.5469 -1.9623
  143SAPE  C31115717   4.089   3.764   9.242 -0.7669 -1.3013  0.4908
  143SAPE  H11X15718   4.020   3.678   9.254 -1.0803 -1.5385 -2.3095
  143SAPE  H11Y15719   4.147   3.734   9.152 -1.8304  0.0567 -0.6828
  143SAPE  C31215720   4.009   3.889   9.213  0.0869  0.5693  0.1698
  143SAPE  H12X15721   4.079   3.975   9.216  0.5780  0.1647  1.7679
  143SAPE  H12Y15722   3.934   3.896   9.295 -1.6779 -0.9053 -1.2396
  143SAPE  C31315723   3.953   3.875   9.070 -0.3920  0.1888 -0.3698
  143SAPE  H13X15724   3.887   3.787   9.052  2.3194 -1.7848 -1.1943
  143SAPE  H13Y15725   4.034   3.868   8.995  2.0130 -1.9390  2.2045
  143SAPE  C31415726   3.866   3.991   9.043  0.1982 -0.9546  0.5688
  143SAPE  H14X15727   3.923   4.085   9.027  0.7764 -1.5480 -1.0451
  143SAPE  H14Y15728   3.786   4.013   9.117  0.9509  3.3021  0.3450
  143SAPE  C31515729   3.794   3.985   8.901  0.2904 -0.3269 -0.2220
  143SAPE  H15X15730   3.710   4.056   8.914  1.2288  0.8733 -0.4894
  143SAPE  H15Y15731   3.754   3.885   8.876 -1.2981 -0.0046  0.8887
  143SAPE  C31615732   3.878   4.018   8.776  0.1281  0.2410  0.0610
  143SAPE  H16X15733   3.958   3.945   8.752  1.1341  1.7992 -1.6271
  143SAPE  H16Y15734   3.923   4.119   8.781  0.1275  0.1663  2.4834
  143SAPE  C31715735   3.780   4.017   8.652 -0.1118  0.1985 -0.0797
  143SAPE  H17X15736   3.680   4.047   8.689 -0.4015 -0.6967 -0.1106
  143SAPE  H17Y15737   3.780   3.916   8.605  0.4140  0.6631 -1.0847
  143SAPE  C31815738   3.831   4.117   8.557  0.3095  0.2888 -0.5634
  143SAPE  H18X15739   3.802   4.218   8.591  0.4797  0.4454 -0.8753
  143SAPE  H18Y15740   3.794   4.097   8.454 -0.8156  2.4304 -0.6283
  143SAPE  H18Z15741   3.942   4.110   8.559  0.2283 -2.5694  2.1070
  144SAPE     N15742   5.575   1.151  10.541 -0.3965  0.0648 -0.5122
  144SAPE   HN115743   5.622   1.076  10.596  0.7411  0.7619 -0.5104
  144SAPE   HN215744   5.488   1.104  10.508 -0.0086 -1.6286  0.7354
  144SAPE   HN315745   5.618   1.182  10.452 -2.6782 -0.2337 -1.7902
  144SAPE   C1215746   5.539   1.286  10.612 -0.0823  0.0690  0.6522
  144SAPE  H12A15747   5.573   1.280  10.718 -0.4873 -0.8607  0.7384
  144SAPE  H12B15748   5.428   1.279  10.614 -0.0064 -2.3493 -0.3283
  144SAPE   C1115749   5.614   1.403  10.548 -0.4242 -0.4584  0.4101
  144SAPE  H11A15750   5.595   1.482  10.624 -2.3365 -2.2258  1.8661
  144SAPE  H11B15751   5.565   1.430  10.452 -2.0237 -0.9423  1.0490
  144SAPE     P15752   5.856   1.480  10.501 -0.0384  0.0905 -0.2562
  144SAPE   O1315753   5.807   1.610  10.556 -0.0658  1.2576 -0.5911
  144SAPE   O1415754   5.989   1.440  10.549  0.3601 -0.1807  0.3525
  144SAPE   O1215755   5.750   1.374  10.535 -0.3909  0.6457 -0.4307
  144SAPE   O1115756   5.846   1.475  10.343 -0.7063  0.5021 -0.0229
  144SAPE    C115757   5.874   1.592  10.263 -1.1665  0.6475  0.7496
  144SAPE    HA15758   5.824   1.682  10.306 -1.3722  0.0266  1.8552
  144SAPE    HB15759   5.983   1.613  10.265 -0.7813 -0.9733 -0.9042
  144SAPE    C215760   5.829   1.579  10.120  0.1482  0.0597 -0.0493
  144SAPE    HS15761   5.721   1.550  10.117  0.3978 -0.8623 -2.0327
  144SAPE   O2115762   5.915   1.487  10.048  0.6975  0.7290 -0.8018
  144SAPE   C2115763   5.858   1.371  10.034  0.2015  0.2995 -0.2944
  144SAPE   O2215764   5.758   1.323  10.086  0.0290 -0.4483 -0.4084
  144SAPE   C2215765   5.967   1.291   9.949  0.2518 -0.2838 -0.2385
  144SAPE   H2R15766   6.065   1.343   9.952  0.1792 -0.2048  1.6340
  144SAPE   H2S15767   5.981   1.198  10.008  1.7893 -0.3619 -0.6884
  144SAPE    C315768   5.851   1.716  10.040 -0.5088 -0.6682 -0.7041
  144SAPE    HX15769   5.961   1.730  10.048 -0.5933 -0.6609  0.7674
  144SAPE    HY15770   5.803   1.798  10.098  2.6197  1.7245 -1.2280
  144SAPE   O3115771   5.816   1.703   9.902  0.4660 -0.2865 -0.4499
  144SAPE   C3115772   5.795   1.810   9.831 -0.4279  0.3475 -0.0696
  144SAPE   O3215773   5.810   1.923   9.882  0.1705  0.1332 -0.2596
  144SAPE   C3215774   5.774   1.783   9.682  0.3901  0.3370 -0.2111
  144SAPE   H2X15775   5.752   1.675   9.672  0.4151  0.1864  1.1942
  144SAPE   H2Y15776   5.875   1.802   9.640 -0.0005  1.5939 -0.6558
  144SAPE   C2315777   5.925   1.261   9.807  0.0285 -0.4217  0.6857
  144SAPE   H3R15778   5.820   1.224   9.800  0.0378 -0.3299  0.0408
  144SAPE   H3S15779   5.989   1.179   9.769  0.6745 -0.7029  2.2731
  144SAPE   C2415780   5.931   1.384   9.719  0.1518  0.2964  0.1940
  144SAPE   H4R15781   6.030   1.434   9.724  0.6545 -0.7222  0.8262
  144SAPE   H4S15782   5.870   1.468   9.757  0.1991  0.0662  0.7988
  144SAPE   C2515783   5.879   1.346   9.579 -0.1142  0.4483 -0.3744
  144SAPE   H5R15784   5.772   1.329   9.562  0.1653  1.4368 -3.7449
  144SAPE   C2615785   5.959   1.344   9.469  0.4050  0.2392  0.2768
  144SAPE   H6R15786   5.911   1.340   9.370  2.2765  0.9603 -0.7148
  144SAPE   C2715787   6.107   1.377   9.471  0.0001 -0.0176  0.0277
  144SAPE   H7R15788   6.167   1.289   9.441  0.2724 -0.7405  2.4660
  144SAPE   H7S15789   6.144   1.408   9.571 -4.1208  1.7110  1.2610
  144SAPE   C2815790   6.144   1.488   9.375 -0.6846  0.0284 -0.1618
  144SAPE   H8R15791   6.128   1.586   9.422  1.9706  0.1475  0.6249
  144SAPE   C2915792   6.198   1.479   9.249  0.0932 -0.3181  0.6084
  144SAPE   H9R15793   6.234   1.571   9.202 -1.3448  0.6540  1.3373
  144SAPE  C21015794   6.212   1.348   9.172 -0.1086  0.3426 -0.2656
  144SAPE  H10R15795   6.126   1.279   9.185  0.4392 -0.3610 -0.3096
  144SAPE  H10S15796   6.295   1.289   9.217 -2.1068 -1.2492  1.5907
  144SAPE  C21115797   6.230   1.362   9.025  0.2691  0.5047  0.8128
  144SAPE  H11R15798   6.130   1.361   8.977  0.1507  1.9650  0.9941
  144SAPE  C21215799   6.344   1.345   8.956 -0.1740  0.5630  0.1430
  144SAPE  H12R15800   6.356   1.343   8.846 -0.0363 -0.8825  0.1725
  144SAPE  C21315801   6.483   1.335   9.025  0.1796  0.1702  0.4936
  144SAPE  H13R15802   6.483   1.388   9.122 -0.9346  1.3148 -0.0948
  144SAPE  H13S15803   6.556   1.386   8.958 -0.5056 -0.4090 -0.7330
  144SAPE  C21415804   6.533   1.191   9.029 -0.2304  0.1504 -0.4334
  144SAPE  H14R15805   6.472   1.128   9.096 -0.1378 -0.1583 -0.6346
  144SAPE  C21515806   6.625   1.137   8.939 -0.0735 -0.2950 -0.0088
  144SAPE  H15R15807   6.648   1.030   8.941  0.3786 -0.2352  3.3577
  144SAPE  C21615808   6.700   1.209   8.827  0.7211  0.2366  0.1213
  144SAPE  H16R15809   6.809   1.212   8.847  0.4311 -2.2615  2.6714
  144SAPE  H16S15810   6.668   1.312   8.801  2.7442  0.7535 -0.5297
  144SAPE  C21715811   6.682   1.120   8.702 -0.0392 -0.3564 -0.4907
  144SAPE  H17R15812   6.577   1.085   8.705 -0.4670  0.9236  0.1126
  144SAPE  H17S15813   6.743   1.029   8.724 -0.2641 -0.8244 -1.7033
  144SAPE  C21815814   6.741   1.188   8.577 -0.0944 -0.5392 -0.1416
  144SAPE  H18R15815   6.837   1.234   8.610 -0.9590 -0.6815  2.7651
  144SAPE  H18S15816   6.673   1.266   8.537  2.0426  0.3267 -2.3811
  144SAPE  C21915817   6.764   1.090   8.461  0.0694  0.2682  0.5156
  144SAPE  H19R15818   6.667   1.069   8.411  0.1729 -2.0825  1.1879
  144SAPE  H19S15819   6.807   0.995   8.500 -0.0812  1.0920  2.8465
  144SAPE  C22015820   6.865   1.140   8.356  0.6546 -0.0907 -0.2820
  144SAPE  H20R15821   6.881   1.065   8.275  1.7030 -1.7304  1.3591
  144SAPE  H20S15822   6.969   1.144   8.396  0.5887  0.5436 -0.1679
  144SAPE  H20T15823   6.826   1.237   8.319 -1.1321 -0.9926 -0.8608
  144SAPE   C3315824   5.660   1.872   9.621  0.2011  0.2468 -0.0797
  144SAPE   H3X15825   5.683   1.980   9.637 -1.9764  1.2529 -3.0163
  144SAPE   H3Y15826   5.566   1.846   9.673  1.4091 -1.6554  1.3094
  144SAPE   C3415827   5.642   1.833   9.471  0.1559 -0.1071  0.4907
  144SAPE   H4X15828   5.559   1.883   9.416 -2.2912 -1.7351  2.4498
  144SAPE   H4Y15829   5.632   1.723   9.464 -0.8554  0.0426 -0.9451
  144SAPE   C3515830   5.762   1.847   9.383 -0.4158 -0.2524  1.2759
  144SAPE   H5X15831   5.851   1.816   9.442  0.7068  2.5319  1.1720
  144SAPE   H5Y15832   5.787   1.954   9.367 -0.6532 -0.2106  1.1792
  144SAPE   C3615833   5.748   1.784   9.245 -0.3737  0.4440  0.4636
  144SAPE   H6X15834   5.815   1.838   9.174  0.1962  0.5086  1.0395
  144SAPE   H6Y15835   5.644   1.783   9.206 -0.6404  0.9932  1.1395
  144SAPE   C3715836   5.791   1.634   9.240 -0.9728 -0.0665  0.3756
  144SAPE   H7X15837   5.735   1.592   9.327 -0.7079  0.1848  0.6699
  144SAPE   H7Y15838   5.897   1.629   9.272  0.0259 -0.2125 -2.6914
  144SAPE   C3815839   5.773   1.554   9.110 -1.1923 -0.3396 -0.0887
  144SAPE   H8X15840   5.664   1.563   9.088 -1.6314 -3.2709  0.4959
  144SAPE   H8Y15841   5.799   1.447   9.126  1.8596  0.3568  0.1455
  144SAPE   C3915842   5.847   1.611   8.990  0.9551 -0.2786 -0.3883
  144SAPE   H9X15843   5.957   1.622   9.005  0.6601  2.3793  0.2822
  144SAPE   H9Y15844   5.811   1.715   8.974 -0.6038 -0.5174  1.1726
  144SAPE  C31015845   5.828   1.532   8.864 -0.2035  0.0678 -0.2501
  144SAPE  H10X15846   5.718   1.529   8.847 -0.1879  1.2722 -0.6791
  144SAPE  H10Y15847   5.858   1.428   8.888 -0.5336  0.2385  0.9549
  144SAPE  C31115848   5.911   1.581   8.740 -0.0001  0.3164 -0.1807
  144SAPE  H11X15849   5.867   1.675   8.700 -1.1653  0.7618  2.0056
  144SAPE  H11Y15850   5.890   1.510   8.657 -1.3133 -1.8070  1.8454
  144SAPE  C31215851   6.062   1.596   8.758 -0.6528 -0.0371  0.4414
  144SAPE  H12X15852   6.096   1.495   8.790 -0.2922 -0.0943 -0.0968
  144SAPE  H12Y15853   6.107   1.671   8.826 -0.0465 -1.2905  1.4550
  144SAPE  C31315854   6.133   1.629   8.624  0.3520  0.0827 -0.1967
  144SAPE  H13X15855   6.095   1.727   8.589  0.8125  0.1501 -0.5195
  144SAPE  H13Y15856   6.100   1.550   8.553  1.7945 -0.9889  0.2823
  144SAPE  C31415857   6.283   1.643   8.630  0.2471 -0.0820  0.2923
  144SAPE  H14X15858   6.322   1.546   8.667 -3.4987 -0.6200  3.4969
  144SAPE  H14Y15859   6.323   1.718   8.702  0.1970  1.7741 -1.5120
  144SAPE  C31515860   6.343   1.679   8.493 -0.1766  0.0820  0.1662
  144SAPE  H15X15861   6.279   1.760   8.451  1.3039  0.9429 -0.5579
  144SAPE  H15Y15862   6.338   1.597   8.419  1.4274  1.8822 -2.1071
  144SAPE  C31615863   6.485   1.721   8.498 -0.6237 -0.3969  0.2000
  144SAPE  H16X15864   6.546   1.636   8.534 -0.4449 -2.3119 -4.0311
  144SAPE  H16Y15865   6.498   1.813   8.560  0.5257 -1.7756  2.1005
  144SAPE  C31715866   6.552   1.749   8.365 -0.0190  0.0120  0.5212
  144SAPE  H17X15867   6.515   1.667   8.299  2.6860 -1.0450  0.1970
  144SAPE  H17Y15868   6.661   1.731   8.369  0.3137  1.9955  1.2303
  144SAPE  C31815869   6.530   1.892   8.318 -0.2755 -0.8734  0.4644
  144SAPE  H18X15870   6.611   1.915   8.246  0.3687 -0.3386  1.3428
  144SAPE  H18Y15871   6.546   1.964   8.400  0.1111  2.2172 -2.1551
  144SAPE  H18Z15872   6.432   1.913   8.270 -1.1064 -1.0062  2.0388
  145SAPE     N15873   4.286   4.271  11.143  0.0111 -0.2687 -0.1971
  145SAPE   HN115874   4.190   4.282  11.182  0.9809  0.1532  2.2877
  145SAPE   HN215875   4.313   4.172  11.161 -1.7367 -0.4419  1.8431
  145SAPE   HN315876   4.346   4.321  11.212 -0.3533  0.0307 -0.0934
  145SAPE   C1215877   4.308   4.302  10.991 -0.7562  0.5765 -0.0708
  145SAPE  H12A15878   4.416   4.329  10.987  0.2352 -2.9918 -0.6661
  145SAPE  H12B15879   4.235   4.381  10.962 -1.3597 -0.0643 -0.3206
  145SAPE   C1115880   4.301   4.183  10.897  0.0929  0.6023  0.2314
  145SAPE  H11A15881   4.343   4.213  10.799 -0.3003 -0.9303 -0.4396
  145SAPE  H11B15882   4.195   4.157  10.877  0.4858 -1.1173  0.1823
  145SAPE     P15883   4.316   3.926  10.911  0.1607  0.0076 -0.3156
  145SAPE   O1315884   4.418   3.815  10.922  0.2627  0.0241  0.7115
  145SAPE   O1415885   4.189   3.921  10.985 -0.0030  0.4504 -0.2611
  145SAPE   O1215886   4.377   4.066  10.952  0.4541  0.0300 -0.0919
  145SAPE   O1115887   4.278   3.943  10.758  0.1057 -0.1766 -0.0577
  145SAPE    C115888   4.205   3.847  10.691  1.0151  0.3967 -0.3339
  145SAPE    HA15889   4.209   3.747  10.739  0.7913  0.7470  0.4204
  145SAPE    HB15890   4.100   3.884  10.689  0.3507 -1.4177 -0.4657
  145SAPE    C215891   4.277   3.845  10.556 -0.6986  0.4124  0.5701
  145SAPE    HS15892   4.378   3.805  10.579 -0.8892 -0.8766 -0.7135
  145SAPE   O2115893   4.272   3.978  10.501 -0.3532 -0.5947  0.2490
  145SAPE   C2115894   4.373   4.012  10.417  0.0473  0.9482  0.2003
  145SAPE   O2215895   4.467   3.936  10.391  0.1435 -0.0180  0.0785
  145SAPE   C2215896   4.355   4.148  10.361 -0.1492  0.1553 -0.2326
  145SAPE   H2R15897   4.250   4.181  10.351 -0.2507  0.4199  1.3772
  145SAPE   H2S15898   4.403   4.214  10.437 -0.3833 -1.7140  1.6308
  145SAPE    C315899   4.205   3.755  10.449  0.7708 -0.5177 -0.5725
  145SAPE    HX15900   4.113   3.815  10.435 -1.4158 -3.4469  0.2996
  145SAPE    HY15901   4.171   3.665  10.504  0.1212  0.4598  0.6533
  145SAPE   O3115902   4.287   3.740  10.332  0.1802  0.5189  0.0502
  145SAPE   C3115903   4.391   3.654  10.341  0.3958 -0.1119  0.5091
  145SAPE   O3215904   4.416   3.580  10.433  0.6311  0.3887 -0.0761
  145SAPE   C3215905   4.482   3.662  10.214  0.2772  0.0590  0.6955
  145SAPE   H2X15906   4.579   3.701  10.252 -0.2652  1.7754  0.3620
  145SAPE   H2Y15907   4.451   3.743  10.145  0.2022  1.6759  2.5553
  145SAPE   C2315908   4.436   4.160  10.229 -0.0258 -0.3004  0.4094
  145SAPE   H3R15909   4.401   4.081  10.160 -1.7773  0.1315  0.7275
  145SAPE   H3S15910   4.540   4.139  10.261 -0.5208  0.7077  2.9894
  145SAPE   C2415911   4.418   4.301  10.172  0.2818 -1.1432  0.5122
  145SAPE   H4R15912   4.455   4.376  10.246  1.2752 -1.0213 -0.0887
  145SAPE   H4S15913   4.311   4.313  10.147  0.6977 -0.3805 -0.9848
  145SAPE   C2515914   4.503   4.318  10.049  0.0668 -0.3739 -1.1441
  145SAPE   H5R15915   4.589   4.250  10.048 -0.1437 -1.1149  3.8772
  145SAPE   C2615916   4.482   4.407   9.947 -0.6735 -0.2044  1.2939
  145SAPE   H6R15917   4.552   4.402   9.862 -0.2472 -2.1604  1.7043
  145SAPE   C2715918   4.371   4.507   9.944 -0.3438  0.5443  0.8684
  145SAPE   H7R15919   4.408   4.611   9.929  1.9960  0.0421  2.5070
  145SAPE   H7S15920   4.322   4.496  10.043 -2.9637 -2.9449 -0.6135
  145SAPE   C2815921   4.258   4.482   9.847 -0.3392 -0.1200  0.5620
  145SAPE   H8R15922   4.166   4.432   9.880  0.3502 -1.2783  0.7656
  145SAPE   C2915923   4.259   4.489   9.712 -0.6025  0.2556  0.3999
  145SAPE   H9R15924   4.171   4.490   9.647  1.7646  1.4641 -3.0728
  145SAPE  C21015925   4.372   4.556   9.632  0.4236 -0.6753  0.4356
  145SAPE  H10R15926   4.464   4.564   9.692  0.6662  0.8916 -0.1143
  145SAPE  H10S15927   4.339   4.657   9.600  0.9114 -1.2324 -2.0022
  145SAPE  C21115928   4.401   4.480   9.511  0.1615  0.4345 -0.2189
  145SAPE  H11R15929   4.365   4.376   9.511  0.4618  0.3330 -0.0984
  145SAPE  C21215930   4.450   4.525   9.394  0.3538 -0.2138 -1.2116
  145SAPE  H12R15931   4.450   4.454   9.310 -0.6420 -1.7267  0.0018
  145SAPE  C21315932   4.509   4.659   9.363 -0.7757 -0.3953 -0.2171
  145SAPE  H13R15933   4.619   4.652   9.355 -0.1762  4.0385  1.3936
  145SAPE  H13S15934   4.501   4.734   9.445  0.1479  1.1146 -1.4685
  145SAPE  C21415935   4.440   4.724   9.252  0.5308 -0.0175  0.5199
  145SAPE  H14R15936   4.332   4.744   9.256  0.3906 -0.3380 -1.0141
  145SAPE  C21515937   4.497   4.772   9.147  0.3702 -0.6434 -0.0200
  145SAPE  H15R15938   4.447   4.835   9.071 -1.7202 -2.0851  0.0957
  145SAPE  C21615939   4.641   4.770   9.118 -0.1699  0.1004 -0.5431
  145SAPE  H16R15940   4.695   4.681   9.154 -1.2323  1.2583  4.7677
  145SAPE  H16S15941   4.678   4.846   9.190 -1.0663  0.2426 -0.2132
  145SAPE  C21715942   4.674   4.809   8.980 -0.5192 -0.1641  0.1743
  145SAPE  H17R15943   4.780   4.838   8.968 -0.8427  0.9150 -0.1033
  145SAPE  H17S15944   4.626   4.905   8.955 -1.3214  0.1367  2.5533
  145SAPE  C21815945   4.642   4.695   8.879 -0.3711  0.7398 -0.2396
  145SAPE  H18R15946   4.539   4.659   8.900  0.5640 -1.4430  0.9454
  145SAPE  H18S15947   4.714   4.612   8.899  3.1846  2.9168 -2.7346
  145SAPE  C21915948   4.659   4.745   8.729 -0.1760 -0.1161 -0.0970
  145SAPE  H19R15949   4.649   4.650   8.673 -1.9035 -1.5921  2.4710
  145SAPE  H19S15950   4.758   4.796   8.728  0.2680 -0.8951  1.3595
  145SAPE  C22015951   4.539   4.837   8.692 -0.6285 -0.1460  0.1411
  145SAPE  H20R15952   4.551   4.862   8.585 -0.0119 -1.3925 -0.1039
  145SAPE  H20S15953   4.541   4.934   8.746  1.6128  0.0886 -0.2577
  145SAPE  H20T15954   4.444   4.782   8.711  1.0915 -2.8297  1.6548
  145SAPE   C3315955   4.476   3.537  10.125 -0.6034  0.4940 -0.4098
  145SAPE   H3X15956   4.369   3.507  10.118 -0.3146 -0.5758 -0.4346
  145SAPE   H3Y15957   4.542   3.457  10.165  0.2802  1.0068 -0.8028
  145SAPE   C3415958   4.521   3.556   9.978  0.0169 -0.1721  0.3614
  145SAPE   H4X15959   4.628   3.588   9.976 -0.7662  2.6857  0.5969
  145SAPE   H4Y15960   4.480   3.650   9.936  1.7596  0.1683 -0.7055
  145SAPE   C3515961   4.488   3.447   9.872 -0.5464 -0.3019 -0.1823
  145SAPE   H5X15962   4.385   3.408   9.885 -0.0146 -1.8548 -0.4871
  145SAPE   H5Y15963   4.554   3.365   9.907 -0.6342  0.0244  0.7863
  145SAPE   C3615964   4.517   3.474   9.731  0.1380 -0.1367 -0.5742
  145SAPE   H6X15965   4.626   3.496   9.718  0.3936  0.6762  2.2248
  145SAPE   H6Y15966   4.462   3.566   9.700 -0.6505 -0.8918 -1.4814
  145SAPE   C3715967   4.478   3.366   9.627 -0.0030  1.1431  0.0164
  145SAPE   H7X15968   4.367   3.371   9.635 -0.1558 -0.0086 -1.1229
  145SAPE   H7Y15969   4.509   3.263   9.655 -3.7987  0.0565  0.8564
  145SAPE   C3815970   4.518   3.402   9.485 -0.4958 -0.0641 -0.0388
  145SAPE   H8X15971   4.629   3.409   9.486 -0.3499 -1.8481  1.2248
  145SAPE   H8Y15972   4.470   3.499   9.460 -0.6015 -0.1392 -0.1302
  145SAPE   C3915973   4.479   3.291   9.376  0.4173  0.0547 -0.7204
  145SAPE   H9X15974   4.370   3.273   9.370  0.7935 -2.5556 -1.0002
  145SAPE   H9Y15975   4.526   3.198   9.415  0.3929  1.4933  3.2524
  145SAPE  C31015976   4.509   3.331   9.230 -0.1839  0.2275 -0.3055
  145SAPE  H10X15977   4.615   3.363   9.225  0.4959 -0.6170  4.3206
  145SAPE  H10Y15978   4.460   3.426   9.198  0.6305  1.2954  1.4578
  145SAPE  C31115979   4.477   3.214   9.144  0.3253 -0.0823  0.5963
  145SAPE  H11X15980   4.368   3.198   9.130  0.7111 -1.2128 -1.6220
  145SAPE  H11Y15981   4.539   3.126   9.168  0.9509 -0.1176 -1.0220
  145SAPE  C31215982   4.526   3.246   9.000  0.2437 -0.3276 -0.6032
  145SAPE  H12X15983   4.636   3.262   9.005  0.1716  0.3965 -1.2034
  145SAPE  H12Y15984   4.491   3.350   8.985 -0.4110 -0.6813 -1.6270
  145SAPE  C31315985   4.486   3.151   8.900  0.6675  0.2673  0.3487
  145SAPE  H13X15986   4.376   3.138   8.896  0.6696  0.2450  0.3505
  145SAPE  H13Y15987   4.535   3.051   8.906  0.8489  0.3795  0.7441
  145SAPE  C31415988   4.530   3.216   8.763  0.1795 -0.1457  0.1677
  145SAPE  H14X15989   4.496   3.321   8.755  0.9592  0.2002  1.1791
  145SAPE  H14Y15990   4.490   3.155   8.679 -2.3060  0.3601  0.9104
  145SAPE  C31515991   4.682   3.218   8.742  0.2538 -0.2267  0.9017
  145SAPE  H15X15992   4.729   3.117   8.753  0.3137 -0.0753  2.1957
  145SAPE  H15Y15993   4.739   3.287   8.807  0.8972  0.3368 -0.2327
  145SAPE  C31615994   4.725   3.245   8.592  0.6907 -0.1257  0.4857
  145SAPE  H16X15995   4.702   3.158   8.528  0.0435  0.5985 -0.2843
  145SAPE  H16Y15996   4.835   3.263   8.593  0.6584  0.1292  1.9182
  145SAPE  C31715997   4.659   3.379   8.539 -0.5313  0.6060 -0.0240
  145SAPE  H17X15998   4.672   3.463   8.610  3.2357 -0.0013  0.2084
  145SAPE  H17Y15999   4.552   3.359   8.521 -0.0953 -3.3224  0.9303
  145SAPE  C31816000   4.726   3.437   8.404 -0.8046  0.0237 -0.8123
  145SAPE  H18X16001   4.656   3.520   8.380 -0.0283  0.6068 -1.0685
  145SAPE  H18Y16002   4.739   3.355   8.329  5.2485  0.9826 -1.3192
  145SAPE  H18Z16003   4.827   3.477   8.425  0.3697 -3.3026  0.5515
  146SAPE     N16004   2.290   5.553  10.675 -0.2223  0.5460  0.2415
  146SAPE   HN116005   2.337   5.494  10.602 -0.5943 -0.3382  0.6962
  146SAPE   HN216006   2.356   5.563  10.754 -0.4151 -0.2816  0.5229
  146SAPE   HN316007   2.205   5.507  10.715 -0.1433  0.0709 -0.1217
  146SAPE   C1216008   2.241   5.687  10.623  0.5135  0.2405  0.9071
  146SAPE  H12A16009   2.207   5.666  10.520 -1.5123  0.5095  1.4878
  146SAPE  H12B16010   2.334   5.748  10.619  0.9752 -0.5092 -2.4013
  146SAPE   C1116011   2.136   5.750  10.716 -0.4865 -0.9453  0.3120
  146SAPE  H11A16012   2.104   5.839  10.656  1.3510 -0.3292  0.1758
  146SAPE  H11B16013   2.186   5.788  10.807  0.2578  3.1337 -1.5220
  146SAPE     P16014   1.903   5.622  10.676  0.2293  0.0057  0.2867
  146SAPE   O1316015   1.909   5.483  10.639  0.3840  0.4156 -0.4751
  146SAPE   O1416016   1.797   5.658  10.770  0.0007  0.1598 -0.0927
  146SAPE   O1216017   2.032   5.661  10.748  0.4566  0.1136  0.4123
  146SAPE   O1116018   1.906   5.707  10.551  0.0409 -0.0245  0.1610
  146SAPE    C116019   1.803   5.688  10.449  0.0767  0.4846  0.0064
  146SAPE    HA16020   1.710   5.654  10.499 -1.3450  1.1077 -2.0556
  146SAPE    HB16021   1.781   5.782  10.394  1.5711  0.9955  0.2348
  146SAPE    C216022   1.844   5.585  10.342 -0.3655 -0.9909 -0.0967
  146SAPE    HS16023   1.891   5.502  10.400 -0.1162  0.5696  2.0831
  146SAPE   O2116024   1.948   5.644  10.260  0.4390 -0.0549  0.1811
  146SAPE   C2116025   2.038   5.562  10.204 -0.0128 -0.1297 -0.2607
  146SAPE   O2216026   2.050   5.444  10.228  0.2332 -0.2534  0.3913
  146SAPE   C2216027   2.134   5.638  10.118  0.6879  0.0832  0.1584
  146SAPE   H2R16028   2.084   5.716  10.057 -0.2570 -1.1225 -0.6607
  146SAPE   H2S16029   2.197   5.695  10.189  0.5066  2.0403 -1.1795
  146SAPE    C316030   1.718   5.528  10.271  0.5696 -0.0545 -0.3718
  146SAPE    HX16031   1.666   5.614  10.225 -0.0686  1.6630  3.2050
  146SAPE    HY16032   1.642   5.495  10.346 -0.7268  0.6765 -1.3163
  146SAPE   O3116033   1.767   5.428  10.177  0.6428  0.6595  0.0951
  146SAPE   C3116034   1.787   5.302  10.227 -1.5719  0.0803  0.2971
  146SAPE   O3216035   1.767   5.278  10.346  0.3263  0.4422 -0.3573
  146SAPE   C3216036   1.838   5.201  10.122 -0.1379  0.0321 -0.5626
  146SAPE   H2X16037   1.894   5.127  10.184  0.3502  1.0750  0.2789
  146SAPE   H2Y16038   1.914   5.244  10.053  1.1287  0.2362  0.8888
  146SAPE   C2316039   2.228   5.558  10.028 -0.4609  0.9543 -0.4782
  146SAPE   H3R16040   2.274   5.489  10.102 -0.7411 -0.1485 -1.3029
  146SAPE   H3S16041   2.309   5.625   9.992 -0.1926  0.4324 -0.8641
  146SAPE   C2416042   2.157   5.468   9.922  0.3661 -0.2542 -0.5562
  146SAPE   H4R16043   2.085   5.407   9.981 -0.9986  2.9267  1.3511
  146SAPE   H4S16044   2.228   5.401   9.869 -0.1168 -0.3155 -1.1484
  146SAPE   C2516045   2.100   5.556   9.817  0.6110 -1.2565  0.0606
  146SAPE   H5R16046   2.148   5.653   9.800  1.3273 -1.9964 -2.4868
  146SAPE   C2616047   2.005   5.529   9.731  0.2444 -0.0641 -0.5823
  146SAPE   H6R16048   1.968   5.602   9.658  1.5960  0.1506 -1.0944
  146SAPE   C2716049   1.943   5.391   9.705 -0.4999 -0.5877 -1.0703
  146SAPE   H7R16050   1.832   5.398   9.711 -0.5310 -0.4021 -1.7452
  146SAPE   H7S16051   1.991   5.317   9.772  2.1201  2.1153  0.2861
  146SAPE   C2816052   1.960   5.334   9.561 -0.6637 -0.1625  0.8977
  146SAPE   H8R16053   2.035   5.388   9.501 -0.9439  0.7820  1.3881
  146SAPE   C2916054   1.893   5.226   9.508 -0.2628  0.1249  0.4151
  146SAPE   H9R16055   1.921   5.195   9.407 -0.4695 -0.6003  0.5781
  146SAPE  C21016056   1.780   5.144   9.571 -0.2295 -0.0018  0.4542
  146SAPE  H10R16057   1.753   5.197   9.665  0.2849  0.7877  0.1758
  146SAPE  H10S16058   1.803   5.036   9.583  0.4708 -0.2755 -2.4681
  146SAPE  C21116059   1.668   5.157   9.479 -0.0630  0.7708  0.6983
  146SAPE  H11R16060   1.583   5.222   9.506 -0.8949 -0.1590  0.4056
  146SAPE  C21216061   1.661   5.100   9.354 -0.0413 -0.0406 -0.3306
  146SAPE  H12R16062   1.571   5.119   9.294  0.6375  0.1633 -1.2989
  146SAPE  C21316063   1.760   4.996   9.301 -0.2420 -0.4575  0.0454
  146SAPE  H13R16064   1.713   4.896   9.297  1.5324 -1.3421  0.5363
  146SAPE  H13S16065   1.855   4.977   9.355 -0.3007 -1.8587 -0.3169
  146SAPE  C21416066   1.776   5.030   9.151 -0.0716  0.0541 -0.2808
  146SAPE  H14R16067   1.683   5.055   9.098 -1.4485  1.1321  2.4386
  146SAPE  C21516068   1.890   5.046   9.076  0.3545 -0.6124 -0.1804
  146SAPE  H15R16069   1.888   5.037   8.967  2.6310 -1.3175 -0.2167
  146SAPE  C21616070   2.029   5.033   9.131 -0.1326  0.5785 -0.0153
  146SAPE  H16R16071   2.025   4.978   9.228 -0.5809  1.3123  0.3835
  146SAPE  H16S16072   2.066   5.131   9.167 -2.2894  1.1297  0.8534
  146SAPE  C21716073   2.128   4.957   9.046 -0.8094 -0.5352 -0.5455
  146SAPE  H17R16074   2.078   4.877   8.988  0.0598 -1.6470  0.1988
  146SAPE  H17S16075   2.182   4.906   9.128 -0.7640  0.6274  0.1770
  146SAPE  C21816076   2.212   5.047   8.955  0.2112  0.4981  0.1459
  146SAPE  H18R16077   2.275   5.101   9.030 -0.9321  0.5843  1.0692
  146SAPE  H18S16078   2.151   5.124   8.903 -1.4814 -0.2755  0.9244
  146SAPE  C21916079   2.280   4.967   8.838  0.2338 -0.7330  0.2869
  146SAPE  H19R16080   2.203   4.915   8.777 -0.3342  1.6030 -1.1532
  146SAPE  H19S16081   2.345   4.898   8.895 -0.7927 -1.6080  0.4275
  146SAPE  C22016082   2.366   5.051   8.749  0.5758  0.1836  0.1023
  146SAPE  H20R16083   2.429   4.991   8.680  1.8792  0.9049  0.6398
  146SAPE  H20S16084   2.434   5.102   8.821  0.7345 -0.6008  0.5139
  146SAPE  H20T16085   2.320   5.138   8.697 -0.8561 -0.2370  0.6166
  146SAPE   C3316086   1.724   5.127  10.056  0.0378  0.3559 -0.1847
  146SAPE   H3X16087   1.657   5.197  10.002  0.3795  0.6268 -0.2562
  146SAPE   H3Y16088   1.651   5.078  10.125 -1.9767  0.7649 -1.9086
  146SAPE   C3416089   1.777   5.017   9.956 -0.4218  0.0014  0.4016
  146SAPE   H4X16090   1.838   4.944  10.013 -0.2843 -1.4091 -1.4378
  146SAPE   H4Y16091   1.832   5.067   9.873 -0.8629  0.4863  0.3951
  146SAPE   C3516092   1.659   4.947   9.885 -1.0190  0.2736  0.2527
  146SAPE   H5X16093   1.708   4.903   9.796  0.2734  2.8567 -0.3919
  146SAPE   H5Y16094   1.582   5.013   9.840 -0.4386 -1.0779 -3.0029
  146SAPE   C3616095   1.583   4.843   9.966 -0.5950 -0.2502 -0.3011
  146SAPE   H6X16096   1.539   4.896  10.053 -1.2834 -2.6532  0.9080
  146SAPE   H6Y16097   1.662   4.777  10.008  0.8389  0.6056 -1.5368
  146SAPE   C3716098   1.487   4.766   9.886  0.1042  0.0007 -1.0840
  146SAPE   H7X16099   1.533   4.730   9.792  1.1708  1.3600 -1.1033
  146SAPE   H7Y16100   1.406   4.833   9.850  0.5286  0.6434 -0.8566
  146SAPE   C3816101   1.433   4.659   9.979 -0.1010 -0.1582  0.3764
  146SAPE   H8X16102   1.368   4.715  10.050  0.3927 -0.8892  1.4339
  146SAPE   H8Y16103   1.517   4.608  10.031  0.9095  3.9598  3.3507
  146SAPE   C3916104   1.352   4.545   9.905  0.1470 -0.4440 -0.6226
  146SAPE   H9X16105   1.313   4.481   9.987  2.5768 -1.5288 -0.2486
  146SAPE   H9Y16106   1.412   4.491   9.829  0.1527 -1.9951  0.4379
  146SAPE  C31016107   1.235   4.604   9.830 -0.2219  0.1183  0.4576
  146SAPE  H10X16108   1.257   4.685   9.756 -0.4130  0.4596  0.7718
  146SAPE  H10Y16109   1.168   4.666   9.894  0.2228  0.7797  0.2967
  146SAPE  C31116110   1.146   4.499   9.756 -0.1235  0.5861 -0.0058
  146SAPE  H11X16111   1.101   4.434   9.833  0.7964 -1.5766 -1.2119
  146SAPE  H11Y16112   1.212   4.441   9.688 -0.5795  0.8034 -0.6467
  146SAPE  C31216113   1.026   4.553   9.667  0.0053  0.2328 -0.1489
  146SAPE  H12X16114   1.056   4.636   9.600  2.3176 -1.0124 -0.7878
  146SAPE  H12Y16115   0.949   4.595   9.735  1.0526  0.4033  0.9781
  146SAPE  C31316116   0.959   4.444   9.587 -0.2646 -0.5278  0.6327
  146SAPE  H13X16117   0.920   4.367   9.657 -1.4171 -0.1116  0.4586
  146SAPE  H13Y16118   1.037   4.396   9.524  0.0863 -1.6367  1.8543
  146SAPE  C31416119   0.846   4.494   9.505  0.1923  0.8654  0.5680
  146SAPE  H14X16120   0.767   4.542   9.566 -0.4284  1.4424 -0.6501
  146SAPE  H14Y16121   0.805   4.403   9.457  1.9578  0.6965 -0.7130
  146SAPE  C31516122   0.886   4.582   9.380  0.0126  0.3603 -0.9061
  146SAPE  H15X16123   0.966   4.524   9.328 -1.3226 -0.4890 -2.0661
  146SAPE  H15Y16124   0.924   4.683   9.408 -0.2469  1.2086 -3.4434
  146SAPE  C31616125   0.768   4.599   9.278 -0.3499 -0.2186  0.9340
  146SAPE  H16X16126   0.693   4.673   9.311  0.9862  1.2368  0.8475
  146SAPE  H16Y16127   0.722   4.501   9.253 -1.3031  1.1832 -3.5641
  146SAPE  C31716128   0.816   4.647   9.144  0.3523 -0.1508 -0.6675
  146SAPE  H17X16129   0.910   4.601   9.107  1.4536  1.7960 -0.4705
  146SAPE  H17Y16130   0.837   4.756   9.149  2.2805 -0.3862 -2.2542
  146SAPE  C31816131   0.708   4.640   9.031  0.3030  0.0761 -0.2365
  146SAPE  H18X16132   0.653   4.544   9.037 -3.0786  1.8159 -0.9716
  146SAPE  H18Y16133   0.765   4.644   8.936  0.0045  0.6904 -0.3944
  146SAPE  H18Z16134   0.634   4.723   9.034 -0.7350 -0.6227 -3.1082
  147SAPE     N16135   6.455   1.086   6.167 -0.3200 -0.0534 -0.4650
  147SAPE   HN116136   6.510   1.013   6.117 -1.0343 -0.1136 -1.1882
  147SAPE   HN216137   6.409   1.036   6.246 -0.6307 -0.7369 -1.0667
  147SAPE   HN316138   6.383   1.137   6.111  1.8565  0.9653 -2.5016
  147SAPE   C1216139   6.530   1.199   6.232 -0.2493  1.3297 -0.0987
  147SAPE  H12A16140   6.464   1.280   6.272 -2.1060 -0.5786  0.8666
  147SAPE  H12B16141   6.582   1.250   6.148 -0.2183 -1.0427 -1.6178
  147SAPE   C1116142   6.640   1.140   6.332  0.5313  0.1464 -0.2418
  147SAPE  H11A16143   6.597   1.075   6.410  1.3743  0.6678  0.6818
  147SAPE  H11B16144   6.693   1.224   6.381  0.5922  0.1132 -0.2512
  147SAPE     P16145   6.884   1.059   6.289  0.0236 -0.4503  0.4746
  147SAPE   O1316146   6.930   0.925   6.253  0.0706 -0.0091  0.3912
  147SAPE   O1416147   6.932   1.171   6.207  0.9046  0.0237 -0.0753
  147SAPE   O1216148   6.729   1.056   6.261 -0.3978  0.2489 -0.3787
  147SAPE   O1116149   6.901   1.091   6.438  0.4613 -0.3397 -0.0893
  147SAPE    C116150   6.991   1.187   6.496  0.2285 -0.3085  0.2639
  147SAPE    HA16151   6.970   1.287   6.452  1.0455 -0.4637 -0.5022
  147SAPE    HB16152   6.979   1.200   6.605  2.4272  0.4468  0.4671
  147SAPE    C216153   7.135   1.148   6.472  0.1480  1.0485  0.5492
  147SAPE    HS16154   7.141   1.133   6.362  1.2051  0.0295  0.7203
  147SAPE   O2116155   7.154   1.020   6.537 -0.3118  0.4674 -0.3930
  147SAPE   C2116156   7.245   0.947   6.474 -0.3508 -0.6132  0.1359
  147SAPE   O2216157   7.302   0.973   6.369  0.2092 -0.2266  0.0590
  147SAPE   C2216158   7.272   0.824   6.555 -0.0643 -0.1522  0.2434
  147SAPE   H2R16159   7.172   0.778   6.570 -0.5945  1.4628  2.1520
  147SAPE   H2S16160   7.330   0.762   6.484 -2.0073  0.3087 -1.8981
  147SAPE    C316161   7.237   1.262   6.516  1.0974  0.0149  0.4120
  147SAPE    HX16162   7.202   1.355   6.466 -1.9164 -1.2071  0.0280
  147SAPE    HY16163   7.335   1.229   6.476  1.3480 -1.7593  2.3354
  147SAPE   O3116164   7.229   1.284   6.658 -0.1981 -0.6745 -0.5348
  147SAPE   C3116165   7.318   1.225   6.735  1.0238 -0.3754  0.4795
  147SAPE   O3216166   7.419   1.168   6.699  0.1350 -0.2077  0.0213
  147SAPE   C3216167   7.260   1.239   6.880  0.1191 -0.0731  0.1602
  147SAPE   H2X16168   7.152   1.213   6.873  0.2583 -0.4355 -0.7088
  147SAPE   H2Y16169   7.281   1.348   6.888  2.1320 -0.4203  0.1813
  147SAPE   C2316170   7.350   0.842   6.691  0.1151 -0.2525 -0.8064
  147SAPE   H3R16171   7.282   0.894   6.763 -1.1294 -1.2839 -1.2026
  147SAPE   H3S16172   7.438   0.904   6.666 -0.0075  0.3733  0.2455
  147SAPE   C2416173   7.398   0.716   6.766  0.3426  0.3501  0.5529
  147SAPE   H4R16174   7.307   0.654   6.780 -0.4776  1.7248  1.5644
  147SAPE   H4S16175   7.455   0.745   6.857  2.0129  1.7572 -0.8758
  147SAPE   C2516176   7.484   0.630   6.674 -0.2424 -0.4863  0.4193
  147SAPE   H5R16177   7.468   0.633   6.566  0.3363 -0.0263  0.3449
  147SAPE   C2616178   7.596   0.565   6.724  0.9480 -0.0061 -0.4468
  147SAPE   H6R16179   7.652   0.500   6.655 -0.5311 -0.1999 -1.5044
  147SAPE   C2716180   7.630   0.532   6.867  0.3276  0.4578  0.6466
  147SAPE   H7R16181   7.546   0.545   6.938 -0.0590  0.1525  0.2457
  147SAPE   H7S16182   7.716   0.601   6.883  1.8281 -1.1546 -0.2050
  147SAPE   C2816183   7.682   0.394   6.890  0.5772  0.3796  0.7447
  147SAPE   H8R16184   7.688   0.322   6.806 -1.2721  0.1913  0.7464
  147SAPE   C2916185   7.739   0.349   7.002  0.1966 -1.0926 -0.7937
  147SAPE   H9R16186   7.788   0.251   6.997 -0.4308 -1.3828 -1.3672
  147SAPE  C21016187   7.746   0.432   7.127 -0.2853  0.0119  0.3220
  147SAPE  H10R16188   7.670   0.513   7.134  0.0252  0.2537  0.9851
  147SAPE  H10S16189   7.845   0.482   7.125 -0.3335  0.1461  1.0557
  147SAPE  C21116190   7.721   0.360   7.255 -0.1417 -0.4414 -0.9699
  147SAPE  H11R16191   7.635   0.292   7.252 -0.3153 -0.6368  2.8238
  147SAPE  C21216192   7.793   0.348   7.365 -0.3713 -0.0672  0.6653
  147SAPE  H12R16193   7.759   0.284   7.447 -0.6004  0.8347  1.2883
  147SAPE  C21316194   7.918   0.417   7.404  0.6591 -0.9085 -0.1636
  147SAPE  H13R16195   7.883   0.499   7.471  1.5365 -1.2611  0.7613
  147SAPE  H13S16196   7.966   0.472   7.320  0.9824 -1.3553 -0.2769
  147SAPE  C21416197   8.029   0.333   7.468  0.0502 -0.5081  0.3839
  147SAPE  H14R16198   8.105   0.317   7.391  0.2904 -3.8943  1.1461
  147SAPE  C21516199   8.042   0.281   7.590  0.0697 -0.4594  0.3330
  147SAPE  H15R16200   8.132   0.226   7.622  0.9825  1.0018  0.3473
  147SAPE  C21616201   7.935   0.295   7.696  0.0313  0.4861 -0.0261
  147SAPE  H16R16202   7.940   0.212   7.769 -1.2139  0.2554 -0.1779
  147SAPE  H16S16203   7.842   0.281   7.636  1.5456 -0.2260 -2.3404
  147SAPE  C21716204   7.926   0.430   7.771 -0.0559  0.7720 -0.1707
  147SAPE  H17R16205   7.832   0.445   7.828  0.6395  0.1120  1.2100
  147SAPE  H17S16206   7.929   0.515   7.699 -0.6731 -1.5461 -3.1103
  147SAPE  C21816207   8.054   0.445   7.863  0.3481 -0.3688 -0.0439
  147SAPE  H18R16208   8.149   0.466   7.810 -0.5483  1.5385 -0.9780
  147SAPE  H18S16209   8.079   0.352   7.919 -0.9924 -0.4036  0.5201
  147SAPE  C21916210   8.045   0.556   7.968  0.7318 -0.4138  0.2978
  147SAPE  H19R16211   8.013   0.646   7.911  0.5325 -0.5153  0.2461
  147SAPE  H19S16212   8.152   0.565   7.994  0.7220  3.1309 -0.4201
  147SAPE  C22016213   7.980   0.524   8.102  0.3990 -0.4988  0.1864
  147SAPE  H20R16214   7.870   0.528   8.090  0.2896 -1.6014  0.6995
  147SAPE  H20S16215   8.005   0.599   8.180  1.6096 -0.4955 -0.1770
  147SAPE  H20T16216   8.011   0.429   8.150  2.7761  0.2558  0.2620
  147SAPE   C3316217   7.328   1.159   6.991 -0.5291  0.2186  0.1107
  147SAPE   H3X16218   7.428   1.205   7.001 -0.7924  0.9982 -0.6487
  147SAPE   H3Y16219   7.350   1.059   6.949 -1.0758 -0.6867  1.8871
  147SAPE   C3416220   7.248   1.153   7.123 -0.1252 -0.3159  0.4783
  147SAPE   H4X16221   7.148   1.116   7.092 -0.2517  0.8149 -0.5083
  147SAPE   H4Y16222   7.231   1.253   7.168 -2.8868 -0.6617  0.3853
  147SAPE   C3516223   7.320   1.065   7.224  0.2700  0.1723  0.3917
  147SAPE   H5X16224   7.426   1.098   7.230  0.0181  1.1792 -0.3904
  147SAPE   H5Y16225   7.322   0.957   7.196  3.8121 -0.6385  3.0785
  147SAPE   C3616226   7.256   1.076   7.368 -0.7555 -0.0317 -0.5936
  147SAPE   H6X16227   7.147   1.055   7.372 -0.4121 -1.9636 -0.5709
  147SAPE   H6Y16228   7.267   1.178   7.410  1.1517 -1.0784  1.6693
  147SAPE   C3716229   7.320   0.973   7.474 -0.1241 -0.4866  0.5348
  147SAPE   H7X16230   7.431   0.965   7.472 -0.1209 -0.3742  0.3025
  147SAPE   H7Y16231   7.296   0.868   7.446  1.1498 -0.6918  0.1419
  147SAPE   C3816232   7.279   1.014   7.613  0.2631 -0.0810 -0.7021
  147SAPE   H8X16233   7.175   0.981   7.635  0.9339  0.4266  4.4438
  147SAPE   H8Y16234   7.274   1.123   7.631 -2.5825  0.0885 -1.9422
  147SAPE   C3916235   7.353   0.936   7.728  0.1075  0.0712  0.0658
  147SAPE   H9X16236   7.459   0.970   7.728  0.6136 -1.2991 -1.9362
  147SAPE   H9Y16237   7.358   0.831   7.692 -0.4423  0.8098 -2.3376
  147SAPE  C31016238   7.278   0.942   7.863 -0.2366 -0.5939  0.6252
  147SAPE  H10X16239   7.233   1.043   7.870 -0.8352 -0.8199  0.1751
  147SAPE  H10Y16240   7.350   0.929   7.946  1.7359  1.5143 -0.6431
  147SAPE  C31116241   7.163   0.841   7.877  0.1414 -0.8379  1.1563
  147SAPE  H11X16242   7.199   0.737   7.867  1.2205 -0.3235 -0.9706
  147SAPE  H11Y16243   7.079   0.865   7.807  1.3391  2.4738  0.6543
  147SAPE  C31216244   7.103   0.841   8.014  0.5546  0.2010 -0.9082
  147SAPE  H12X16245   7.079   0.944   8.047  1.2253 -0.3640  1.6024
  147SAPE  H12Y16246   7.169   0.798   8.093 -0.1598 -2.3319 -1.6146
  147SAPE  C31316247   6.990   0.737   8.032 -0.0538  0.2527 -0.3275
  147SAPE  H13X16248   7.034   0.635   8.025  0.2607  0.3947 -0.4413
  147SAPE  H13Y16249   6.920   0.746   7.946  0.8701  1.1334 -1.0078
  147SAPE  C31416250   6.920   0.748   8.169 -0.5613 -0.8316  0.2450
  147SAPE  H14X16251   6.912   0.856   8.193  0.1415 -0.5556 -0.6914
  147SAPE  H14Y16252   6.974   0.692   8.249 -0.4112  2.2957  2.5351
  147SAPE  C31516253   6.777   0.705   8.175  0.3210 -0.0716 -0.1277
  147SAPE  H15X16254   6.767   0.598   8.144  0.8749 -0.0326 -0.4386
  147SAPE  H15Y16255   6.704   0.760   8.112 -4.0396 -1.2790  3.3171
  147SAPE  C31616256   6.728   0.717   8.317  0.0670 -0.3560  0.8126
  147SAPE  H16X16257   6.725   0.824   8.347  0.9062  0.2353 -1.0897
  147SAPE  H16Y16258   6.802   0.669   8.385  2.1171  5.1344  3.0425
  147SAPE  C31716259   6.591   0.654   8.344  0.1677  0.8970 -0.9271
  147SAPE  H17X16260   6.572   0.548   8.316 -0.5770  1.1443 -1.3989
  147SAPE  H17Y16261   6.512   0.714   8.293 -2.3663 -0.3108  1.3058
  147SAPE  C31816262   6.561   0.674   8.498  0.2603  0.1864 -0.6704
  147SAPE  H18X16263   6.472   0.614   8.524  0.6545  0.1853  0.7338
  147SAPE  H18Y16264   6.536   0.779   8.522 -1.6379 -0.8656  2.5078
  147SAPE  H18Z16265   6.652   0.643   8.553  0.2248 -1.1577 -1.3260
  148SAPE     N16266   0.077   0.834   6.009 -0.5396 -0.1773 -0.6498
  148SAPE   HN116267   0.008   0.858   5.936 -1.6501 -3.6057 -0.8749
  148SAPE   HN216268   0.079   0.730   6.013 -1.3797 -0.2019 -0.6635
  148SAPE   HN316269   0.056   0.864   6.106  3.6160  0.1425  0.3343
  148SAPE   C1216270   0.223   0.873   5.990  0.8701  0.5662 -0.3538
  148SAPE  H12A16271   0.219   0.980   6.019 -3.2270  1.2648 -2.7522
  148SAPE  H12B16272   0.241   0.862   5.881 -0.0012  0.0890 -0.4599
  148SAPE   C1116273   0.302   0.792   6.076  0.1730  0.7205  0.6663
  148SAPE  H11A16274   0.269   0.803   6.181  2.1478 -0.0220  1.4179
  148SAPE  H11B16275   0.401   0.844   6.074 -0.5829  2.2639 -1.7284
  148SAPE     P16276   0.229   0.548   6.105 -0.1441 -0.2972 -0.1717
  148SAPE   O1316277   0.085   0.592   6.089  0.2517  1.0247  0.1476
  148SAPE   O1416278   0.255   0.426   6.032 -0.2653  0.1786  0.2769
  148SAPE   O1216279   0.317   0.657   6.038  0.5358 -0.0686  0.2426
  148SAPE   O1116280   0.270   0.547   6.259  0.1685  0.0534 -0.4227
  148SAPE    C116281   0.398   0.511   6.305 -0.5193 -0.4120 -0.4388
  148SAPE    HA16282   0.467   0.488   6.220  0.3040  2.5982 -0.7173
  148SAPE    HB16283   0.444   0.601   6.350 -0.6427  0.6347 -2.2918
  148SAPE    C216284   0.402   0.393   6.403  0.2822  0.3057  0.1810
  148SAPE    HS16285   0.340   0.311   6.360  2.1776 -1.4801  0.6516
  148SAPE   O2116286   0.333   0.442   6.521 -0.6062  0.0142  0.0471
  148SAPE   C2116287   0.232   0.377   6.574  0.7647  0.8647 -0.3223
  148SAPE   O2216288   0.191   0.268   6.531 -0.1329  0.4329 -0.2177
  148SAPE   C2216289   0.194   0.454   6.703  1.0156  0.1449  0.4598
  148SAPE   H2R16290   0.236   0.394   6.787 -1.7311 -2.5889  0.0695
  148SAPE   H2S16291   0.233   0.558   6.701  0.5582  0.3076 -0.9320
  148SAPE    C316292   0.537   0.339   6.433  0.7324 -0.0015 -0.1604
  148SAPE    HX16293   0.593   0.428   6.469  1.8773 -0.4343 -0.8357
  148SAPE    HY16294   0.594   0.308   6.343 -1.1917 -1.2418 -0.9934
  148SAPE   O3116295   0.532   0.238   6.532 -0.3356 -0.1823 -0.1025
  148SAPE   C3116296   0.489   0.116   6.503  0.5706 -0.3934  0.8022
  148SAPE   O3216297   0.465   0.058   6.398 -0.3107 -0.4976  0.2186
  148SAPE   C3216298   0.471   0.035   6.636  0.0176 -0.2367  0.9022
  148SAPE   H2X16299   0.576   0.008   6.658  1.6691  0.6854 -4.3447
  148SAPE   H2Y16300   0.408  -0.054   6.616 -0.7056 -0.1114  2.4976
  148SAPE   C2316301   0.042   0.462   6.708 -0.5527 -0.6854 -0.1827
  148SAPE   H3R16302  -0.019   0.377   6.670 -0.7545 -1.0403  0.9141
  148SAPE   H3S16303   0.026   0.554   6.647  1.7624 -1.2899 -1.8668
  148SAPE   C2416304  -0.004   0.471   6.855 -0.2590 -1.0888  0.1797
  148SAPE   H4R16305   0.065   0.544   6.903  0.5636 -2.5367  1.3066
  148SAPE   H4S16306   0.012   0.373   6.904 -0.4171 -0.3937  1.6788
  148SAPE   C2516307  -0.146   0.513   6.864 -0.2439  0.2377 -0.3044
  148SAPE   H5R16308  -0.187   0.548   6.768 -1.0231  1.1534  0.3451
  148SAPE   C2616309  -0.229   0.488   6.967  0.2181  0.2635  0.3200
  148SAPE   H6R16310  -0.332   0.520   6.947  0.6157  0.6187 -1.2875
  148SAPE   C2716311  -0.194   0.443   7.108 -0.6101  0.3226 -0.6880
  148SAPE   H7R16312  -0.096   0.391   7.115  0.2899  1.9716 -0.7312
  148SAPE   H7S16313  -0.261   0.364   7.150  1.5754 -0.3553  1.7839
  148SAPE   C2816314  -0.209   0.566   7.198 -0.0089 -0.5235 -0.8170
  148SAPE   H8R16315  -0.290   0.636   7.173  2.0267  1.6764 -1.5722
  148SAPE   C2916316  -0.122   0.594   7.299  0.5691  0.2212 -0.1074
  148SAPE   H9R16317  -0.140   0.684   7.359 -0.1040 -0.0966  0.1861
  148SAPE  C21016318  -0.006   0.507   7.345  0.3527 -0.0464 -0.4170
  148SAPE  H10R16319   0.022   0.438   7.263  3.1137  2.5852 -1.8944
  148SAPE  H10S16320  -0.044   0.440   7.425  1.8184 -0.3166  0.0859
  148SAPE  C21116321   0.116   0.583   7.410  0.2740  0.2618 -0.2797
  148SAPE  H11R16322   0.213   0.593   7.360  1.2877 -1.5462  1.1682
  148SAPE  C21216323   0.110   0.646   7.536  0.0582  0.3726 -0.2535
  148SAPE  H12R16324   0.196   0.699   7.580  1.9015 -1.0218 -2.0230
  148SAPE  C21316325  -0.014   0.658   7.623 -0.5943  0.5719 -0.3452
  148SAPE  H13R16326  -0.002   0.617   7.726 -2.7130 -1.6934 -0.9107
  148SAPE  H13S16327  -0.095   0.594   7.582  0.3012 -2.8316  2.6600
  148SAPE  C21416328  -0.070   0.796   7.619  0.0534 -0.1888 -0.0224
  148SAPE  H14R16329  -0.034   0.860   7.537 -0.4781  0.9564  0.6163
  148SAPE  C21516330  -0.163   0.840   7.700  0.3173 -0.3808  0.3321
  148SAPE  H15R16331  -0.199   0.943   7.689 -1.1264 -1.0328 -1.6338
  148SAPE  C21616332  -0.225   0.769   7.817 -0.1369  0.1360  0.5148
  148SAPE  H16R16333  -0.179   0.814   7.907 -1.1935  1.4150  0.4490
  148SAPE  H16S16334  -0.196   0.662   7.815 -0.2176  0.1084  0.8548
  148SAPE  C21716335  -0.376   0.790   7.817  0.0417  0.4028 -0.4009
  148SAPE  H17R16336  -0.416   0.772   7.715 -1.3275  1.4753 -0.0702
  148SAPE  H17S16337  -0.397   0.898   7.831  0.0208  0.4387 -0.6887
  148SAPE  C21816338  -0.444   0.707   7.917 -0.6748  1.0687 -0.3162
  148SAPE  H18R16339  -0.402   0.721   8.019 -1.3014 -2.4789  0.5574
  148SAPE  H18S16340  -0.419   0.602   7.892  1.9102  2.0608 -2.3434
  148SAPE  C21916341  -0.596   0.730   7.923  0.1372 -0.4561 -0.0542
  148SAPE  H19R16342  -0.639   0.761   7.826 -2.0625  1.1279  1.3184
  148SAPE  H19S16343  -0.605   0.814   7.995 -0.9707  0.2085 -0.9278
  148SAPE  C22016344  -0.678   0.610   7.972 -0.0528  0.3483 -0.3159
  148SAPE  H20R16345  -0.640   0.526   7.909 -1.3589  0.5872 -1.4669
  148SAPE  H20S16346  -0.789   0.615   7.969 -0.0010  1.1903 -1.2851
  148SAPE  H20T16347  -0.654   0.590   8.079 -0.2635  1.7530  0.0143
  148SAPE   C3316348   0.382   0.112   6.736 -0.5810  1.1423 -0.5611
  148SAPE   H3X16349   0.277   0.112   6.700 -0.1633  1.3475 -1.8263
  148SAPE   H3Y16350   0.421   0.216   6.748  3.5087 -0.2644 -0.0855
  148SAPE   C3416351   0.410   0.057   6.871  0.2168 -0.6359  0.1232
  148SAPE   H4X16352   0.518   0.045   6.897  0.2350  1.7467  1.3784
  148SAPE   H4Y16353   0.345  -0.032   6.885  1.1413 -1.2930  0.3335
  148SAPE   C3516354   0.366   0.163   6.977 -0.2276 -0.3448 -0.0614
  148SAPE   H5X16355   0.258   0.186   6.965 -0.6370 -1.6940  0.8515
  148SAPE   H5Y16356   0.433   0.252   6.975  0.1386 -0.6186 -0.0995
  148SAPE   C3616357   0.371   0.098   7.113 -0.3444  1.2306  0.1418
  148SAPE   H6X16358   0.470   0.068   7.153 -1.1113 -1.7540  0.0135
  148SAPE   H6Y16359   0.308   0.007   7.100  0.2967  0.7122  0.5731
  148SAPE   C3716360   0.311   0.179   7.229 -0.0033 -0.2168 -0.7228
  148SAPE   H7X16361   0.213   0.223   7.202  0.5006  1.3275 -0.1509
  148SAPE   H7Y16362   0.385   0.259   7.246 -1.7693  2.2352 -3.6051
  148SAPE   C3816363   0.307   0.111   7.365  0.1571  0.2525  0.2602
  148SAPE   H8X16364   0.407   0.070   7.391  0.3203  0.6964  0.3430
  148SAPE   H8Y16365   0.225   0.037   7.357 -0.8064  1.3811 -0.6427
  148SAPE   C3916366   0.270   0.217   7.472 -0.3765  0.1361  0.5624
  148SAPE   H9X16367   0.198   0.297   7.441  0.6687  1.0123  0.3250
  148SAPE   H9Y16368   0.367   0.271   7.470  0.6416 -1.5966 -2.0014
  148SAPE  C31016369   0.238   0.172   7.614  1.2339 -0.4919 -0.5687
  148SAPE  H10X16370   0.333   0.148   7.666  1.6121  1.2040 -0.4369
  148SAPE  H10Y16371   0.174   0.081   7.609 -0.1990  0.4023  0.5752
  148SAPE  C31116372   0.172   0.277   7.699  0.2698  0.1585  0.0333
  148SAPE  H11X16373   0.068   0.293   7.664  0.0703 -1.9179 -0.4753
  148SAPE  H11Y16374   0.213   0.379   7.689 -1.2137  0.9389  1.4024
  148SAPE  C31216375   0.178   0.237   7.847  0.5654  0.2716  0.3297
  148SAPE  H12X16376   0.278   0.203   7.881  0.4298 -1.1462 -0.6309
  148SAPE  H12Y16377   0.107   0.156   7.872  1.5840 -0.2532  1.6298
  148SAPE  C31316378   0.159   0.367   7.933 -0.3480 -0.2882 -0.1022
  148SAPE  H13X16379   0.082   0.432   7.886 -1.1001 -1.5048 -0.6001
  148SAPE  H13Y16380   0.257   0.419   7.937 -0.8128  0.6130 -0.0272
  148SAPE  C31416381   0.102   0.335   8.072 -0.1666  0.0329 -0.5761
  148SAPE  H14X16382   0.014   0.272   8.044 -0.7278  0.3072  0.5269
  148SAPE  H14Y16383   0.064   0.427   8.121 -3.9939 -1.7178  0.1331
  148SAPE  C31516384   0.185   0.262   8.178  0.3555 -0.1313  0.1077
  148SAPE  H15X16385   0.271   0.329   8.198 -0.0454  0.5914 -0.5126
  148SAPE  H15Y16386   0.216   0.160   8.147 -0.4739 -0.6577  0.9583
  148SAPE  C31616387   0.108   0.238   8.308  0.7149  0.1290  0.2313
  148SAPE  H16X16388   0.011   0.184   8.299  0.1836  1.2097 -0.6581
  148SAPE  H16Y16389   0.064   0.335   8.340  0.9770 -0.0274  1.0813
  148SAPE  C31716390   0.204   0.172   8.412  0.3085  0.4343  0.0234
  148SAPE  H17X16391   0.232   0.076   8.363  1.3934 -0.6602  2.6085
  148SAPE  H17Y16392   0.148   0.148   8.505  1.1854 -1.9690  0.0161
  148SAPE  C31816393   0.326   0.256   8.460 -0.3038 -0.1927 -0.9233
  148SAPE  H18X16394   0.389   0.193   8.527 -0.8165  0.6288  0.3799
  148SAPE  H18Y16395   0.303   0.350   8.514  0.8886 -0.0774 -0.5823
  148SAPE  H18Z16396   0.392   0.289   8.377 -3.7343  1.7523 -3.1177
  149SAPE     N16397   6.486   0.107   5.872 -0.8905  0.3354  0.3075
  149SAPE   HN116398   6.412   0.138   5.807  1.5830  2.4044 -1.7521
  149SAPE   HN216399   6.571   0.104   5.811 -1.6595  1.4556 -0.8526
  149SAPE   HN316400   6.465   0.018   5.922  0.5887 -2.2644 -3.1711
  149SAPE   C1216401   6.514   0.213   5.981  0.0560  1.1315  0.5522
  149SAPE  H12A16402   6.625   0.220   5.992  0.4856 -0.6151 -1.8601
  149SAPE  H12B16403   6.477   0.162   6.072  1.5239  0.2348  0.6861
  149SAPE   C1116404   6.421   0.335   5.959  0.2237 -0.6153 -0.1726
  149SAPE  H11A16405   6.441   0.405   5.875 -0.4136 -0.6778 -0.3768
  149SAPE  H11B16406   6.435   0.387   6.057 -0.6464 -2.0110  0.7283
  149SAPE     P16407   6.151   0.334   6.008 -0.3834 -0.4004  0.0039
  149SAPE   O1316408   6.104   0.449   5.929  0.5766 -0.1237 -0.6908
  149SAPE   O1416409   6.067   0.209   5.989  0.2869 -0.3843  0.2928
  149SAPE   O1216410   6.291   0.282   5.956  0.3498  0.1983 -0.1673
  149SAPE   O1116411   6.171   0.364   6.163 -0.3589 -0.2220 -0.2385
  149SAPE    C116412   6.235   0.262   6.240  0.3383  0.5032  0.4687
  149SAPE    HA16413   6.229   0.158   6.201 -1.2830  0.8363 -0.2603
  149SAPE    HB16414   6.342   0.292   6.250  1.1282 -1.6395 -0.9550
  149SAPE    C216415   6.172   0.247   6.384 -0.3033 -0.5680  0.2493
  149SAPE    HS16416   6.064   0.226   6.375 -0.3131 -0.1540 -0.6125
  149SAPE   O2116417   6.187   0.371   6.450  1.0038 -0.3879 -0.0293
  149SAPE   C2116418   6.107   0.395   6.556  0.2997 -0.4136 -0.8511
  149SAPE   O2216419   6.013   0.327   6.594 -0.4626 -0.4036 -0.3062
  149SAPE   C2216420   6.154   0.528   6.615 -0.2998 -0.1467  0.3945
  149SAPE   H2R16421   6.265   0.537   6.616 -0.3774  1.1357  0.3496
  149SAPE   H2S16422   6.133   0.608   6.540  0.4478  1.6440  1.9967
  149SAPE    C316423   6.236   0.126   6.456  0.0704  0.3890  0.4675
  149SAPE    HX16424   6.347   0.136   6.454  0.2330 -0.8863  1.7099
  149SAPE    HY16425   6.219   0.033   6.398  1.9973  0.4894 -0.3353
  149SAPE   O3116426   6.193   0.110   6.590 -0.0755 -0.8479  0.2102
  149SAPE   C3116427   6.066   0.054   6.607 -0.0834 -0.7595  1.0259
  149SAPE   O3216428   5.996   0.017   6.516 -0.0043 -0.0608 -0.4580
  149SAPE   C3216429   6.015   0.067   6.750 -0.3096  0.1652  1.2121
  149SAPE   H2X16430   5.904   0.072   6.755 -0.6293 -2.3947 -0.9473
  149SAPE   H2Y16431   6.055   0.163   6.788  1.5993  0.6590 -1.7334
  149SAPE   C2316432   6.098   0.568   6.752  0.3854  0.4663  0.1980
  149SAPE   H3R16433   6.126   0.494   6.830 -0.8004 -2.0690 -1.6361
  149SAPE   H3S16434   5.991   0.552   6.726  0.6784  1.0511 -1.5617
  149SAPE   C2416435   6.135   0.709   6.797 -1.0701 -0.4657 -0.6000
  149SAPE   H4R16436   6.074   0.735   6.886  1.0596  1.3284  0.4252
  149SAPE   H4S16437   6.105   0.771   6.710 -1.5127 -1.2888 -1.0506
  149SAPE   C2516438   6.280   0.723   6.847  0.1338 -0.0014 -0.3832
  149SAPE   H5R16439   6.364   0.759   6.786 -0.2316 -0.3757 -1.1139
  149SAPE   C2616440   6.318   0.688   6.969 -0.0294  0.4875  0.2605
  149SAPE   H6R16441   6.427   0.698   6.985  0.1761  2.6840 -1.9759
  149SAPE   C2716442   6.242   0.628   7.072  0.3336 -0.2415 -0.4930
  149SAPE   H7R16443   6.315   0.554   7.111  0.1225 -0.1933  0.0024
  149SAPE   H7S16444   6.156   0.574   7.027 -1.0561  1.8437 -0.4735
  149SAPE   C2816445   6.199   0.711   7.189 -0.1242 -0.2222 -0.0573
  149SAPE   H8R16446   6.157   0.807   7.157  2.7130  0.8006 -0.9535
  149SAPE   C2916447   6.210   0.678   7.319  0.4851  0.4435  0.2806
  149SAPE   H9R16448   6.179   0.747   7.400  0.2409 -0.2172  0.7630
  149SAPE  C21016449   6.266   0.544   7.373 -0.1022  0.0214 -0.4258
  149SAPE  H10R16450   6.341   0.499   7.306 -1.4867 -0.8403 -1.4502
  149SAPE  H10S16451   6.178   0.476   7.377 -0.4824  0.4288 -1.5588
  149SAPE  C21116452   6.313   0.561   7.513 -1.1486 -0.1793 -0.1135
  149SAPE  H11R16453   6.288   0.655   7.564  0.3351  0.5314 -0.6352
  149SAPE  C21216454   6.394   0.475   7.584  0.1950  0.4577  0.3117
  149SAPE  H12R16455   6.419   0.500   7.688 -1.5977 -0.3719  0.9811
  149SAPE  C21316456   6.452   0.352   7.532 -0.1131  0.5863  0.0755
  149SAPE  H13R16457   6.448   0.362   7.421 -2.4853 -1.8149 -0.1675
  149SAPE  H13S16458   6.389   0.263   7.555 -0.1671  0.9958  1.5603
  149SAPE  C21416459   6.599   0.349   7.580 -0.1410 -0.1108 -0.4552
  149SAPE  H14R16460   6.663   0.431   7.546  0.3636 -1.3218 -2.5950
  149SAPE  C21516461   6.643   0.276   7.683 -0.3931 -0.3898  0.0829
  149SAPE  H15R16462   6.751   0.277   7.701 -0.3681 -0.8485 -0.0489
  149SAPE  C21616463   6.575   0.167   7.759  0.7266 -0.9402  0.4401
  149SAPE  H16R16464   6.641   0.080   7.780  0.3613 -1.1949  0.5507
  149SAPE  H16S16465   6.492   0.116   7.706 -0.0743 -1.9892  2.6017
  149SAPE  C21716466   6.517   0.228   7.886  0.1947 -0.9612 -0.8483
  149SAPE  H17R16467   6.443   0.153   7.923  0.1595 -1.5221 -2.0112
  149SAPE  H17S16468   6.456   0.320   7.872  0.2076 -0.8554 -0.2523
  149SAPE  C21816469   6.624   0.238   8.003  0.1356 -0.1279  0.0798
  149SAPE  H18R16470   6.711   0.299   7.974  0.7765 -0.1380  1.8322
  149SAPE  H18S16471   6.669   0.139   8.023 -0.4389 -0.9173 -2.2603
  149SAPE  C21916472   6.563   0.301   8.130 -0.1860 -0.0710  0.8947
  149SAPE  H19R16473   6.463   0.255   8.149  0.1734 -0.6371  1.4708
  149SAPE  H19S16474   6.548   0.406   8.096  0.1212 -0.9922 -2.4183
  149SAPE  C22016475   6.637   0.300   8.264  0.7473  0.0453  0.4120
  149SAPE  H20R16476   6.577   0.340   8.348  0.3258  1.4623 -0.5220
  149SAPE  H20S16477   6.730   0.361   8.264  1.9482 -1.6318  2.7982
  149SAPE  H20T16478   6.673   0.197   8.285  0.3305 -0.0594  0.6289
  149SAPE   C3316479   6.051  -0.065   6.835 -0.1372 -0.7264 -0.0867
  149SAPE   H3X16480   6.162  -0.059   6.838 -0.0833 -1.1022 -0.9609
  149SAPE   H3Y16481   6.019  -0.160   6.786 -0.2366 -0.3159 -0.8321
  149SAPE   C3416482   5.986  -0.056   6.975  0.0889 -0.2269 -0.0321
  149SAPE   H4X16483   5.877  -0.076   6.963 -0.1406  0.2546  1.1541
  149SAPE   H4Y16484   5.997   0.048   7.013 -0.8527 -0.6643  1.4914
  149SAPE   C3516485   6.044  -0.158   7.073 -0.5161  0.4529  0.6754
  149SAPE   H5X16486   6.145  -0.123   7.102 -1.2548  1.7838  1.7333
  149SAPE   H5Y16487   6.053  -0.256   7.021  3.6571  2.5825 -3.3809
  149SAPE   C3616488   5.974  -0.187   7.197  0.4244 -0.3275 -0.0350
  149SAPE   H6X16489   5.882  -0.247   7.189  0.7896 -0.7913 -0.9178
  149SAPE   H6Y16490   5.935  -0.093   7.242  0.1969 -0.4859  0.0991
  149SAPE   C3716491   6.065  -0.271   7.294 -0.1452 -0.5842  0.0977
  149SAPE   H7X16492   6.148  -0.207   7.332  1.4380 -0.9670 -2.5148
  149SAPE   H7Y16493   6.127  -0.354   7.255  0.1577 -0.1979 -0.2529
  149SAPE   C3816494   5.988  -0.316   7.425 -0.2993 -0.0409 -0.0222
  149SAPE   H8X16495   5.920  -0.397   7.392  1.2050 -0.7204 -1.6370
  149SAPE   H8Y16496   5.937  -0.229   7.472  0.1647  0.2930 -0.1258
  149SAPE   C3916497   6.080  -0.377   7.526 -0.1324  0.1108 -0.3723
  149SAPE   H9X16498   6.118  -0.302   7.598 -0.0391  1.3366 -1.6677
  149SAPE   H9Y16499   6.169  -0.409   7.467  1.2361 -3.3672  3.1254
  149SAPE  C31016500   6.013  -0.496   7.598 -0.6988 -0.3674 -0.1364
  149SAPE  H10X16501   5.989  -0.556   7.508 -0.5326  1.2564 -1.2998
  149SAPE  H10Y16502   5.925  -0.451   7.650 -0.6178 -0.0966 -0.2354
  149SAPE  C31116503   6.105  -0.575   7.689 -0.7595  0.0563  0.3970
  149SAPE  H11X16504   6.132  -0.509   7.774  1.2456 -0.3642  0.1278
  149SAPE  H11Y16505   6.191  -0.615   7.632 -1.8135 -0.5550 -0.8318
  149SAPE  C31216506   6.018  -0.689   7.748 -0.5393 -0.0545 -0.3743
  149SAPE  H12X16507   5.991  -0.761   7.668  0.3733 -1.1563  0.2677
  149SAPE  H12Y16508   5.927  -0.640   7.788  0.0236  1.3816 -0.7681
  149SAPE  C31316509   6.094  -0.774   7.858 -0.1808  0.1682 -0.0914
  149SAPE  H13X16510   6.188  -0.801   7.805 -0.9654  1.9389 -2.6011
  149SAPE  H13Y16511   6.033  -0.860   7.890  1.4452 -1.6578 -1.6081
  149SAPE  C31416512   6.134  -0.697   7.979 -0.1908 -0.3459  0.0849
  149SAPE  H14X16513   6.042  -0.645   8.014  1.3031  2.2408  0.4502
  149SAPE  H14Y16514   6.216  -0.626   7.953  0.1226 -0.3986  0.8970
  149SAPE  C31516515   6.191  -0.787   8.089 -0.4647 -0.5237  0.7620
  149SAPE  H15X16516   6.287  -0.747   8.127 -0.3556  1.5195 -1.4040
  149SAPE  H15Y16517   6.208  -0.888   8.047  0.6993 -0.2680  0.5952
  149SAPE  C31616518   6.098  -0.799   8.208 -0.2042  0.5124 -0.1932
  149SAPE  H16X16519   6.107  -0.900   8.254 -0.1662  0.0714 -1.1546
  149SAPE  H16Y16520   5.994  -0.782   8.171  0.2402  2.2576 -0.7316
  149SAPE  C31716521   6.122  -0.701   8.319 -0.1095 -0.0193  1.2523
  149SAPE  H17X16522   6.026  -0.672   8.368 -0.8787 -0.7996  0.2305
  149SAPE  H17Y16523   6.163  -0.609   8.271  0.3693  0.1666  1.9979
  149SAPE  C31816524   6.213  -0.749   8.424 -0.1387 -0.2400  0.5077
  149SAPE  H18X16525   6.165  -0.831   8.482 -2.6044  0.5234 -0.3194
  149SAPE  H18Y16526   6.245  -0.676   8.501 -0.7425  0.9863 -0.3643
  149SAPE  H18Z16527   6.305  -0.791   8.377  0.9983  3.5868 -1.0872
  150SAPE     N16528   6.138   3.403   5.590  0.0822 -0.1084  0.1266
  150SAPE   HN116529   6.090   3.485   5.631 -0.7260 -1.0703  1.1428
  150SAPE   HN216530   6.240   3.426   5.587 -0.1338  1.0439  1.1288
  150SAPE   HN316531   6.100   3.387   5.495  1.0429 -0.3880 -0.2300
  150SAPE   C1216532   6.134   3.271   5.677  0.0966 -0.3749  0.0042
  150SAPE  H12A16533   6.190   3.303   5.767 -0.3066 -0.1437  0.1754
  150SAPE  H12B16534   6.179   3.186   5.621 -1.6118 -0.7532 -0.8755
  150SAPE   C1116535   5.994   3.242   5.718 -0.2228 -0.5071  0.3146
  150SAPE  H11A16536   5.980   3.145   5.769 -3.3304  0.7684  2.1925
  150SAPE  H11B16537   5.919   3.253   5.637  0.5514  3.7890 -0.0719
  150SAPE     P16538   5.825   3.332   5.908  0.1561 -0.3282 -0.4957
  150SAPE   O1316539   5.770   3.465   5.878  0.1087 -0.2369 -0.2594
  150SAPE   O1416540   5.745   3.222   5.868  0.6826  0.4313 -0.2911
  150SAPE   O1216541   5.960   3.325   5.827  0.7354 -0.3829 -0.7294
  150SAPE   O1116542   5.851   3.326   6.063  0.0427 -0.1533 -0.0251
  150SAPE    C116543   5.919   3.431   6.134 -0.3760 -0.3601 -0.0250
  150SAPE    HA16544   5.931   3.523   6.073 -2.7440 -0.3987 -0.6153
  150SAPE    HB16545   5.856   3.462   6.220 -2.0464 -2.5884 -0.3604
  150SAPE    C216546   6.068   3.400   6.179 -0.3597 -0.3297 -0.2564
  150SAPE    HS16547   6.131   3.374   6.091  4.2172 -0.0577  2.6261
  150SAPE   O2116548   6.062   3.285   6.258 -0.0790  0.3987 -0.4889
  150SAPE   C2116549   6.174   3.227   6.287 -0.4589 -0.1628  0.3266
  150SAPE   O2216550   6.286   3.251   6.236  0.6086  0.3269 -0.1355
  150SAPE   C2216551   6.148   3.119   6.395 -0.2419 -1.2779  0.6490
  150SAPE   H2R16552   6.041   3.092   6.405 -0.3819 -1.3654 -0.8341
  150SAPE   H2S16553   6.206   3.029   6.362 -1.0047 -0.5453 -3.2328
  150SAPE    C316554   6.123   3.527   6.251 -0.5552 -0.1781 -0.2411
  150SAPE    HX16555   6.136   3.600   6.168 -0.8480 -1.8304 -1.8126
  150SAPE    HY16556   6.220   3.504   6.299 -1.4691 -0.9483  1.3356
  150SAPE   O3116557   6.033   3.572   6.355  0.4637 -0.2377  0.2009
  150SAPE   C3116558   6.026   3.710   6.363 -0.1126 -0.2008  0.5402
  150SAPE   O3216559   6.080   3.782   6.284 -0.3081  0.2428 -0.4442
  150SAPE   C3216560   5.946   3.770   6.471  1.6333  0.4862 -0.5209
  150SAPE   H2X16561   5.992   3.741   6.567  2.1560 -0.2063 -0.9725
  150SAPE   H2Y16562   5.846   3.724   6.456  0.0180  3.3096  0.7497
  150SAPE   C2316563   6.202   3.190   6.533 -0.1714 -0.1877  0.2725
  150SAPE   H3R16564   6.163   3.294   6.525 -0.2049 -0.2942 -1.1152
  150SAPE   H3S16565   6.313   3.196   6.528 -0.1718  1.2837  1.4196
  150SAPE   C2416566   6.150   3.120   6.663  1.0471  0.4058  0.1215
  150SAPE   H4R16567   6.041   3.119   6.644  1.0272  1.2578  0.1483
  150SAPE   H4S16568   6.170   3.183   6.753  0.9939  0.8146 -0.1521
  150SAPE   C2516569   6.201   2.978   6.683  0.3941  0.2936 -0.1704
  150SAPE   H5R16570   6.160   2.897   6.620  0.6342 -0.8211  1.0663
  150SAPE   C2616571   6.291   2.941   6.777 -0.8992  0.7574  0.8185
  150SAPE   H6R16572   6.328   2.839   6.760 -1.5015  0.5241  0.8637
  150SAPE   C2716573   6.384   3.029   6.852  0.0873 -0.5353  0.1369
  150SAPE   H7R16574   6.336   3.090   6.931  0.4618 -0.9857  0.7158
  150SAPE   H7S16575   6.434   3.098   6.781 -0.5880  1.3802  1.4556
  150SAPE   C2816576   6.490   2.946   6.919 -0.1390 -0.8891  0.0142
  150SAPE   H8R16577   6.547   2.876   6.856  2.5667  0.1409  1.1625
  150SAPE   C2916578   6.508   2.936   7.055 -0.4429  0.4864  0.2070
  150SAPE   H9R16579   6.590   2.876   7.097  0.7397  1.3897 -0.7323
  150SAPE  C21016580   6.434   3.003   7.163 -0.0745  0.0822  0.1389
  150SAPE  H10R16581   6.412   2.921   7.235 -0.3830 -0.2232 -0.2911
  150SAPE  H10S16582   6.332   3.040   7.140 -0.2507  0.6857  1.7637
  150SAPE  C21116583   6.509   3.117   7.227 -0.1915 -0.3808  0.0910
  150SAPE  H11R16584   6.515   3.208   7.165  2.2568  0.2734  1.1609
  150SAPE  C21216585   6.558   3.113   7.352 -0.7860 -0.2760 -0.2194
  150SAPE  H12R16586   6.619   3.200   7.382 -0.0520 -1.2780  1.3591
  150SAPE  C21316587   6.548   3.011   7.455  0.5911 -0.3239  0.2837
  150SAPE  H13R16588   6.494   2.919   7.425  1.1987 -0.4889 -0.3380
  150SAPE  H13S16589   6.491   3.048   7.543  0.1463 -0.2227 -0.0473
  150SAPE  C21416590   6.690   2.975   7.489 -0.6660 -0.0823  0.0252
  150SAPE  H14R16591   6.760   2.952   7.407  0.2750  0.2059  0.7353
  150SAPE  C21516592   6.734   2.959   7.617  0.1404  0.8070  0.6436
  150SAPE  H15R16593   6.842   2.943   7.630 -0.2225  0.0832  3.2253
  150SAPE  C21616594   6.647   2.957   7.739 -0.2089 -0.8594 -0.5109
  150SAPE  H16R16595   6.685   2.877   7.807  0.0597  0.8203  1.4057
  150SAPE  H16S16596   6.539   2.941   7.723 -0.7204  2.0702 -0.5319
  150SAPE  C21716597   6.685   3.086   7.823  0.6642 -0.7697  0.2311
  150SAPE  H17R16598   6.643   3.177   7.775 -1.2825 -1.3899  0.6712
  150SAPE  H17S16599   6.795   3.102   7.821  0.6200 -0.4717  0.1234
  150SAPE  C21816600   6.634   3.089   7.968 -0.4047  0.1371  0.0401
  150SAPE  H18R16601   6.702   3.018   8.020 -0.1866 -1.4101 -2.2247
  150SAPE  H18S16602   6.531   3.047   7.981 -0.5308 -1.0192 -3.5844
  150SAPE  C21916603   6.640   3.221   8.046 -0.2173  0.6156 -0.4133
  150SAPE  H19R16604   6.582   3.302   7.996 -0.6797 -0.0934 -1.0504
  150SAPE  H19S16605   6.748   3.247   8.048  0.6392 -2.5845  2.3361
  150SAPE  C22016606   6.597   3.206   8.188  0.4840 -0.5874 -0.4174
  150SAPE  H20R16607   6.629   3.111   8.236  0.6530 -0.0595  0.5560
  150SAPE  H20S16608   6.486   3.215   8.185  0.5291 -0.1816 -1.2384
  150SAPE  H20T16609   6.633   3.292   8.250 -1.4654  0.6355 -0.8605
  150SAPE   C3316610   5.944   3.925   6.457 -0.3526  0.1918 -0.4266
  150SAPE   H3X16611   5.868   3.961   6.385 -1.1423 -0.7032 -0.0696
  150SAPE   H3Y16612   6.043   3.963   6.424  0.9366 -2.1680  0.4278
  150SAPE   C3416613   5.927   3.996   6.595  0.0695  0.2594  0.7548
  150SAPE   H4X16614   5.928   4.105   6.575  0.4459 -0.0563 -1.2369
  150SAPE   H4Y16615   6.014   3.964   6.657 -0.6365 -2.8969  0.2922
  150SAPE   C3516616   5.802   3.963   6.665  0.2207 -0.2748 -0.3584
  150SAPE   H5X16617   5.824   3.863   6.710  2.4978  0.2712 -0.1194
  150SAPE   H5Y16618   5.713   3.961   6.599 -0.0683 -1.7466  0.0349
  150SAPE   C3616619   5.777   4.071   6.778  0.5108  0.6447  0.5319
  150SAPE   H6X16620   5.682   4.040   6.827  0.4500 -0.3650 -0.1905
  150SAPE   H6Y16621   5.758   4.172   6.733 -1.1808  0.4771  0.7912
  150SAPE   C3716622   5.878   4.086   6.889  0.0843 -0.1521 -0.0091
  150SAPE   H7X16623   5.974   4.128   6.851 -0.4960 -0.6308 -2.1226
  150SAPE   H7Y16624   5.906   3.990   6.937  2.0196  0.4940  0.2751
  150SAPE   C3816625   5.828   4.158   7.015 -0.3794 -0.0802 -0.5554
  150SAPE   H8X16626   5.759   4.084   7.060 -0.2393 -0.0556 -0.2978
  150SAPE   H8Y16627   5.777   4.252   6.983 -1.8823 -1.4646 -2.5018
  150SAPE   C3916628   5.943   4.195   7.112 -0.4820 -0.1620 -0.7976
  150SAPE   H9X16629   6.014   4.270   7.072  1.7002  0.5332  3.7335
  150SAPE   H9Y16630   6.000   4.102   7.136 -0.1358  0.1468 -0.4094
  150SAPE  C31016631   5.881   4.241   7.242  0.4093 -0.1054 -0.1536
  150SAPE  H10X16632   5.795   4.175   7.268 -0.6193  0.8517 -1.0581
  150SAPE  H10Y16633   5.829   4.338   7.245  0.6602  0.0081  0.9652
  150SAPE  C31116634   5.977   4.242   7.355  0.6625 -0.1352 -0.2563
  150SAPE  H11X16635   6.071   4.298   7.338  0.9453 -0.2477  0.8797
  150SAPE  H11Y16636   6.010   4.137   7.371  1.9971  0.1350 -1.0488
  150SAPE  C31216637   5.915   4.298   7.485  0.0278  0.3096  0.5981
  150SAPE  H12X16638   5.847   4.222   7.530 -0.5586 -0.7587 -1.9247
  150SAPE  H12Y16639   5.841   4.378   7.463 -0.2262 -0.4204 -1.4097
  150SAPE  C31316640   6.020   4.318   7.599  0.2865 -0.6205  0.0009
  150SAPE  H13X16641   6.096   4.395   7.573  0.0164  0.4725  2.1983
  150SAPE  H13Y16642   6.073   4.221   7.609  2.5052  0.5009 -0.2447
  150SAPE  C31416643   5.941   4.368   7.723  0.0765 -0.9346  0.1075
  150SAPE  H14X16644   5.866   4.289   7.748  0.7240 -1.0466  1.7962
  150SAPE  H14Y16645   5.894   4.467   7.708 -0.0959 -0.7934  1.4379
  150SAPE  C31516646   6.008   4.386   7.860 -0.3764  0.2085 -0.2140
  150SAPE  H15X16647   5.927   4.393   7.936  1.0873  0.3298  1.4035
  150SAPE  H15Y16648   6.058   4.484   7.871  1.5249 -0.7679  0.3019
  150SAPE  C31616649   6.112   4.280   7.888 -0.1037 -0.3004 -0.3072
  150SAPE  H16X16650   6.195   4.287   7.814  0.2824 -1.0420  0.0407
  150SAPE  H16Y16651   6.063   4.183   7.867 -1.0810 -0.2792  1.7287
  150SAPE  C31716652   6.175   4.255   8.026  1.2560  0.4783  0.1810
  150SAPE  H17X16653   6.213   4.349   8.070  1.1806 -0.2759  1.9169
  150SAPE  H17Y16654   6.258   4.181   8.028  1.0308  0.2417  1.9591
  150SAPE  C31816655   6.062   4.202   8.120 -0.2646 -0.4926  0.0030
  150SAPE  H18X16656   6.101   4.181   8.222 -0.2694 -1.3045 -0.1598
  150SAPE  H18Y16657   6.016   4.114   8.070 -0.2899 -0.2776 -0.3562
  150SAPE  H18Z16658   5.985   4.282   8.125  1.1772  0.9609 -0.1698
  151SAPE     N16659   1.996   4.371   6.582  0.2874 -0.0262  0.2550
  151SAPE   HN116660   2.097   4.391   6.593  0.0977  1.7933 -0.9452
  151SAPE   HN216661   1.969   4.276   6.616  0.2267  0.0338  0.3730
  151SAPE   HN316662   1.966   4.380   6.483 -0.9997  1.1945  0.7206
  151SAPE   C1216663   1.926   4.484   6.660  0.6173 -0.7029 -0.3206
  151SAPE  H12A16664   1.927   4.454   6.767  1.3727 -2.2837 -0.7416
  151SAPE  H12B16665   1.824   4.490   6.616  0.0889 -1.6193  0.7385
  151SAPE   C1116666   1.999   4.621   6.635  0.0192 -0.2199  0.4887
  151SAPE  H11A16667   1.958   4.705   6.696 -0.4077  2.3593 -3.0465
  151SAPE  H11B16668   1.976   4.646   6.529 -0.0336  0.5266  0.6706
  151SAPE     P16669   2.231   4.713   6.621 -0.2310 -0.1864 -0.0537
  151SAPE   O1316670   2.370   4.663   6.644 -0.0231  0.1381  0.4262
  151SAPE   O1416671   2.197   4.753   6.481  0.4728 -0.0185 -0.0087
  151SAPE   O1216672   2.138   4.598   6.654 -0.1555 -0.1249 -0.2015
  151SAPE   O1116673   2.197   4.831   6.718  0.0969 -0.1453  0.1617
  151SAPE    C116674   2.208   4.824   6.860 -0.0599  0.2898  0.7481
  151SAPE    HA16675   2.170   4.726   6.896  2.9179 -1.1877  0.1857
  151SAPE    HB16676   2.315   4.822   6.891 -0.2030 -0.2843  1.2162
  151SAPE    C216677   2.145   4.952   6.914  0.5336 -0.9337 -0.5457
  151SAPE    HS16678   2.198   5.032   6.858  0.6959 -1.1959 -0.7723
  151SAPE   O2116679   2.152   4.951   7.052 -0.3349  0.3544  0.4655
  151SAPE   C2116680   2.262   5.007   7.101  0.1277 -0.0064 -0.8742
  151SAPE   O2216681   2.340   5.064   7.033 -0.8109  0.2771  0.0962
  151SAPE   C2216682   2.262   4.997   7.251  0.2654 -0.5185 -0.6357
  151SAPE   H2R16683   2.275   4.889   7.273  2.0730 -0.3413 -0.7175
  151SAPE   H2S16684   2.349   5.061   7.280 -0.3364 -1.0710  2.9060
  151SAPE    C316685   1.991   4.973   6.883 -0.3941  0.3699  0.2776
  151SAPE    HX16686   1.968   4.991   6.776 -3.0997  1.0362  0.8987
  151SAPE    HY16687   1.954   5.063   6.936  1.3430  0.6959  1.0104
  151SAPE   O3116688   1.917   4.853   6.921 -0.0807  0.1056 -0.1744
  151SAPE   C3116689   1.806   4.872   6.982  0.4862 -0.7219 -0.8337
  151SAPE   O3216690   1.744   4.975   7.008 -0.0344  0.7918  0.4880
  151SAPE   C3216691   1.760   4.735   7.037 -0.1883  0.3570 -0.4447
  151SAPE   H2X16692   1.842   4.695   7.101 -2.2981  0.9669  2.8689
  151SAPE   H2Y16693   1.748   4.675   6.944 -2.6246  0.5224 -0.3029
  151SAPE   C2316694   2.134   5.057   7.308 -0.2853 -0.9312  0.0440
  151SAPE   H3R16695   2.049   4.986   7.303 -0.2662 -1.0943  1.5560
  151SAPE   H3S16696   2.093   5.152   7.266 -3.4361 -1.2926  1.9647
  151SAPE   C2416697   2.146   5.069   7.467 -0.3398 -0.2448  0.0659
  151SAPE   H4R16698   2.145   4.964   7.505  0.5228 -0.7762 -1.3194
  151SAPE   H4S16699   2.057   5.108   7.522  0.0187 -0.7819  1.0471
  151SAPE   C2516700   2.268   5.155   7.505 -0.9834  0.7788  0.4711
  151SAPE   H5R16701   2.262   5.256   7.463 -3.0033 -0.3239 -2.2370
  151SAPE   C2616702   2.379   5.106   7.559  0.3119  0.4892 -0.6069
  151SAPE   H6R16703   2.464   5.171   7.583  0.1358  1.1254 -1.6402
  151SAPE   C2716704   2.390   4.965   7.613 -0.0851 -0.6325 -0.0968
  151SAPE   H7R16705   2.491   4.922   7.593 -0.4438 -0.5407 -2.3710
  151SAPE   H7S16706   2.335   4.899   7.543  1.5582 -0.7964 -1.3105
  151SAPE   C2816707   2.333   4.939   7.746  0.1770 -0.3656  0.0708
  151SAPE   H8R16708   2.227   4.910   7.742  0.4801 -1.7740  1.2677
  151SAPE   C2916709   2.390   4.945   7.860 -0.7284 -0.3446 -0.3147
  151SAPE   H9R16710   2.338   4.946   7.956  1.8359 -2.7223  1.2479
  151SAPE  C21016711   2.535   4.981   7.882  0.3826  0.7354 -0.3252
  151SAPE  H10R16712   2.547   5.050   7.968  0.6500  0.0880  0.1638
  151SAPE  H10S16713   2.575   5.038   7.795 -0.2830 -0.6774 -1.5821
  151SAPE  C21116714   2.618   4.864   7.903 -0.1338 -0.4488  0.0227
  151SAPE  H11R16715   2.639   4.805   7.813 -1.8100 -0.7466 -0.2044
  151SAPE  C21216716   2.675   4.823   8.020 -0.7435  0.0347 -0.3933
  151SAPE  H12R16717   2.739   4.734   8.030 -0.1123  0.6042  0.8013
  151SAPE  C21316718   2.661   4.875   8.157 -0.6253 -0.1884  0.0723
  151SAPE  H13R16719   2.591   4.805   8.208 -1.1216 -1.7526 -2.5452
  151SAPE  H13S16720   2.616   4.976   8.154  1.1063  0.6016 -0.1322
  151SAPE  C21416721   2.792   4.897   8.228 -0.1623 -0.1619 -0.3923
  151SAPE  H14R16722   2.883   4.925   8.172  0.6227  1.7572  1.6905
  151SAPE  C21516723   2.812   4.886   8.362 -0.2590  0.2718  0.4953
  151SAPE  H15R16724   2.913   4.906   8.402 -0.6605  1.0972  1.1418
  151SAPE  C21616725   2.705   4.859   8.466  0.3083  0.6957 -0.3465
  151SAPE  H16R16726   2.602   4.892   8.442 -0.1695  0.8847  1.7674
  151SAPE  H16S16727   2.730   4.928   8.549 -1.3861  1.2652 -0.2797
  151SAPE  C21716728   2.707   4.718   8.520 -0.5574  0.1507 -0.3861
  151SAPE  H17R16729   2.659   4.702   8.619 -1.0120 -1.5958 -0.8559
  151SAPE  H17S16730   2.813   4.684   8.525 -0.1632  1.2109 -1.1125
  151SAPE  C21816731   2.636   4.607   8.429 -0.3348 -0.2086 -0.7088
  151SAPE  H18R16732   2.697   4.608   8.336  0.4285  2.6004 -0.2789
  151SAPE  H18S16733   2.530   4.638   8.417 -0.4832 -0.6725 -0.5839
  151SAPE  C21916734   2.635   4.469   8.496 -0.1694 -0.4910  0.5321
  151SAPE  H19R16735   2.617   4.476   8.605  0.3673 -0.0993  0.5982
  151SAPE  H19S16736   2.738   4.431   8.478  0.2212 -0.4066  2.4207
  151SAPE  C22016737   2.539   4.374   8.427  0.2620 -0.1494 -0.7709
  151SAPE  H20R16738   2.541   4.372   8.316 -0.5050  1.8317 -0.8532
  151SAPE  H20S16739   2.567   4.272   8.462 -1.4285 -0.4389 -0.2051
  151SAPE  H20T16740   2.437   4.375   8.470  0.4623 -0.6546 -0.2628
  151SAPE   C3316741   1.631   4.741   7.109 -0.7884  0.4955 -0.0479
  151SAPE   H3X16742   1.574   4.646   7.117 -0.6868  0.5573  2.1625
  151SAPE   H3Y16743   1.567   4.800   7.040 -0.8724 -0.2050 -0.5815
  151SAPE   C3416744   1.633   4.797   7.251 -0.7061 -0.6232  0.9077
  151SAPE   H4X16745   1.666   4.903   7.243 -1.0771 -0.5958 -0.5680
  151SAPE   H4Y16746   1.713   4.747   7.309 -0.1506  0.4698  1.1173
  151SAPE   C3516747   1.499   4.801   7.316 -0.3796  0.2899  0.3360
  151SAPE   H5X16748   1.441   4.706   7.316  0.2930 -0.1268 -0.4693
  151SAPE   H5Y16749   1.435   4.884   7.278  0.4138  0.2021 -1.2372
  151SAPE   C3616750   1.519   4.841   7.466 -0.0361  0.3457 -0.3334
  151SAPE   H6X16751   1.575   4.937   7.462  0.6508 -0.0865 -1.9320
  151SAPE   H6Y16752   1.578   4.764   7.519  2.3578  1.3943 -1.2989
  151SAPE   C3716753   1.383   4.866   7.537  0.3512  0.1970 -0.2848
  151SAPE   H7X16754   1.311   4.784   7.515 -0.1828 -0.2355  2.6328
  151SAPE   H7Y16755   1.326   4.950   7.494 -1.8232 -1.0517  0.0030
  151SAPE   C3816756   1.401   4.884   7.691 -0.3336  0.6027  0.2296
  151SAPE   H8X16757   1.464   4.974   7.705 -0.3546  0.9085 -1.4130
  151SAPE   H8Y16758   1.441   4.792   7.739  0.2265  0.4538 -0.5122
  151SAPE   C3916759   1.274   4.927   7.761  0.2895  0.3739  0.1054
  151SAPE   H9X16760   1.188   4.874   7.714 -0.4953 -0.6528  2.5139
  151SAPE   H9Y16761   1.263   5.036   7.743  1.5455  0.4252 -0.4264
  151SAPE  C31016762   1.276   4.888   7.909  0.3565  0.0660  0.0813
  151SAPE  H10X16763   1.322   4.788   7.923  0.0385 -0.0031  0.6268
  151SAPE  H10Y16764   1.170   4.890   7.944 -0.3297 -0.7563 -1.7952
  151SAPE  C31116765   1.366   4.981   7.998 -0.7045  0.2297 -0.1789
  151SAPE  H11X16766   1.322   5.083   7.990  0.4932  0.8605  0.9944
  151SAPE  H11Y16767   1.462   4.996   7.945 -0.0503 -2.5474  0.0354
  151SAPE  C31216768   1.382   4.931   8.142 -0.0490  0.2784  0.6112
  151SAPE  H12X16769   1.428   4.830   8.154 -0.4686  0.1064  0.7797
  151SAPE  H12Y16770   1.277   4.918   8.176  0.8586  0.8540  3.9606
  151SAPE  C31316771   1.451   5.036   8.227 -0.2809 -0.2643 -0.0344
  151SAPE  H13X16772   1.413   5.133   8.188  0.4425 -0.8913 -2.4537
  151SAPE  H13Y16773   1.555   5.048   8.188 -0.8823 -2.1650 -2.5062
  151SAPE  C31416774   1.452   5.006   8.380  0.2900  0.4776  0.2757
  151SAPE  H14X16775   1.511   4.912   8.386 -0.9821 -0.3076  0.7972
  151SAPE  H14Y16776   1.346   5.001   8.413 -1.2540  1.1452 -4.0115
  151SAPE  C31516777   1.511   5.123   8.462 -0.5275  0.7217 -0.4489
  151SAPE  H15X16778   1.458   5.218   8.441  1.5156  2.2168  0.7657
  151SAPE  H15Y16779   1.615   5.136   8.423  0.7797 -0.6714  2.3020
  151SAPE  C31616780   1.520   5.088   8.609  0.0681  0.2902 -0.4501
  151SAPE  H16X16781   1.424   5.127   8.650 -2.0418 -4.9130  0.4141
  151SAPE  H16Y16782   1.602   5.145   8.657 -1.6368  2.4434  0.0503
  151SAPE  C31716783   1.517   4.943   8.663 -0.2431 -0.3955 -1.6220
  151SAPE  H17X16784   1.599   4.884   8.618 -0.0891 -0.9935 -0.5801
  151SAPE  H17Y16785   1.426   4.890   8.627 -0.9147 -0.1315 -0.3588
  151SAPE  C31816786   1.524   4.947   8.822  0.4765 -0.2853  0.1237
  151SAPE  H18X16787   1.451   5.017   8.869 -1.0744 -1.1156 -0.9483
  151SAPE  H18Y16788   1.622   4.987   8.855  1.1953 -1.2707 -0.7602
  151SAPE  H18Z16789   1.519   4.851   8.877  0.8105  0.1318  0.9032
  152SAPE     N16790   5.577   3.042   5.960  0.4521  0.0996  0.7589
  152SAPE   HN116791   5.483   3.082   5.980  1.6984  3.0642  1.1450
  152SAPE   HN216792   5.623   3.121   5.909  0.1224 -0.8107 -1.0462
  152SAPE   HN316793   5.574   2.953   5.906  1.4399  0.9237 -0.7243
  152SAPE   C1216794   5.646   3.016   6.094 -0.1427 -0.1244 -0.2619
  152SAPE  H12A16795   5.682   3.113   6.134 -2.1911  0.0090  1.4582
  152SAPE  H12B16796   5.729   2.944   6.078 -1.3846 -1.7070  0.1408
  152SAPE   C1116797   5.562   2.946   6.204  0.0918  0.2360  0.7229
  152SAPE  H11A16798   5.633   2.931   6.288  3.3149 -1.0088 -1.9845
  152SAPE  H11B16799   5.529   2.851   6.157  1.0101  1.0919 -1.8324
  152SAPE     P16800   5.476   3.135   6.372 -0.2350  0.4475  0.0176
  152SAPE   O1316801   5.360   3.228   6.374 -0.4491  0.0056  0.2057
  152SAPE   O1416802   5.512   3.064   6.490 -0.3407  0.2561 -0.1320
  152SAPE   O1216803   5.452   3.028   6.254  0.3994  0.2511 -0.2760
  152SAPE   O1116804   5.608   3.219   6.320  0.0522 -0.7350 -0.0553
  152SAPE    C116805   5.716   3.246   6.413 -0.3741  0.9028 -0.2586
  152SAPE    HA16806   5.747   3.152   6.465 -1.1744  0.5767 -0.3575
  152SAPE    HB16807   5.810   3.273   6.360 -0.9518  0.3911 -1.5739
  152SAPE    C216808   5.708   3.361   6.521  0.1575  0.1251  0.0861
  152SAPE    HS16809   5.641   3.318   6.599  3.1265 -0.1316  2.6943
  152SAPE   O2116810   5.662   3.472   6.450 -0.1018 -0.1840 -0.4400
  152SAPE   C2116811   5.603   3.573   6.523 -0.0026  0.3566 -0.3022
  152SAPE   O2216812   5.565   3.557   6.638  0.3657 -0.0808 -0.4421
  152SAPE   C2216813   5.593   3.704   6.444  1.2674  0.4182 -0.3973
  152SAPE   H2R16814   5.662   3.777   6.490  1.4514  0.7360 -1.1691
  152SAPE   H2S16815   5.602   3.683   6.335 -4.0028  0.5177 -1.1054
  152SAPE    C316816   5.838   3.400   6.594 -0.0868  0.1881  0.0933
  152SAPE    HX16817   5.905   3.427   6.510 -0.5769  0.6867 -0.1499
  152SAPE    HY16818   5.886   3.321   6.656 -1.3228  0.6324  1.6813
  152SAPE   O3116819   5.832   3.511   6.685  0.5035  0.1979 -0.2684
  152SAPE   C3116820   5.782   3.484   6.803  0.5311  0.7287  0.5742
  152SAPE   O3216821   5.775   3.373   6.850  0.1201  0.4661  0.1168
  152SAPE   C3216822   5.743   3.615   6.880 -0.3722 -0.9733 -0.5054
  152SAPE   H2X16823   5.638   3.590   6.909 -0.0326 -0.0851  1.6832
  152SAPE   H2Y16824   5.739   3.699   6.806  1.2118 -1.5600 -1.2921
  152SAPE   C2316825   5.442   3.746   6.452  0.3723 -0.5901  0.1627
  152SAPE   H3R16826   5.376   3.657   6.460  1.4352 -1.4287 -0.1734
  152SAPE   H3S16827   5.410   3.784   6.353 -0.7604 -0.5400  0.5348
  152SAPE   C2416828   5.423   3.853   6.556 -0.3647  0.4337  0.5434
  152SAPE   H4R16829   5.485   3.939   6.521  3.0772 -1.6080  1.0951
  152SAPE   H4S16830   5.458   3.821   6.657 -0.4710 -1.7991 -0.0955
  152SAPE   C2516831   5.282   3.916   6.551 -0.4406 -0.6887  0.6751
  152SAPE   H5R16832   5.233   3.909   6.453 -3.4094 -0.2903  2.0264
  152SAPE   C2616833   5.193   3.919   6.653 -0.0158  0.3600  0.8154
  152SAPE   H6R16834   5.105   3.984   6.644  1.0181  1.8738  1.2668
  152SAPE   C2716835   5.240   3.889   6.787 -0.6525 -0.3512 -0.4022
  152SAPE   H7R16836   5.162   3.917   6.860  0.4462 -1.3434  1.2153
  152SAPE   H7S16837   5.321   3.959   6.818 -0.9311 -0.8803  1.6806
  152SAPE   C2816838   5.261   3.738   6.814 -0.0399  0.0833 -0.1000
  152SAPE   H8R16839   5.251   3.657   6.740  1.2428 -1.9389  1.7997
  152SAPE   C2916840   5.325   3.689   6.926  1.1192  0.0493  0.0624
  152SAPE   H9R16841   5.337   3.581   6.942 -0.1781  0.1264  1.9197
  152SAPE  C21016842   5.363   3.774   7.045 -0.2906 -0.1053 -0.6482
  152SAPE  H10R16843   5.278   3.843   7.063  0.8488  1.8521 -2.3373
  152SAPE  H10S16844   5.454   3.833   7.021  0.2699  0.0042  1.5141
  152SAPE  C21116845   5.379   3.687   7.166  0.2729 -0.3710  0.1897
  152SAPE  H11R16846   5.381   3.580   7.140 -4.2095 -0.4304 -0.7073
  152SAPE  C21216847   5.362   3.727   7.293 -0.5705 -0.2835 -0.0587
  152SAPE  H12R16848   5.377   3.657   7.376  2.2189  0.1090 -0.1146
  152SAPE  C21316849   5.336   3.874   7.333 -0.0441 -0.1316 -0.0408
  152SAPE  H13R16850   5.360   3.947   7.253  2.5424  0.1625  0.9117
  152SAPE  H13S16851   5.420   3.893   7.403 -0.3371 -1.9150  0.8433
  152SAPE  C21416852   5.209   3.904   7.407 -0.4427 -0.6694  0.3686
  152SAPE  H14R16853   5.125   3.930   7.341  0.8477 -1.7931 -1.8435
  152SAPE  C21516854   5.186   3.896   7.537  0.0068  0.0967  0.0742
  152SAPE  H15R16855   5.083   3.912   7.571 -0.4342 -0.2791 -1.0624
  152SAPE  C21616856   5.297   3.867   7.641  0.4353 -0.4628 -0.3167
  152SAPE  H16R16857   5.383   3.938   7.643  0.3244 -0.3306 -0.1841
  152SAPE  H16S16858   5.349   3.779   7.599 -0.3182 -0.4260 -1.3752
  152SAPE  C21716859   5.266   3.847   7.788  0.4144  0.4369 -0.7792
  152SAPE  H17R16860   5.184   3.775   7.808 -0.6584  1.6564 -0.6509
  152SAPE  H17S16861   5.231   3.945   7.827  0.0635 -0.5370  1.5217
  152SAPE  C21816862   5.384   3.791   7.876  0.1863  0.6072  0.9838
  152SAPE  H18R16863   5.418   3.695   7.832  3.6347  1.2521  1.9615
  152SAPE  H18S16864   5.351   3.785   7.982  0.7366 -0.2985  1.1135
  152SAPE  C21916865   5.509   3.880   7.878 -0.3370 -0.6939  0.1881
  152SAPE  H19R16866   5.466   3.982   7.869  0.4615 -0.4063 -0.4618
  152SAPE  H19S16867   5.570   3.855   7.789 -1.0742 -1.2872 -0.1553
  152SAPE  C22016868   5.602   3.875   8.007 -0.3173 -0.9480 -1.1050
  152SAPE  H20R16869   5.548   3.915   8.096 -0.3665  0.8821 -1.9215
  152SAPE  H20S16870   5.699   3.929   8.001  0.4519 -2.1188  0.2899
  152SAPE  H20T16871   5.636   3.772   8.030  2.4996  0.2797  0.8117
  152SAPE   C3316872   5.833   3.647   7.002  0.6652  0.5600  0.5043
  152SAPE   H3X16873   5.925   3.691   6.960  1.2424 -0.0863  1.0576
  152SAPE   H3Y16874   5.852   3.550   7.054 -2.5701  0.1390  1.1045
  152SAPE   C3416875   5.774   3.744   7.093 -0.8763 -0.3902  0.3068
  152SAPE   H4X16876   5.670   3.726   7.129 -1.4794  2.9545  0.5780
  152SAPE   H4Y16877   5.754   3.839   7.039 -1.0198 -0.4725  0.2149
  152SAPE   C3516878   5.858   3.758   7.215 -0.0387  0.6623 -0.3547
  152SAPE   H5X16879   5.960   3.796   7.193  0.2327  0.6564  0.8591
  152SAPE   H5Y16880   5.870   3.659   7.264 -1.7873 -1.2184 -3.3790
  152SAPE   C3616881   5.791   3.851   7.320 -0.2475  0.6270 -0.6273
  152SAPE   H6X16882   5.691   3.805   7.334  0.4420 -0.6103  0.5151
  152SAPE   H6Y16883   5.772   3.957   7.294 -3.3230 -0.0069 -1.3529
  152SAPE   C3716884   5.853   3.837   7.461 -1.0984  0.3535 -0.3344
  152SAPE   H7X16885   5.957   3.877   7.456  0.8416 -4.0055  0.3312
  152SAPE   H7Y16886   5.864   3.728   7.477 -1.9873  0.6577  3.2098
  152SAPE   C3816887   5.766   3.914   7.563 -0.4702 -0.5494 -0.1813
  152SAPE   H8X16888   5.675   3.852   7.578 -1.0275 -0.3539 -2.4644
  152SAPE   H8Y16889   5.733   4.010   7.518  1.9088 -0.1198 -1.1236
  152SAPE   C3916890   5.840   3.950   7.696  0.6333 -0.5167 -0.0141
  152SAPE   H9X16891   5.776   4.006   7.768  2.3245 -0.5407  1.6065
  152SAPE   H9Y16892   5.924   4.020   7.676  0.5627  0.6006  3.0622
  152SAPE  C31016893   5.895   3.825   7.766  0.3348  0.1402 -0.5241
  152SAPE  H10X16894   5.955   3.756   7.703 -0.8915 -0.5868 -0.9320
  152SAPE  H10Y16895   5.811   3.769   7.813  0.2734 -0.2805 -1.1245
  152SAPE  C31116896   5.988   3.868   7.870 -0.2192 -0.5486  0.2551
  152SAPE  H11X16897   5.938   3.931   7.947  1.7050  0.1615  0.9892
  152SAPE  H11Y16898   6.058   3.945   7.830 -1.6507  0.8149  0.2796
  152SAPE  C31216899   6.056   3.750   7.933  0.4098 -0.2150  0.6849
  152SAPE  H12X16900   6.122   3.706   7.855 -1.2310 -1.2992 -0.1282
  152SAPE  H12Y16901   5.978   3.672   7.938  0.1104  0.0398  0.1026
  152SAPE  C31316902   6.117   3.777   8.074 -0.1258 -0.2985 -0.1131
  152SAPE  H13X16903   6.165   3.877   8.065  0.1615 -0.5687 -1.8766
  152SAPE  H13Y16904   6.201   3.707   8.093  0.4577  0.3474 -0.2665
  152SAPE  C31416905   6.008   3.774   8.181 -0.4912  0.8417  0.4589
  152SAPE  H14X16906   5.968   3.671   8.196 -1.7558  1.1126 -0.8367
  152SAPE  H14Y16907   5.928   3.845   8.152 -0.8946 -0.2338 -1.2104
  152SAPE  C31516908   6.071   3.813   8.316 -0.1499  0.0229  0.2164
  152SAPE  H15X16909   6.134   3.903   8.323 -0.8373  0.4974  0.3857
  152SAPE  H15Y16910   6.131   3.728   8.355 -0.5961 -0.1006  0.6566
  152SAPE  C31616911   5.956   3.826   8.421 -1.1078  0.2586 -1.0197
  152SAPE  H16X16912   5.878   3.748   8.418  0.1179 -1.1602  1.2722
  152SAPE  H16Y16913   5.908   3.924   8.399 -0.5007  0.8730  0.2651
  152SAPE  C31716914   6.019   3.830   8.567  0.2290 -0.7033 -0.7638
  152SAPE  H17X16915   6.080   3.738   8.576 -1.8114 -2.0576 -0.0606
  152SAPE  H17Y16916   5.927   3.811   8.626  1.3911 -0.6852  1.1286
  152SAPE  C31816917   6.093   3.961   8.615  0.4131 -0.2182 -0.1261
  152SAPE  H18X16918   6.010   4.035   8.623  0.1916 -0.3715 -0.9431
  152SAPE  H18Y16919   6.162   3.997   8.536  0.4875  0.9539  0.4563
  152SAPE  H18Z16920   6.134   3.962   8.718 -0.5148  0.5216  0.2575
  153SAPE     N16921   0.455   2.585   6.118  0.1005 -0.8085  0.2197
  153SAPE   HN116922   0.458   2.485   6.147 -1.1827 -0.8232  0.3749
  153SAPE   HN216923   0.392   2.639   6.181 -0.4756 -2.0785  0.7611
  153SAPE   HN316924   0.425   2.576   6.019  0.8941  2.3624 -0.4103
  153SAPE   C1216925   0.589   2.643   6.111 -0.6745  0.7258  0.1788
  153SAPE  H12A16926   0.636   2.597   6.022  0.5607  3.1190 -0.4869
  153SAPE  H12B16927   0.647   2.624   6.205  2.0579  1.2673 -1.2849
  153SAPE   C1116928   0.578   2.792   6.085  0.6270 -0.5311  0.4572
  153SAPE  H11A16929   0.518   2.811   5.994 -1.2939 -0.9511  1.5856
  153SAPE  H11B16930   0.678   2.838   6.072  0.7107 -0.6414  0.6969
  153SAPE     P16931   0.447   3.003   6.172 -0.0485  0.3554 -0.0940
  153SAPE   O1316932   0.347   2.991   6.063 -0.2876  0.5312 -0.4699
  153SAPE   O1416933   0.401   3.053   6.299 -0.5295  0.0314  0.9459
  153SAPE   O1216934   0.517   2.860   6.191 -0.1623 -0.2089 -0.3239
  153SAPE   O1116935   0.570   3.088   6.123  0.3738 -0.1366 -0.0124
  153SAPE    C116936   0.669   3.141   6.217  0.6129  0.1590  0.3946
  153SAPE    HA16937   0.700   3.230   6.158  0.5209 -0.2267 -0.2404
  153SAPE    HB16938   0.635   3.186   6.313  0.2834 -2.2978  1.5048
  153SAPE    C216939   0.778   3.038   6.261  0.2000  0.5083 -0.4032
  153SAPE    HS16940   0.806   2.982   6.169 -0.0613 -0.8526  0.3245
  153SAPE   O2116941   0.724   2.948   6.356 -0.2434  0.0371  0.4484
  153SAPE   C2116942   0.795   2.831   6.376 -0.2719 -0.2116 -0.5979
  153SAPE   O2216943   0.879   2.784   6.300 -0.3158  0.4608 -0.2035
  153SAPE   C2216944   0.750   2.772   6.508 -0.5672 -0.2498 -0.6545
  153SAPE   H2R16945   0.721   2.860   6.570  0.0905 -0.0581 -0.6167
  153SAPE   H2S16946   0.672   2.693   6.507  0.3504 -1.2061  0.8499
  153SAPE    C316947   0.896   3.124   6.321 -0.1448  0.3010  0.1437
  153SAPE    HX16948   0.867   3.166   6.419 -0.2482 -1.7305  1.0300
  153SAPE    HY16949   0.931   3.207   6.255  1.0610 -0.6683 -0.4808
  153SAPE   O3116950   1.007   3.048   6.358 -0.1956  0.6411  0.2909
  153SAPE   C3116951   1.086   3.011   6.255  0.2249  0.7003  0.4698
  153SAPE   O3216952   1.062   3.034   6.138  0.2195 -0.0858 -0.1511
  153SAPE   C3216953   1.210   2.939   6.309 -0.1454  0.3835  0.4607
  153SAPE   H2X16954   1.284   2.949   6.226  1.0773 -0.0339  1.4739
  153SAPE   H2Y16955   1.193   2.830   6.326 -1.3967  0.6450  0.9823
  153SAPE   C2316956   0.870   2.701   6.579  0.1219 -0.2839  0.4535
  153SAPE   H3R16957   0.908   2.626   6.506  0.5535 -1.7118  2.0596
  153SAPE   H3S16958   0.824   2.644   6.663 -2.8755  1.0341 -0.1629
  153SAPE   C2416959   0.972   2.796   6.626 -0.3767 -0.0237 -0.4178
  153SAPE   H4R16960   0.918   2.836   6.715  1.4096  1.3861  0.0976
  153SAPE   H4S16961   1.008   2.878   6.560  1.3523 -0.9683 -0.7105
  153SAPE   C2516962   1.099   2.724   6.658 -0.0525  0.5936 -0.1993
  153SAPE   H5R16963   1.146   2.679   6.569  0.4683  2.5569 -0.9738
  153SAPE   C2616964   1.140   2.690   6.786 -0.2362 -0.7357  0.5217
  153SAPE   H6R16965   1.220   2.616   6.796  1.4188  0.5709 -1.8887
  153SAPE   C2716966   1.077   2.733   6.916 -0.0532 -0.2809 -0.6278
  153SAPE   H7R16967   1.067   2.647   6.987 -0.7572  0.1688 -0.1700
  153SAPE   H7S16968   0.976   2.775   6.902  0.5630  1.6866  0.4595
  153SAPE   C2816969   1.175   2.838   6.968 -0.1502 -0.0605 -0.4566
  153SAPE   H8R16970   1.175   2.930   6.908 -1.9029  0.5424  0.4114
  153SAPE   C2916971   1.244   2.845   7.086  0.1786 -0.1029 -0.1547
  153SAPE   H9R16972   1.315   2.927   7.102  0.2801  0.3502 -2.5829
  153SAPE  C21016973   1.238   2.725   7.175 -0.2960 -1.0543  0.5862
  153SAPE  H10R16974   1.330   2.738   7.234  0.5032  0.1765 -0.8534
  153SAPE  H10S16975   1.249   2.630   7.118  1.7897 -0.6794  0.3009
  153SAPE  C21116976   1.108   2.731   7.253  0.0269  0.0398 -0.0249
  153SAPE  H11R16977   1.019   2.730   7.189  0.4823 -0.0915 -0.6744
  153SAPE  C21216978   1.103   2.734   7.387  0.4198  0.3748 -0.2117
  153SAPE  H12R16979   1.011   2.711   7.441  0.2202  0.0186 -0.6884
  153SAPE  C21316980   1.214   2.731   7.482 -0.8117  0.1502  0.5055
  153SAPE  H13R16981   1.315   2.727   7.435 -1.6732 -0.1960 -1.4522
  153SAPE  H13S16982   1.205   2.636   7.537  0.3929 -1.0576 -1.2515
  153SAPE  C21416983   1.204   2.857   7.579  0.2163  0.9251  0.4304
  153SAPE  H14R16984   1.260   2.947   7.552  0.4870  1.3742  2.3497
  153SAPE  C21516985   1.129   2.872   7.686 -0.3986 -0.2727 -0.3042
  153SAPE  H15R16986   1.136   2.971   7.733  2.1377  1.0945 -3.2043
  153SAPE  C21616987   1.033   2.772   7.747  0.2994  0.3159 -0.0050
  153SAPE  H16R16988   1.011   2.696   7.669  4.4499 -2.0359  0.8131
  153SAPE  H16S16989   0.934   2.816   7.775 -0.0470 -0.2304 -0.3519
  153SAPE  C21716990   1.090   2.696   7.864 -0.6801  1.0962  0.2434
  153SAPE  H17R16991   1.130   2.769   7.937  0.3621  1.5170 -0.7165
  153SAPE  H17S16992   1.174   2.632   7.828 -1.9189 -0.4091 -0.1060
  153SAPE  C21816993   0.985   2.622   7.941  0.1452  0.0234  0.0238
  153SAPE  H18R16994   0.937   2.540   7.884  0.4750  0.2037 -0.5243
  153SAPE  H18S16995   0.907   2.697   7.967  0.0022  0.2031 -0.9000
  153SAPE  C21916996   1.042   2.564   8.069  0.1822 -0.1052 -0.3600
  153SAPE  H19R16997   1.098   2.636   8.133 -1.2246  0.6515  0.0513
  153SAPE  H19S16998   1.119   2.492   8.034  1.5961  0.4726  1.4074
  153SAPE  C22016999   0.946   2.483   8.157 -0.6720 -0.7123 -1.2209
  153SAPE  H20R17000   0.908   2.384   8.124 -2.6092 -0.9596  1.4271
  153SAPE  H20S17001   0.861   2.545   8.191 -0.2219 -1.0405  0.6450
  153SAPE  H20T17002   0.993   2.469   8.257  0.3841  0.8220 -1.4688
  153SAPE   C3317003   1.266   3.006   6.434 -0.7464 -0.5206 -0.0867
  153SAPE   H3X17004   1.193   2.997   6.517  0.7784  1.1806  1.4974
  153SAPE   H3Y17005   1.271   3.116   6.418  0.4200 -0.2142  2.0722
  153SAPE   C3417006   1.400   2.938   6.467  0.0889  0.4943 -0.3096
  153SAPE   H4X17007   1.483   2.968   6.399  0.4275  2.3181  0.8386
  153SAPE   H4Y17008   1.385   2.828   6.467 -0.5021  0.5703  0.3742
  153SAPE   C3517009   1.431   2.982   6.610  0.2695  0.0383 -0.1523
  153SAPE   H5X17010   1.342   2.957   6.672 -0.3654  4.8730  1.3394
  153SAPE   H5Y17011   1.448   3.092   6.614  2.9308 -0.1407 -3.0790
  153SAPE   C3617012   1.555   2.920   6.659  0.0606 -0.5758  0.0578
  153SAPE   H6X17013   1.645   2.966   6.613  1.2707 -1.5542  1.3640
  153SAPE   H6Y17014   1.555   2.813   6.630 -2.6463 -0.5337 -0.3963
  153SAPE   C3717015   1.560   2.933   6.811  0.0163 -0.6572 -0.0802
  153SAPE   H7X17016   1.636   2.858   6.842 -1.7210 -1.9030  1.3855
  153SAPE   H7Y17017   1.467   2.901   6.863  1.9303 -1.9740  2.7655
  153SAPE   C3817018   1.610   3.066   6.860  0.0300 -0.1263  0.2734
  153SAPE   H8X17019   1.533   3.145   6.853  1.1775  0.9937 -0.0274
  153SAPE   H8Y17020   1.688   3.100   6.789 -0.6971  2.4823  0.6377
  153SAPE   C3917021   1.680   3.054   6.996 -1.1820 -0.2608 -0.0496
  153SAPE   H9X17022   1.724   3.150   7.030  1.1305 -1.1806 -0.2679
  153SAPE   H9Y17023   1.765   2.982   6.993 -0.2640  0.7141  1.3015
  153SAPE  C31017024   1.592   3.006   7.108  0.6267  0.0290  0.8051
  153SAPE  H10X17025   1.558   2.907   7.072 -1.7650  1.3387 -0.8588
  153SAPE  H10Y17026   1.503   3.074   7.111 -0.5523 -1.4368  0.1391
  153SAPE  C31117027   1.670   2.986   7.236 -0.2204 -0.5744 -0.1879
  153SAPE  H11X17028   1.697   3.083   7.283 -2.3330 -0.6143  1.2145
  153SAPE  H11Y17029   1.760   2.930   7.202  1.5597  1.9033  0.1359
  153SAPE  C31217030   1.593   2.912   7.340  0.1681 -0.6704 -0.1281
  153SAPE  H12X17031   1.551   2.826   7.284 -0.4407  0.3154 -1.2396
  153SAPE  H12Y17032   1.509   2.973   7.380  2.1031  2.5855 -0.6300
  153SAPE  C31317033   1.666   2.854   7.462 -0.7476  0.3636 -0.1417
  153SAPE  H13X17034   1.748   2.923   7.488 -1.3846  1.5839 -1.2834
  153SAPE  H13Y17035   1.717   2.761   7.430  0.0458  0.0446  1.9336
  153SAPE  C31417036   1.571   2.817   7.579 -0.0451 -0.1078  0.3895
  153SAPE  H14X17037   1.494   2.740   7.560 -1.1237  0.8268  0.8355
  153SAPE  H14Y17038   1.512   2.911   7.590 -0.9388 -0.3943 -1.5586
  153SAPE  C31517039   1.635   2.788   7.711  0.3405 -0.5214  0.6888
  153SAPE  H15X17040   1.704   2.870   7.741 -0.8790  1.7528 -2.2719
  153SAPE  H15Y17041   1.680   2.686   7.710  0.6580 -0.4479  2.9471
  153SAPE  C31617042   1.516   2.796   7.813  0.4193 -0.2940 -0.5847
  153SAPE  H16X17043   1.444   2.718   7.781 -0.0366  0.1178 -0.5891
  153SAPE  H16Y17044   1.464   2.892   7.792 -0.7896 -1.3038 -2.4117
  153SAPE  C31717045   1.562   2.770   7.958 -0.6214 -0.0357  0.1328
  153SAPE  H17X17046   1.641   2.842   7.987  0.0611 -1.2135  1.3846
  153SAPE  H17Y17047   1.601   2.666   7.965 -1.6551 -0.6413 -2.1684
  153SAPE  C31817048   1.438   2.786   8.047 -0.1143  0.1009  0.2798
  153SAPE  H18X17049   1.463   2.784   8.155 -2.1248 -4.3603  0.8894
  153SAPE  H18Y17050   1.369   2.700   8.037 -2.2425  1.4508  2.2588
  153SAPE  H18Z17051   1.389   2.883   8.022 -0.1802 -0.3101 -1.2998
  154SAPE     N17052   0.184   3.159   6.384 -0.0699 -0.2182  0.0973
  154SAPE   HN117053   0.137   3.190   6.296  0.6320 -0.1473 -0.2598
  154SAPE   HN217054   0.233   3.241   6.426 -1.5983  0.7143  0.1388
  154SAPE   HN317055   0.261   3.099   6.350 -2.5392 -2.9114 -1.1648
  154SAPE   C1217056   0.112   3.081   6.489  0.1632  0.4669 -0.0317
  154SAPE  H12A17057   0.022   3.141   6.514 -2.6238 -2.3938 -2.4846
  154SAPE  H12B17058   0.183   3.054   6.571  0.2942 -1.3723 -0.7158
  154SAPE   C1117059   0.074   2.945   6.444 -0.0251 -0.2087 -0.5583
  154SAPE  H11A17060  -0.013   2.946   6.376  0.8820 -1.1001 -1.7772
  154SAPE  H11B17061   0.044   2.899   6.541  1.8607  0.0238  0.1766
  154SAPE     P17062   0.140   2.736   6.314  0.4252 -0.5075  0.1838
  154SAPE   O1317063   0.043   2.768   6.201 -0.5020 -0.6747 -0.7895
  154SAPE   O1417064   0.269   2.676   6.285 -0.2395 -0.0356 -0.0376
  154SAPE   O1217065   0.180   2.871   6.387  0.2862  0.1699 -0.4127
  154SAPE   O1117066   0.058   2.653   6.417  0.4043 -0.4032  0.3360
  154SAPE    C117067   0.126   2.547   6.488 -0.2032 -0.3945 -0.2026
  154SAPE    HA17068   0.194   2.482   6.430 -0.0341 -0.7091  0.3355
  154SAPE    HB17069   0.187   2.598   6.566  0.0713 -0.3599 -0.4415
  154SAPE    C217070   0.021   2.454   6.551 -0.2066 -0.3153 -0.4099
  154SAPE    HS17071  -0.065   2.519   6.575  0.9087  0.4994  1.6254
  154SAPE   O2117072   0.073   2.383   6.659 -0.2353 -0.6119 -0.0897
  154SAPE   C2117073   0.089   2.460   6.771 -1.1408 -0.7165 -0.1162
  154SAPE   O2217074   0.069   2.580   6.780  0.1320  0.1918  0.0676
  154SAPE   C2217075   0.145   2.376   6.887  0.1189  0.6218  0.0296
  154SAPE   H2R17076   0.252   2.348   6.871 -1.1000 -3.2127 -2.9300
  154SAPE   H2S17077   0.131   2.436   6.979 -0.1448 -0.9505  1.0520
  154SAPE    C317078  -0.035   2.354   6.448  0.4050 -0.6446  0.6180
  154SAPE    HX17079   0.057   2.296   6.422  2.5819  2.1734  1.4701
  154SAPE    HY17080  -0.075   2.413   6.364 -0.8438  0.8746  2.1966
  154SAPE   O3117081  -0.151   2.281   6.501 -0.2541  0.7205  0.4005
  154SAPE   C3117082  -0.134   2.153   6.529  0.2585  0.0625  0.4902
  154SAPE   O3217083  -0.033   2.084   6.510 -0.2218 -0.3228  0.3335
  154SAPE   C3217084  -0.264   2.092   6.583 -0.5689 -0.1837 -0.4974
  154SAPE   H2X17085  -0.272   1.982   6.566  0.7623 -0.7915  2.1170
  154SAPE   H2Y17086  -0.350   2.145   6.538 -1.1272 -1.3497 -0.8662
  154SAPE   C2317087   0.065   2.251   6.921 -0.2346 -0.5106 -0.2088
  154SAPE   H3R17088   0.103   2.163   6.866 -0.0761 -0.2784 -0.4705
  154SAPE   H3S17089  -0.043   2.261   6.897 -0.5725  0.2985  1.4407
  154SAPE   C2417090   0.078   2.219   7.068  0.1249 -0.2094 -0.6464
  154SAPE   H4R17091   0.012   2.135   7.101 -2.0259  1.0153 -1.6380
  154SAPE   H4S17092   0.028   2.300   7.126 -0.6498  0.2625 -1.9179
  154SAPE   C2517093   0.219   2.187   7.108  0.0176  0.8691 -0.0396
  154SAPE   H5R17094   0.285   2.147   7.030  0.7523  0.3535  0.8276
  154SAPE   C2617095   0.264   2.180   7.239  0.6051 -0.0366 -0.1078
  154SAPE   H6R17096   0.364   2.137   7.254  0.5841  0.2025  0.7582
  154SAPE   C2717097   0.185   2.211   7.369 -0.4791 -0.1019 -0.4325
  154SAPE   H7R17098   0.085   2.257   7.355 -0.4031  0.3587  0.4203
  154SAPE   H7S17099   0.244   2.270   7.443  1.4177 -0.1392 -1.8574
  154SAPE   C2817100   0.149   2.077   7.427 -0.0756 -0.9484  0.5202
  154SAPE   H8R17101   0.138   1.994   7.356  3.8082 -1.7256  0.6047
  154SAPE   C2917102   0.113   2.052   7.556  0.3868  0.2368  0.3466
  154SAPE   H9R17103   0.065   1.955   7.578 -1.8287  1.3497  0.7355
  154SAPE  C21017104   0.112   2.163   7.666 -0.0130 -0.2045  0.4548
  154SAPE  H10R17105   0.216   2.203   7.669 -0.7985  1.9838  0.0047
  154SAPE  H10S17106   0.093   2.112   7.763  2.3023 -2.6820 -0.2452
  154SAPE  C21117107   0.010   2.274   7.658 -0.2388  0.7391 -0.3652
  154SAPE  H11R17108  -0.092   2.244   7.631  0.2806 -3.7514  1.7176
  154SAPE  C21217109   0.029   2.405   7.691  0.0216  0.5847  0.1172
  154SAPE  H12R17110  -0.058   2.472   7.685  1.0367  1.7834 -2.0780
  154SAPE  C21317111   0.160   2.456   7.741  0.0333 -0.4823  0.3311
  154SAPE  H13R17112   0.233   2.477   7.659 -1.2846 -1.1025 -1.0445
  154SAPE  H13S17113   0.205   2.371   7.795 -1.5380 -1.9862 -0.6224
  154SAPE  C21417114   0.140   2.586   7.817  0.4621  0.3054  1.0990
  154SAPE  H14R17115   0.132   2.583   7.927 -1.6856 -0.3660  0.9680
  154SAPE  C21517116   0.159   2.707   7.762  0.5510 -0.5642  0.1941
  154SAPE  H15R17117   0.145   2.799   7.821 -1.0233 -1.5981  1.5306
  154SAPE  C21617118   0.187   2.757   7.618 -0.6448 -0.2706 -0.4441
  154SAPE  H16R17119   0.291   2.734   7.587  0.0966  0.9811  0.9767
  154SAPE  H16S17120   0.186   2.868   7.613  2.0876 -0.1304  0.4615
  154SAPE  C21717121   0.091   2.699   7.505 -0.3449  0.6164 -0.7142
  154SAPE  H17R17122  -0.010   2.725   7.543 -0.9040 -0.2000 -1.5891
  154SAPE  H17S17123   0.099   2.589   7.487  0.2948  0.4174  0.7210
  154SAPE  C21817124   0.108   2.768   7.371  0.3032 -0.8124 -0.3124
  154SAPE  H18R17125   0.212   2.751   7.335  1.0418  3.5745 -0.8635
  154SAPE  H18S17126   0.114   2.878   7.383  3.3319 -0.9853  0.7454
  154SAPE  C21917127   0.001   2.727   7.260 -0.1587  0.2026  0.0778
  154SAPE  H19R17128  -0.094   2.715   7.316  0.8022  0.8804  1.9815
  154SAPE  H19S17129   0.029   2.625   7.226 -0.5737  0.3830 -0.8295
  154SAPE  C22017130  -0.006   2.813   7.129  0.1873  0.2514  0.1887
  154SAPE  H20R17131  -0.058   2.763   7.044  0.4607  1.2644 -0.6018
  154SAPE  H20S17132   0.104   2.822   7.114  0.3525 -2.8658 -1.1877
  154SAPE  H20T17133  -0.063   2.906   7.148  1.7337  1.2800  0.0143
  154SAPE   C3317134  -0.272   2.095   6.741  0.3389 -0.2712  0.3351
  154SAPE   H3X17135  -0.377   2.096   6.777 -0.0488 -2.6004 -0.5553
  154SAPE   H3Y17136  -0.229   2.187   6.785  0.1847 -0.3072  0.5627
  154SAPE   C3417137  -0.195   1.977   6.811  0.2023  0.1048  0.7145
  154SAPE   H4X17138  -0.087   1.991   6.790  0.3418 -1.1402  0.5762
  154SAPE   H4Y17139  -0.227   1.881   6.767 -0.0568  0.9837 -1.1175
  154SAPE   C3517140  -0.211   1.977   6.963  0.0267 -0.1736  0.1654
  154SAPE   H5X17141  -0.177   2.073   7.007  2.0292 -0.5495 -0.4605
  154SAPE   H5Y17142  -0.143   1.899   7.004  1.3356  1.3232  0.9249
  154SAPE   C3617143  -0.355   1.937   7.000  0.3771 -0.3529 -0.5053
  154SAPE   H6X17144  -0.393   1.861   6.928 -0.2824  0.8561 -1.4593
  154SAPE   H6Y17145  -0.429   2.020   6.990  0.6184  0.1963  1.6768
  154SAPE   C3717146  -0.373   1.876   7.141  0.6908 -0.5743  0.6058
  154SAPE   H7X17147  -0.335   1.772   7.134 -0.3491 -0.9161 -0.1492
  154SAPE   H7Y17148  -0.483   1.871   7.152  0.5978  0.8753  0.4415
  154SAPE   C3817149  -0.304   1.948   7.253  0.5320  0.5484 -1.4602
  154SAPE   H8X17150  -0.336   2.055   7.258  1.4564  0.7935  1.0836
  154SAPE   H8Y17151  -0.195   1.957   7.234  0.4026  3.4604 -1.3772
  154SAPE   C3917152  -0.335   1.873   7.385  0.1843 -0.2434  0.1285
  154SAPE   H9X17153  -0.295   1.770   7.378  0.5138 -0.3035  2.2699
  154SAPE   H9Y17154  -0.444   1.885   7.398  0.3684  1.8488  0.2397
  154SAPE  C31017155  -0.261   1.935   7.500 -0.5094 -0.2311 -0.7661
  154SAPE  H10X17156  -0.302   2.036   7.517  1.1253 -0.1330  4.0055
  154SAPE  H10Y17157  -0.152   1.946   7.480 -0.0629 -2.0987  0.3549
  154SAPE  C31117158  -0.276   1.858   7.625 -0.0804 -0.2040  0.5984
  154SAPE  H11X17159  -0.222   1.761   7.619 -0.4141 -0.2848 -2.0936
  154SAPE  H11Y17160  -0.379   1.825   7.648 -0.6275  0.4399 -0.8524
  154SAPE  C31217161  -0.208   1.922   7.742  0.2090  0.8627 -0.0831
  154SAPE  H12X17162  -0.106   1.958   7.720  0.8770 -0.9627 -0.0460
  154SAPE  H12Y17163  -0.200   1.849   7.826  0.0427 -1.0008 -1.6298
  154SAPE  C31317164  -0.292   2.032   7.804  0.7154 -0.5846  0.5794
  154SAPE  H13X17165  -0.388   1.996   7.846  0.6512 -2.0258 -0.7157
  154SAPE  H13Y17166  -0.312   2.111   7.729  1.3488 -1.1840 -0.2480
  154SAPE  C31417167  -0.205   2.097   7.914 -0.0326  0.0282  0.4387
  154SAPE  H14X17168  -0.102   2.107   7.872 -0.2253  0.6319  0.1011
  154SAPE  H14Y17169  -0.191   2.033   8.004  0.5640  1.3424  1.3148
  154SAPE  C31517170  -0.249   2.241   7.953 -0.0247  0.3375 -0.5447
  154SAPE  H15X17171  -0.237   2.311   7.868 -0.3340  0.5268 -0.4343
  154SAPE  H15Y17172  -0.163   2.260   8.021  1.0613 -1.3922 -1.3521
  154SAPE  C31617173  -0.376   2.250   8.029  0.3350  0.2368 -0.1157
  154SAPE  H16X17174  -0.388   2.156   8.087  1.5015 -0.4840 -1.0055
  154SAPE  H16Y17175  -0.459   2.253   7.956  0.1197 -1.0596  0.0535
  154SAPE  C31717176  -0.381   2.365   8.123 -0.1803 -0.3630 -0.0008
  154SAPE  H17X17177  -0.345   2.454   8.068  0.1945  0.8494  2.0984
  154SAPE  H17Y17178  -0.304   2.351   8.202  0.5562 -1.8059 -0.9412
  154SAPE  C31817179  -0.525   2.377   8.177  0.3298 -0.9363  0.2950
  154SAPE  H18X17180  -0.533   2.467   8.241 -0.3758 -0.5671 -0.2962
  154SAPE  H18Y17181  -0.555   2.289   8.238 -0.7840 -1.2156 -0.6312
  154SAPE  H18Z17182  -0.592   2.400   8.091 -0.7417 -0.1458  1.3095
  155SAPE     N17183   6.856   4.389   5.811 -0.0475  0.0957  0.8643
  155SAPE   HN117184   6.899   4.381   5.716  0.3994  1.7760  0.9055
  155SAPE   HN217185   6.912   4.449   5.874  0.0220  0.5592  0.3695
  155SAPE   HN317186   6.856   4.296   5.857  1.1076 -0.6242 -0.4969
  155SAPE   C1217187   6.721   4.443   5.801  0.2292  0.3874 -0.2357
  155SAPE  H12A17188   6.674   4.379   5.724  2.9555  0.2587 -1.9344
  155SAPE  H12B17189   6.729   4.550   5.773 -0.2623  0.7760  1.0375
  155SAPE   C1117190   6.649   4.429   5.938 -0.4548  0.3319 -0.0118
  155SAPE  H11A17191   6.553   4.484   5.930  0.6050  2.0350 -1.9307
  155SAPE  H11B17192   6.706   4.475   6.022 -2.5909 -0.2850  1.8726
  155SAPE     P17193   6.702   4.185   6.053 -0.0632 -0.0553 -0.5833
  155SAPE   O1317194   6.621   4.066   6.080 -0.3633 -0.0963  0.1669
  155SAPE   O1417195   6.834   4.161   5.994  0.1596 -0.0236  0.2288
  155SAPE   O1217196   6.626   4.287   5.969 -0.1920 -0.3831  0.4890
  155SAPE   O1117197   6.727   4.269   6.181  0.1927  0.2931  0.0705
  155SAPE    C117198   6.856   4.310   6.225 -0.4460  0.3734 -0.4327
  155SAPE    HA17199   6.937   4.237   6.209 -0.5710  0.0121  0.5213
  155SAPE    HB17200   6.885   4.391   6.155 -2.4729  0.8153 -0.8419
  155SAPE    C217201   6.844   4.359   6.370  0.1050 -0.3785  0.0149
  155SAPE    HS17202   6.782   4.452   6.370 -1.1668 -1.1996 -0.8529
  155SAPE   O2117203   6.971   4.398   6.421 -0.0691  0.3173  0.3073
  155SAPE   C2117204   7.001   4.530   6.401 -0.3689  0.3959  0.4432
  155SAPE   O2217205   6.950   4.595   6.308  0.0604 -0.0693 -0.1545
  155SAPE   C2217206   7.129   4.565   6.478 -0.0007 -0.3761  0.3615
  155SAPE   H2R17207   7.098   4.555   6.584  2.0988  0.1764  1.0959
  155SAPE   H2S17208   7.203   4.483   6.465  2.6057  1.2050  3.5416
  155SAPE    C317209   6.771   4.258   6.468  0.5540 -0.5664  0.3058
  155SAPE    HX17210   6.816   4.158   6.457 -2.2002 -2.0795  1.6640
  155SAPE    HY17211   6.668   4.242   6.429 -0.0202  0.2731  1.4109
  155SAPE   O3117212   6.762   4.312   6.602 -0.7230 -0.4981 -0.0521
  155SAPE   C3117213   6.746   4.220   6.689 -0.0468 -0.4721  0.2147
  155SAPE   O3217214   6.717   4.102   6.669 -0.0513 -0.5701 -0.5339
  155SAPE   C3217215   6.773   4.278   6.831  0.2101 -0.3460  0.2630
  155SAPE   H2X17216   6.673   4.304   6.873 -0.4502  1.4153 -2.1979
  155SAPE   H2Y17217   6.833   4.370   6.820  2.2616 -1.8126 -1.6829
  155SAPE   C2317218   7.186   4.699   6.430 -0.2037 -0.0114  0.0725
  155SAPE   H3R17219   7.121   4.788   6.446 -1.1510 -1.0942  2.6280
  155SAPE   H3S17220   7.210   4.697   6.321 -0.0539  0.0846  0.1020
  155SAPE   C2417221   7.322   4.758   6.501  0.3114  0.2266  0.1780
  155SAPE   H4R17222   7.412   4.693   6.497 -0.2197 -0.5545  0.5857
  155SAPE   H4S17223   7.278   4.757   6.603  2.0425 -0.3397  0.9761
  155SAPE   C2517224   7.353   4.901   6.461  0.6039 -0.5207  0.0398
  155SAPE   H5R17225   7.421   4.921   6.376  0.0937 -0.0709 -0.2659
  155SAPE   C2617226   7.301   5.011   6.526 -0.0366  0.1521  0.8064
  155SAPE   H6R17227   7.340   5.109   6.493  0.0055  0.0540  0.5668
  155SAPE   C2717228   7.204   5.012   6.638  0.6772  0.4198  0.5546
  155SAPE   H7R17229   7.171   4.909   6.666  1.6998  0.1290  0.7318
  155SAPE   H7S17230   7.119   5.067   6.593  1.0163  0.1982 -0.3890
  155SAPE   C2817231   7.253   5.064   6.769  0.7008  1.0123 -0.9284
  155SAPE   H8R17232   7.310   4.990   6.827 -0.5580 -0.0430 -0.9802
  155SAPE   C2917233   7.226   5.175   6.835  0.2561 -0.5158 -0.2794
  155SAPE   H9R17234   7.271   5.190   6.934 -0.1993 -1.8307  0.1530
  155SAPE  C21017235   7.154   5.294   6.778 -0.1291  0.0963  0.4145
  155SAPE  H10R17236   7.177   5.306   6.670  1.1856  0.5844  0.7359
  155SAPE  H10S17237   7.190   5.387   6.827 -1.1366  0.8713 -0.2702
  155SAPE  C21117238   7.006   5.276   6.797  0.8567  0.5517  0.3120
  155SAPE  H11R17239   6.960   5.213   6.719  1.9038  1.3222 -0.9692
  155SAPE  C21217240   6.936   5.305   6.913  0.1553  0.4386 -0.4903
  155SAPE  H12R17241   6.826   5.297   6.910 -0.0926  2.2663  1.6265
  155SAPE  C21317242   6.999   5.351   7.041  0.1996 -0.1798 -0.2126
  155SAPE  H13R17243   6.921   5.399   7.104 -1.9181 -0.0843 -2.7392
  155SAPE  H13S17244   7.065   5.439   7.024 -0.9866  0.9306  0.7224
  155SAPE  C21417245   7.066   5.254   7.133 -0.6433 -0.1898  0.0846
  155SAPE  H14R17246   7.102   5.167   7.077  0.9997  0.8222 -0.5018
  155SAPE  C21517247   7.092   5.276   7.263  0.0534  0.3394 -0.2643
  155SAPE  H15R17248   7.147   5.196   7.316  2.9042 -0.2897 -3.7572
  155SAPE  C21617249   7.052   5.402   7.338  0.0727 -0.7659  0.4525
  155SAPE  H16R17250   7.013   5.482   7.272 -3.7613 -1.6953  1.3508
  155SAPE  H16S17251   7.136   5.440   7.400  0.6955 -0.0776 -0.7776
  155SAPE  C21717252   6.948   5.374   7.447 -0.3249  0.3422  0.4196
  155SAPE  H17R17253   6.855   5.342   7.396 -0.4011  0.8992  0.2009
  155SAPE  H17S17254   6.932   5.470   7.501 -1.5149 -0.1630  0.9835
  155SAPE  C21817255   6.984   5.272   7.549  0.0455  0.0446 -0.0699
  155SAPE  H18R17256   7.077   5.307   7.599  1.0054 -2.4289  0.0478
  155SAPE  H18S17257   7.010   5.175   7.501  1.1892  0.0690  0.4658
  155SAPE  C21917258   6.873   5.255   7.653  0.0404  0.2200  0.4788
  155SAPE  H19R17259   6.784   5.212   7.601  0.4913 -1.7571  1.2479
  155SAPE  H19S17260   6.846   5.355   7.692 -1.9224  0.0170 -0.2379
  155SAPE  C22017261   6.910   5.174   7.773  0.0326 -0.0760 -0.2187
  155SAPE  H20R17262   6.839   5.188   7.857 -0.5571 -0.7637 -0.6018
  155SAPE  H20S17263   7.009   5.211   7.809  0.4925  2.6117 -3.6511
  155SAPE  H20T17264   6.916   5.065   7.756 -0.7621  0.1015 -1.8265
  155SAPE   C3317265   6.843   4.176   6.923 -0.2864  0.4877 -0.1436
  155SAPE   H3X17266   6.944   4.158   6.882 -0.8018  0.9803 -1.7108
  155SAPE   H3Y17267   6.795   4.077   6.918  1.4537 -0.3308 -1.6660
  155SAPE   C3417268   6.849   4.216   7.069 -0.3018  0.2299  0.6044
  155SAPE   H4X17269   6.869   4.326   7.069 -1.6825  0.7414 -4.2844
  155SAPE   H4Y17270   6.925   4.156   7.124 -2.3232 -1.5949  1.5240
  155SAPE   C3517271   6.723   4.203   7.155 -0.5036 -0.3665 -0.4631
  155SAPE   H5X17272   6.720   4.097   7.189 -2.5803 -0.3608 -0.4919
  155SAPE   H5Y17273   6.632   4.233   7.099 -0.1485  3.2904  0.6684
  155SAPE   C3617274   6.715   4.290   7.282 -0.6156  0.5861  0.4332
  155SAPE   H6X17275   6.618   4.271   7.333  0.6976  0.3271  2.9915
  155SAPE   H6Y17276   6.731   4.397   7.255  1.3695  0.1734 -0.2027
  155SAPE   C3717277   6.820   4.247   7.383 -0.2031 -0.3233 -0.2694
  155SAPE   H7X17278   6.926   4.245   7.350  0.4903 -1.4282  1.8029
  155SAPE   H7Y17279   6.802   4.144   7.422  1.5294 -0.5179  0.0894
  155SAPE   C3817280   6.821   4.344   7.509 -0.3482 -0.3509  0.7426
  155SAPE   H8X17281   6.718   4.355   7.547 -0.1154  0.4688  1.1733
  155SAPE   H8Y17282   6.866   4.439   7.472  1.7272 -2.0962 -1.6043
  155SAPE   C3917283   6.916   4.289   7.618  0.0810 -0.1701 -0.0013
  155SAPE   H9X17284   7.016   4.268   7.575  0.6272  0.4313  0.9432
  155SAPE   H9Y17285   6.882   4.190   7.655  0.5807 -0.9871 -1.6309
  155SAPE  C31017286   6.941   4.394   7.734 -0.4410 -0.4867 -0.6788
  155SAPE  H10X17287   6.850   4.437   7.781  0.9800  0.4791  1.2973
  155SAPE  H10Y17288   6.963   4.480   7.667  1.8953 -0.8725 -0.4772
  155SAPE  C31117289   7.058   4.357   7.833  0.2683 -0.3073  0.7954
  155SAPE  H11X17290   7.157   4.348   7.785 -0.2709 -1.6158 -0.1383
  155SAPE  H11Y17291   7.026   4.261   7.878  0.0737 -1.1942 -1.1515
  155SAPE  C31217292   7.081   4.462   7.946 -0.0239  0.4231 -0.2747
  155SAPE  H12X17293   6.993   4.477   8.013  1.1149  1.2624  1.0844
  155SAPE  H12Y17294   7.110   4.557   7.898 -0.5176  0.0116 -1.4312
  155SAPE  C31317295   7.198   4.413   8.024  0.3015 -0.7267 -0.4300
  155SAPE  H13X17296   7.286   4.415   7.956  1.9864 -2.4475  1.5602
  155SAPE  H13Y17297   7.174   4.311   8.062  2.0983 -0.9766  0.1000
  155SAPE  C31417298   7.210   4.501   8.142 -0.2440  0.5850 -0.3966
  155SAPE  H14X17299   7.136   4.466   8.218 -0.1695  2.4766  0.6024
  155SAPE  H14Y17300   7.217   4.606   8.108 -1.8288  0.7674 -0.2169
  155SAPE  C31517301   7.346   4.478   8.220  0.0723 -0.0801 -0.8730
  155SAPE  H15X17302   7.421   4.526   8.154 -0.8793  2.0000 -0.5150
  155SAPE  H15Y17303   7.356   4.367   8.223  0.1792 -0.0598 -0.4629
  155SAPE  C31617304   7.369   4.540   8.364  0.4377 -0.6382  0.6889
  155SAPE  H16X17305   7.338   4.647   8.361 -0.1506 -0.8066 -2.3217
  155SAPE  H16Y17306   7.477   4.532   8.388  0.1985 -0.6957  1.7887
  155SAPE  C31717307   7.284   4.472   8.474 -0.0696  0.0815 -0.0187
  155SAPE  H17X17308   7.178   4.496   8.452  0.0684  1.3536  0.6164
  155SAPE  H17Y17309   7.303   4.518   8.573 -1.4697  2.4439 -0.7630
  155SAPE  C31817310   7.304   4.315   8.480 -0.8134  0.4291  0.1850
  155SAPE  H18X17311   7.412   4.291   8.490 -0.7052 -2.0736 -4.4459
  155SAPE  H18Y17312   7.265   4.275   8.385 -2.3924  4.6697 -1.2045
  155SAPE  H18Z17313   7.259   4.273   8.572  0.4590  1.5055  1.3676
  156SAPE     N17314   3.384   4.672   6.033  0.2602  0.1216 -0.1544
  156SAPE   HN117315   3.384   4.583   5.979  1.5148  0.3559 -0.5935
  156SAPE   HN217316   3.293   4.678   6.082  0.3068 -0.4332  0.0030
  156SAPE   HN317317   3.386   4.759   5.976 -1.7305  1.3836  1.5747
  156SAPE   C1217318   3.486   4.688   6.146  0.1950 -0.6849  0.6924
  156SAPE  H12A17319   3.584   4.720   6.106  0.8804 -2.0187  1.2308
  156SAPE  H12B17320   3.514   4.589   6.189 -1.8284 -0.8875  1.6792
  156SAPE   C1117321   3.451   4.796   6.248 -0.1089 -0.0422 -0.3163
  156SAPE  H11A17322   3.533   4.778   6.320 -0.9459  0.9984  0.9335
  156SAPE  H11B17323   3.355   4.778   6.301 -0.1768  0.4626 -0.2670
  156SAPE     P17324   3.585   5.021   6.221  0.0850  0.3442  0.1104
  156SAPE   O1317325   3.694   4.958   6.146 -0.5840  0.3559  0.3080
  156SAPE   O1417326   3.552   5.160   6.190  0.0883 -0.0069  0.4512
  156SAPE   O1217327   3.452   4.933   6.196 -0.8603 -0.6516  0.5271
  156SAPE   O1117328   3.610   5.020   6.376 -1.0250 -0.5790  0.0676
  156SAPE    C117329   3.513   5.056   6.470 -0.4113 -0.1085  0.4224
  156SAPE    HA17330   3.478   5.159   6.446  0.6546  0.2616  0.4045
  156SAPE    HB17331   3.428   4.985   6.471 -0.7447  0.1507 -2.0745
  156SAPE    C217332   3.565   5.066   6.610  0.3697 -0.5577  0.5841
  156SAPE    HS17333   3.475   5.044   6.673 -2.0633  0.3571 -2.3500
  156SAPE   O2117334   3.619   5.199   6.628  0.0130  0.2055  0.5545
  156SAPE   C2117335   3.549   5.280   6.705  0.4898  0.1883 -0.0581
  156SAPE   O2217336   3.428   5.269   6.730  0.0490  0.3737  0.0647
  156SAPE   C2217337   3.634   5.406   6.737  0.0306 -0.1765  0.3786
  156SAPE   H2R17338   3.733   5.362   6.761 -0.1570 -1.4721 -1.0672
  156SAPE   H2S17339   3.622   5.468   6.645 -2.2323 -1.4928 -0.2816
  156SAPE    C317340   3.676   4.964   6.637 -0.1766 -0.4261 -0.4648
  156SAPE    HX17341   3.768   4.973   6.576 -0.0289  0.9780 -0.0749
  156SAPE    HY17342   3.637   4.864   6.611 -1.7880 -0.2111  0.9226
  156SAPE   O3117343   3.700   4.962   6.777  0.2302 -0.8248  0.2225
  156SAPE   C3117344   3.796   5.041   6.819  0.0666 -0.0389  0.4114
  156SAPE   O3217345   3.864   5.112   6.744 -0.3933  0.3924 -0.1280
  156SAPE   C3217346   3.804   5.030   6.970  0.5493 -0.0653 -0.0981
  156SAPE   H2X17347   3.814   4.923   6.999 -1.8077 -0.2535  0.2491
  156SAPE   H2Y17348   3.706   5.069   7.006  0.7794 -0.7810  1.3655
  156SAPE   C2317349   3.576   5.484   6.860  0.1268 -0.3114  1.0066
  156SAPE   H3R17350   3.469   5.507   6.842  0.2237  0.5856  1.5302
  156SAPE   H3S17351   3.629   5.582   6.861 -3.2488  1.6994 -0.1328
  156SAPE   C2417352   3.588   5.409   6.994  0.4442  0.8244  0.8247
  156SAPE   H4R17353   3.560   5.303   6.974 -0.0052  1.4562 -2.4429
  156SAPE   H4S17354   3.520   5.448   7.073 -1.3706  2.4919 -1.4213
  156SAPE   C2517355   3.730   5.403   7.034 -0.0646  0.2117 -0.1007
  156SAPE   H5R17356   3.796   5.366   6.954  0.7578  0.8287  0.2732
  156SAPE   C2617357   3.786   5.437   7.154 -0.7445 -0.2678  0.2613
  156SAPE   H6R17358   3.895   5.432   7.168 -0.6811  0.5198  0.1307
  156SAPE   C2717359   3.714   5.496   7.268 -0.5261  0.0241  0.3639
  156SAPE   H7R17360   3.616   5.535   7.233 -0.2665  3.1231  2.6920
  156SAPE   H7S17361   3.763   5.589   7.303 -1.0468  0.8626 -1.0425
  156SAPE   C2817362   3.701   5.389   7.376 -0.1833 -0.5035  0.0439
  156SAPE   H8R17363   3.652   5.298   7.339  0.5742 -0.9927  0.2300
  156SAPE   C2917364   3.758   5.377   7.499 -0.3561 -0.1039 -0.5536
  156SAPE   H9R17365   3.743   5.287   7.560 -0.6015 -0.5270 -1.2224
  156SAPE  C21017366   3.852   5.482   7.557 -0.7635 -0.5875 -0.5447
  156SAPE  H10R17367   3.889   5.553   7.479 -2.1222  2.5368  1.4657
  156SAPE  H10S17368   3.948   5.437   7.591  0.2079  0.8782 -1.2136
  156SAPE  C21117369   3.794   5.566   7.672 -0.0319  0.1548 -0.5386
  156SAPE  H11R17370   3.714   5.636   7.645 -1.3152 -0.1606  2.1576
  156SAPE  C21217371   3.821   5.558   7.803  0.5097  0.3494 -0.3105
  156SAPE  H12R17372   3.783   5.628   7.879 -0.7677  0.6510 -1.2148
  156SAPE  C21317373   3.909   5.452   7.866 -0.2104  0.7041 -0.7997
  156SAPE  H13R17374   4.003   5.440   7.809  0.4078 -0.6188  0.4537
  156SAPE  H13S17375   3.852   5.356   7.865 -0.8856  1.0928 -0.6006
  156SAPE  C21417376   3.948   5.494   8.004 -0.5491 -0.6399 -0.2377
  156SAPE  H14R17377   4.024   5.573   8.004  0.1654 -1.2152  2.7039
  156SAPE  C21517378   3.905   5.454   8.126  0.2424  0.4799 -0.0828
  156SAPE  H15R17379   3.949   5.503   8.214  1.3034  1.0242 -0.8945
  156SAPE  C21617380   3.807   5.350   8.149  0.5529  0.2540 -0.2810
  156SAPE  H16R17381   3.764   5.310   8.055  1.1292  0.3270 -0.5790
  156SAPE  H16S17382   3.724   5.393   8.209  0.4800 -0.3707  0.0789
  156SAPE  C21717383   3.864   5.234   8.239  0.3182 -1.3309  0.8942
  156SAPE  H17R17384   3.956   5.207   8.182 -0.0313  0.1499 -0.4384
  156SAPE  H17S17385   3.800   5.143   8.239 -1.2192 -0.3209  2.9762
  156SAPE  C21817386   3.906   5.270   8.379  0.2509  0.5051  0.4123
  156SAPE  H18R17387   3.817   5.305   8.437  1.3063  1.4436  1.5062
  156SAPE  H18S17388   3.979   5.353   8.382  1.4604 -0.1327 -3.9971
  156SAPE  C21917389   3.975   5.154   8.446  0.0543 -0.6437 -0.3812
  156SAPE  H19R17390   4.063   5.196   8.500 -0.9372  2.1196 -0.7321
  156SAPE  H19S17391   4.015   5.082   8.371  0.3382 -1.1487  0.2524
  156SAPE  C22017392   3.881   5.093   8.541  0.3083 -0.2104  0.2581
  156SAPE  H20R17393   3.931   4.999   8.574  2.2842 -0.1894 -2.3814
  156SAPE  H20S17394   3.781   5.077   8.494 -0.2171  0.8730  0.9840
  156SAPE  H20T17395   3.866   5.150   8.635 -0.4193 -0.0987  0.0841
  156SAPE   C3317396   3.925   5.100   7.036 -0.1646 -0.3364  0.2872
  156SAPE   H3X17397   3.919   5.208   7.013 -1.5982 -0.3381  0.5653
  156SAPE   H3Y17398   4.024   5.060   7.005 -0.1716  1.8502 -3.1605
  156SAPE   C3417399   3.914   5.080   7.186  0.5475  0.1372 -0.5380
  156SAPE   H4X17400   3.917   4.971   7.206 -0.9382 -0.0618 -1.2613
  156SAPE   H4Y17401   3.820   5.125   7.224  1.2247  1.5125 -0.4490
  156SAPE   C3517402   4.025   5.143   7.265  0.5992 -0.0613 -0.2046
  156SAPE   H5X17403   4.024   5.253   7.246  1.7288 -0.2232 -1.2878
  156SAPE   H5Y17404   4.116   5.125   7.205 -0.3724  2.0007 -2.4940
  156SAPE   C3617405   4.037   5.115   7.410  1.3421  0.1532 -0.9472
  156SAPE   H6X17406   4.055   5.007   7.426  2.4088  0.7471  2.8632
  156SAPE   H6Y17407   3.936   5.141   7.448  0.1532 -0.2934 -3.5418
  156SAPE   C3717408   4.151   5.190   7.482  0.0201 -0.7043  0.5025
  156SAPE   H7X17409   4.165   5.291   7.438 -1.5643 -0.2510  0.9699
  156SAPE   H7Y17410   4.244   5.130   7.467  1.3503  0.9914  1.6171
  156SAPE   C3817411   4.135   5.204   7.635  0.7776  0.3799  0.8576
  156SAPE   H8X17412   4.044   5.264   7.654  1.2401  1.7166 -0.8683
  156SAPE   H8Y17413   4.224   5.251   7.681  1.8119  0.3621 -1.0154
  156SAPE   C3917414   4.116   5.063   7.700 -0.3069  0.0487 -0.0764
  156SAPE   H9X17415   4.027   5.023   7.646  0.5721 -1.3837 -0.5214
  156SAPE   H9Y17416   4.093   5.060   7.809 -0.8522  0.5048 -0.1722
  156SAPE  C31017417   4.241   4.964   7.700 -0.1350 -0.9575 -0.3362
  156SAPE  H10X17418   4.337   5.016   7.720 -1.8564  2.0119  0.8097
  156SAPE  H10Y17419   4.247   4.921   7.597 -2.0754  0.5494 -1.1504
  156SAPE  C31117420   4.223   4.841   7.792  0.4000 -0.0113  0.0878
  156SAPE  H11X17421   4.300   4.766   7.762 -1.3745 -1.6661 -0.5313
  156SAPE  H11Y17422   4.127   4.799   7.755 -0.0229 -0.1619  1.3026
  156SAPE  C31217423   4.235   4.871   7.941 -0.3717  0.1284 -0.5622
  156SAPE  H12X17424   4.163   4.950   7.971  0.8876  0.6398  1.2828
  156SAPE  H12Y17425   4.337   4.908   7.962 -1.4349  3.3656 -0.5502
  156SAPE  C31317426   4.191   4.747   8.030  0.0596  0.4138 -0.3285
  156SAPE  H13X17427   4.241   4.659   7.986 -0.0542  1.1612 -2.0583
  156SAPE  H13Y17428   4.082   4.725   8.029  0.0553  0.4216 -1.7008
  156SAPE  C31417429   4.230   4.782   8.181 -0.4788  0.2924 -0.0101
  156SAPE  H14X17430   4.185   4.881   8.206  1.2479  1.1496 -0.1549
  156SAPE  H14Y17431   4.340   4.793   8.190 -0.4239 -1.2133  1.8055
  156SAPE  C31517432   4.187   4.676   8.277 -0.5810  0.3531 -0.6208
  156SAPE  H15X17433   4.203   4.571   8.247 -4.2255 -1.1220  1.8604
  156SAPE  H15Y17434   4.076   4.678   8.277 -0.5830  0.3963 -0.1094
  156SAPE  C31617435   4.257   4.690   8.410  0.2884  0.0038 -0.1750
  156SAPE  H16X17436   4.208   4.779   8.457 -1.1255 -1.1483  0.6256
  156SAPE  H16Y17437   4.362   4.716   8.384 -0.2694  0.4644 -2.1243
  156SAPE  C31717438   4.254   4.561   8.498  0.0794  0.6176 -0.2467
  156SAPE  H17X17439   4.318   4.574   8.588  1.0566 -2.2893 -0.4094
  156SAPE  H17Y17440   4.309   4.484   8.439  1.8638 -0.6085  2.7818
  156SAPE  C31817441   4.123   4.518   8.551 -0.2662 -0.0230 -0.3679
  156SAPE  H18X17442   4.087   4.595   8.623 -0.3612 -1.3694  1.0710
  156SAPE  H18Y17443   4.124   4.421   8.605  0.1197  0.3854  0.3758
  156SAPE  H18Z17444   4.043   4.504   8.476  0.4302 -0.6914 -0.9983
  157SAPE     N17445   2.477   5.156   6.747 -0.0887 -0.8572  0.1663
  157SAPE   HN117446   2.401   5.177   6.815  0.3530 -1.9231  1.0199
  157SAPE   HN217447   2.563   5.143   6.803 -1.4517 -1.9628  2.1249
  157SAPE   HN317448   2.480   5.236   6.680 -0.6956 -0.3562  0.7167
  157SAPE   C1217449   2.439   5.032   6.662 -0.1548 -0.0989 -0.4533
  157SAPE  H12A17450   2.340   5.061   6.621 -1.0629 -0.2909  1.5320
  157SAPE  H12B17451   2.417   4.945   6.728 -0.3771 -0.3609 -0.8668
  157SAPE   C1117452   2.547   4.992   6.562 -0.4876  0.4414  0.0219
  157SAPE  H11A17453   2.564   5.083   6.502  0.0764  0.2185 -0.1649
  157SAPE  H11B17454   2.512   4.906   6.501  2.0484 -1.1722  0.6676
  157SAPE     P17455   2.796   4.946   6.554 -0.3013  0.2825  0.3312
  157SAPE   O1317456   2.770   4.861   6.436  0.0443  0.2909 -0.4416
  157SAPE   O1417457   2.846   5.084   6.526  0.4489  0.5840  0.0427
  157SAPE   O1217458   2.660   4.959   6.634 -0.3823  0.2737  1.0001
  157SAPE   O1117459   2.895   4.869   6.649 -0.6449 -0.7441 -0.2801
  157SAPE    C117460   2.880   4.726   6.656 -0.0010  0.5074  0.1025
  157SAPE    HA17461   2.775   4.691   6.654 -0.1292  0.8896 -0.8170
  157SAPE    HB17462   2.930   4.676   6.570  1.8387  1.3737  0.6143
  157SAPE    C217463   2.935   4.660   6.786 -0.8992 -0.4342  0.6352
  157SAPE    HS17464   2.867   4.658   6.874 -2.0485  0.1293 -0.2178
  157SAPE   O2117465   3.050   4.737   6.831  0.0076 -0.1686 -0.3092
  157SAPE   C2117466   3.029   4.837   6.908 -0.2507 -0.4423 -0.2332
  157SAPE   O2217467   2.921   4.878   6.939  0.4275 -0.5796 -0.3302
  157SAPE   C2217468   3.163   4.905   6.943 -0.0563  0.7260 -0.8584
  157SAPE   H2R17469   3.197   4.945   6.845  1.7525 -1.6099 -1.2757
  157SAPE   H2S17470   3.139   4.987   7.014 -0.0908  0.5680 -0.6866
  157SAPE    C317471   2.994   4.519   6.751  0.5768 -0.2979 -0.4784
  157SAPE    HX17472   3.053   4.528   6.657 -1.0058  2.2752 -1.3268
  157SAPE    HY17473   2.902   4.461   6.729  0.3596  0.1552 -0.7714
  157SAPE   O3117474   3.055   4.455   6.868  0.0007  0.1937  0.2986
  157SAPE   C3117475   3.187   4.465   6.875 -0.1510  0.3698  0.0382
  157SAPE   O3217476   3.257   4.523   6.803 -0.1029 -0.1403  0.1209
  157SAPE   C3217477   3.257   4.391   6.990  0.1575  0.0867 -0.4624
  157SAPE   H2X17478   3.363   4.426   6.995  0.1690 -0.0922  1.2683
  157SAPE   H2Y17479   3.260   4.282   6.971 -0.3694 -0.5268  2.3902
  157SAPE   C2317480   3.256   4.801   7.012  0.5523 -0.3062  0.4746
  157SAPE   H3R17481   3.272   4.711   6.949 -1.7545 -1.2434  1.1037
  157SAPE   H3S17482   3.205   4.760   7.102 -1.0910 -1.3248 -0.8620
  157SAPE   C2417483   3.392   4.860   7.050  0.3767 -0.3783 -0.3227
  157SAPE   H4R17484   3.364   4.917   7.141 -0.1612  1.3391 -1.5259
  157SAPE   H4S17485   3.421   4.931   6.969  0.3119  0.9010  0.7432
  157SAPE   C2517486   3.505   4.766   7.070  0.3856 -0.4118 -0.3786
  157SAPE   H5R17487   3.544   4.735   6.971  0.7205 -0.8866 -0.1012
  157SAPE   C2617488   3.588   4.758   7.178 -0.1808  0.3938 -0.0532
  157SAPE   H6R17489   3.670   4.686   7.168  0.0525  0.7967 -1.0992
  157SAPE   C2717490   3.575   4.829   7.312 -0.0965  0.5624  0.3362
  157SAPE   H7R17491   3.523   4.756   7.377 -1.3751 -0.1996 -1.4390
  157SAPE   H7S17492   3.524   4.927   7.311 -1.3102 -0.0359  0.7701
  157SAPE   C2817493   3.716   4.851   7.359 -0.0412  0.3138 -0.6059
  157SAPE   H8R17494   3.801   4.843   7.290 -0.4811 -2.1820 -0.9629
  157SAPE   C2917495   3.747   4.907   7.481 -0.0643 -0.3836 -0.2144
  157SAPE   H9R17496   3.854   4.916   7.501  0.4441 -3.8180 -0.7480
  157SAPE  C21017497   3.668   4.952   7.597 -0.3438 -0.1433  0.2982
  157SAPE  H10R17498   3.568   4.991   7.569 -0.8109 -0.7171  1.1190
  157SAPE  H10S17499   3.718   5.033   7.655 -0.8084  1.6271 -1.6838
  157SAPE  C21117500   3.646   4.826   7.682  0.7260 -0.8091 -0.2842
  157SAPE  H11R17501   3.599   4.746   7.623 -1.7188  1.8907 -2.3089
  157SAPE  C21217502   3.700   4.800   7.809  0.4238  0.2111 -0.1573
  157SAPE  H12R17503   3.673   4.709   7.865  1.6992  0.3453  0.7193
  157SAPE  C21317504   3.766   4.904   7.895 -0.2681 -0.3365 -0.4736
  157SAPE  H13R17505   3.817   4.982   7.835 -1.0568  0.6246  0.0857
  157SAPE  H13S17506   3.841   4.846   7.953 -0.2855  0.3584  0.2590
  157SAPE  C21417507   3.665   4.970   7.984 -0.9379 -0.7721 -0.2810
  157SAPE  H14R17508   3.605   5.045   7.930  2.5364  1.4732 -1.3196
  157SAPE  C21517509   3.633   4.946   8.109  0.3499  0.5621  0.2994
  157SAPE  H15R17510   3.548   4.996   8.158 -2.6417  0.0330 -3.8230
  157SAPE  C21617511   3.699   4.843   8.200  0.0684 -0.0220  0.4780
  157SAPE  H16R17512   3.806   4.872   8.211  0.0487  2.1853 -3.2113
  157SAPE  H16S17513   3.706   4.746   8.147  2.7797 -0.0569  0.7685
  157SAPE  C21717514   3.641   4.829   8.339 -0.1464 -0.4656 -0.1564
  157SAPE  H17R17515   3.535   4.797   8.347  0.0213 -0.9538  0.1925
  157SAPE  H17S17516   3.650   4.928   8.389 -0.5798 -0.1708 -0.6558
  157SAPE  C21817517   3.729   4.733   8.420 -0.1289  0.9547  0.3968
  157SAPE  H18R17518   3.838   4.753   8.414 -0.0897  0.8827  0.8429
  157SAPE  H18S17519   3.729   4.636   8.367 -1.4310  1.3848 -0.4362
  157SAPE  C21917520   3.685   4.727   8.562  0.1092 -0.5752 -0.2248
  157SAPE  H19R17521   3.574   4.717   8.554 -0.0448  0.1190  0.7686
  157SAPE  H19S17522   3.702   4.823   8.616 -0.6876 -0.1739 -0.6641
  157SAPE  C22017523   3.751   4.608   8.645 -0.4253 -0.6348  0.1601
  157SAPE  H20R17524   3.709   4.608   8.748  0.6550 -0.4524  0.6039
  157SAPE  H20S17525   3.861   4.621   8.640 -0.5464 -0.0135 -3.3858
  157SAPE  H20T17526   3.723   4.508   8.606  0.9737 -1.1987  0.5646
  157SAPE   C3317527   3.172   4.409   7.120 -0.4559  0.3474 -0.5483
  157SAPE   H3X17528   3.071   4.364   7.118 -0.2530 -0.2182  0.8827
  157SAPE   H3Y17529   3.149   4.517   7.132  1.3314  0.9602 -2.0759
  157SAPE   C3417530   3.243   4.362   7.254 -0.3721  0.2850  0.3542
  157SAPE   H4X17531   3.294   4.266   7.235 -1.8538 -0.2586 -1.0743
  157SAPE   H4Y17532   3.166   4.336   7.329 -0.8028  2.6544  0.8157
  157SAPE   C3517533   3.345   4.458   7.313 -0.5246 -0.2053 -0.4560
  157SAPE   H5X17534   3.295   4.552   7.345  1.7894  0.5997  1.1122
  157SAPE   H5Y17535   3.424   4.489   7.242 -1.6044  1.8653 -0.8179
  157SAPE   C3617536   3.408   4.393   7.434  0.5004 -0.1380 -0.1117
  157SAPE   H6X17537   3.492   4.322   7.419  1.9278  1.7452 -1.3989
  157SAPE   H6Y17538   3.326   4.341   7.488  0.8645 -0.3510  0.2418
  157SAPE   C3717539   3.462   4.503   7.522 -0.3213 -0.3215  0.1797
  157SAPE   H7X17540   3.385   4.575   7.558  0.6052  1.8650 -1.9241
  157SAPE   H7Y17541   3.535   4.560   7.460 -0.5881 -2.4987 -2.3184
  157SAPE   C3817542   3.534   4.442   7.645  0.9751 -0.4680 -0.2249
  157SAPE   H8X17543   3.577   4.539   7.680  0.1857 -0.1821 -0.0094
  157SAPE   H8Y17544   3.604   4.362   7.616  0.2189 -1.8940  1.6743
  157SAPE   C3917545   3.446   4.391   7.760  0.6861 -0.1962  0.5506
  157SAPE   H9X17546   3.394   4.297   7.732  1.8747 -0.6318 -0.2748
  157SAPE   H9Y17547   3.369   4.471   7.769 -1.1608 -1.9875  1.5386
  157SAPE  C31017548   3.506   4.363   7.903 -0.2656  0.1707  0.9206
  157SAPE  H10X17549   3.563   4.453   7.934  0.9966 -0.1516 -0.3833
  157SAPE  H10Y17550   3.568   4.276   7.874  1.9095  1.4948  1.4258
  157SAPE  C31117551   3.401   4.334   8.015 -0.3552  0.2836  0.2436
  157SAPE  H11X17552   3.328   4.260   7.977  0.0608  0.4856 -0.9720
  157SAPE  H11Y17553   3.348   4.430   8.029 -0.0676  0.3277  1.0957
  157SAPE  C31217554   3.467   4.273   8.139 -0.5973  0.1456 -0.7795
  157SAPE  H12X17555   3.494   4.173   8.100 -0.3029  0.3832 -1.1901
  157SAPE  H12Y17556   3.382   4.258   8.209 -0.1037  0.7535 -0.0330
  157SAPE  C31317557   3.578   4.360   8.216  0.6505  0.2859  0.7235
  157SAPE  H13X17558   3.547   4.465   8.202  0.4893  0.0807 -0.5671
  157SAPE  H13Y17559   3.674   4.347   8.160 -0.1502 -0.4105 -0.5341
  157SAPE  C31417560   3.593   4.327   8.363 -0.5804  0.0728 -0.2349
  157SAPE  H14X17561   3.687   4.368   8.407  0.1426 -1.5956 -0.1339
  157SAPE  H14Y17562   3.612   4.218   8.374  0.4727  0.2744  0.1088
  157SAPE  C31517563   3.473   4.344   8.454  0.0826 -0.5436  0.7846
  157SAPE  H15X17564   3.391   4.275   8.424  1.2730 -1.4608 -0.5007
  157SAPE  H15Y17565   3.437   4.448   8.463  0.8322 -0.2813  0.8258
  157SAPE  C31617566   3.505   4.295   8.594 -0.3863  0.1486 -0.0563
  157SAPE  H16X17567   3.597   4.341   8.635 -0.2149 -0.0969 -0.1670
  157SAPE  H16Y17568   3.525   4.186   8.594  2.0911  0.5197 -1.6923
  157SAPE  C31717569   3.402   4.345   8.698  0.4275  0.1431  0.2814
  157SAPE  H17X17570   3.402   4.294   8.797 -1.1761 -1.3984 -0.4572
  157SAPE  H17Y17571   3.302   4.313   8.662  1.5337 -1.5216 -1.4309
  157SAPE  C31817572   3.390   4.494   8.744 -0.1530 -0.3266 -0.6655
  157SAPE  H18X17573   3.356   4.559   8.660 -1.1560  0.0661  0.0269
  157SAPE  H18Y17574   3.483   4.543   8.781  0.5294 -1.4238 -0.8874
  157SAPE  H18Z17575   3.316   4.500   8.827 -0.7287 -2.0718 -1.0112
  158SAPE     N17576   4.449   3.137   6.279  0.1490 -0.3774  0.3657
  158SAPE   HN117577   4.384   3.172   6.206  3.0205 -1.1207 -2.8317
  158SAPE   HN217578   4.487   3.045   6.249  0.2802 -0.0404 -0.5456
  158SAPE   HN317579   4.400   3.122   6.370 -2.5698 -2.0884 -1.2292
  158SAPE   C1217580   4.566   3.231   6.283 -0.7217 -0.4287 -0.5123
  158SAPE  H12A17581   4.520   3.329   6.304 -1.2484 -0.7845  0.0132
  158SAPE  H12B17582   4.617   3.225   6.184 -1.4854 -2.2475 -0.8353
  158SAPE   C1117583   4.662   3.169   6.383 -0.5249 -0.0969 -0.5999
  158SAPE  H11A17584   4.681   3.059   6.377 -0.9851 -0.4006  2.2708
  158SAPE  H11B17585   4.623   3.175   6.487 -0.1088  1.5950 -0.5244
  158SAPE     P17586   4.856   3.355   6.429 -0.1674  0.5891  0.2235
  158SAPE   O1317587   4.986   3.321   6.488  0.4043 -0.5007  0.1428
  158SAPE   O1417588   4.858   3.464   6.330  0.1820 -0.4012 -0.1292
  158SAPE   O1217589   4.795   3.224   6.371 -0.5318 -0.4242  0.6042
  158SAPE   O1117590   4.752   3.407   6.537  0.3663  0.1877 -0.4349
  158SAPE    C117591   4.773   3.362   6.673  0.5165 -0.6764  0.0618
  158SAPE    HA17592   4.717   3.270   6.698 -0.9810  0.5697  1.4948
  158SAPE    HB17593   4.877   3.331   6.694  0.4493 -1.2766 -0.4679
  158SAPE    C217594   4.741   3.478   6.770  0.8073  0.2388 -0.0569
  158SAPE    HS17595   4.747   3.441   6.875 -1.5468  0.4043  0.2029
  158SAPE   O2117596   4.607   3.534   6.746 -0.1131  0.1807  0.0853
  158SAPE   C2117597   4.513   3.447   6.789  0.4673 -0.5331  0.1843
  158SAPE   O2217598   4.534   3.350   6.862  0.2605 -0.6743  0.1699
  158SAPE   C2217599   4.375   3.489   6.737 -0.2978 -0.6556 -0.7004
  158SAPE   H2R17600   4.393   3.572   6.666 -1.7663  0.6816  0.4126
  158SAPE   H2S17601   4.329   3.401   6.687 -0.4970 -0.1871 -1.3515
  158SAPE    C317602   4.849   3.595   6.758 -0.1947 -0.3941 -0.4325
  158SAPE    HX17603   4.809   3.662   6.678 -2.2817  0.7997  1.4994
  158SAPE    HY17604   4.944   3.554   6.717  1.4434 -0.2421  2.8742
  158SAPE   O3117605   4.877   3.670   6.879  0.4536 -0.0852 -0.5644
  158SAPE   C3117606   4.971   3.610   6.955 -0.5350  0.0246 -0.3820
  158SAPE   O3217607   5.027   3.501   6.928 -0.5444 -0.7387  0.1963
  158SAPE   C3217608   4.973   3.681   7.088 -0.0019 -0.3205 -0.1016
  158SAPE   H2X17609   5.003   3.787   7.072 -0.8962 -0.4147 -3.0531
  158SAPE   H2Y17610   5.064   3.641   7.138  0.0193  1.9895  1.8887
  158SAPE   C2317611   4.292   3.543   6.855  0.8397  0.0752 -0.1186
  158SAPE   H3R17612   4.284   3.471   6.939  0.2354  0.0872 -0.1664
  158SAPE   H3S17613   4.192   3.575   6.818  0.7977  0.4378  0.3037
  158SAPE   C2417614   4.346   3.675   6.909 -0.3455 -0.4623 -0.2064
  158SAPE   H4R17615   4.339   3.746   6.824 -1.8375  1.1744  1.2261
  158SAPE   H4S17616   4.448   3.661   6.951  1.2522  1.0053 -3.2655
  158SAPE   C2517617   4.261   3.727   7.023  0.0816  0.2843  0.0120
  158SAPE   H5R17618   4.159   3.748   6.986  0.3202 -0.6364 -1.1874
  158SAPE   C2617619   4.291   3.747   7.154  0.2414 -0.8665 -0.2500
  158SAPE   H6R17620   4.217   3.780   7.228  0.6164 -1.7463  0.5442
  158SAPE   C2717621   4.414   3.704   7.228 -0.5695 -0.4111 -0.2794
  158SAPE   H7R17622   4.483   3.646   7.163 -1.6021 -1.2114 -0.6936
  158SAPE   H7S17623   4.373   3.632   7.303 -1.5678 -0.1634 -0.5661
  158SAPE   C2817624   4.480   3.825   7.296  0.0886  0.0236  0.0409
  158SAPE   H8R17625   4.540   3.880   7.221  0.7612  1.9172  1.8680
  158SAPE   C2917626   4.457   3.901   7.406  0.2027 -0.1507  0.4128
  158SAPE   H9R17627   4.513   3.995   7.418 -1.3181  0.7847  0.4659
  158SAPE  C21017628   4.363   3.871   7.511  0.4868 -0.1230 -0.5576
  158SAPE  H10R17629   4.313   3.776   7.482 -1.1681  0.6922 -0.4847
  158SAPE  H10S17630   4.288   3.952   7.524 -0.3045 -0.8804 -0.2746
  158SAPE  C21117631   4.425   3.842   7.650 -0.3158  1.2169  0.3783
  158SAPE  H11R17632   4.532   3.819   7.646 -0.5946 -0.7764  2.2290
  158SAPE  C21217633   4.367   3.837   7.770  0.4646 -0.1390  0.1249
  158SAPE  H12R17634   4.428   3.811   7.858  0.9987 -1.9670 -0.7287
  158SAPE  C21317635   4.221   3.883   7.786  0.5640  0.3711 -0.1563
  158SAPE  H13R17636   4.157   3.879   7.695  2.0191 -0.5999 -1.1763
  158SAPE  H13S17637   4.222   3.989   7.819  3.5499 -0.0932  1.5872
  158SAPE  C21417638   4.153   3.812   7.898  0.2367  0.3141 -0.5918
  158SAPE  H14R17639   4.108   3.720   7.858  0.1114 -1.3013  2.9945
  158SAPE  C21517640   4.137   3.850   8.024 -0.9367 -0.0445 -0.3540
  158SAPE  H15R17641   4.070   3.790   8.087  1.3588  0.0821  2.4347
  158SAPE  C21617642   4.192   3.973   8.090 -0.2047 -0.0586  0.1472
  158SAPE  H16R17643   4.138   3.990   8.185 -0.5936  0.8016 -0.2178
  158SAPE  H16S17644   4.164   4.058   8.025  0.0728  0.4114  0.6409
  158SAPE  C21717645   4.343   3.980   8.115 -1.7248 -0.3104  0.6713
  158SAPE  H17R17646   4.377   4.081   8.147 -0.6586 -1.1412  2.2786
  158SAPE  H17S17647   4.382   3.958   8.014 -0.4093  0.6592  0.9449
  158SAPE  C21817648   4.409   3.887   8.222 -0.8967 -0.0058 -0.9128
  158SAPE  H18R17649   4.402   3.780   8.194 -0.1387 -0.2202 -0.3039
  158SAPE  H18S17650   4.348   3.898   8.314 -0.2065 -1.6275 -0.2325
  158SAPE  C21917651   4.559   3.923   8.238 -0.5153 -0.0684 -0.3316
  158SAPE  H19R17652   4.577   4.024   8.281 -1.5082  0.5721 -1.3510
  158SAPE  H19S17653   4.607   3.908   8.139  2.4567  0.3020  0.9389
  158SAPE  C22017654   4.620   3.825   8.344 -0.6514 -0.7764 -0.4793
  158SAPE  H20R17655   4.725   3.847   8.370 -1.2118  2.3232 -0.4677
  158SAPE  H20S17656   4.641   3.723   8.305  1.6451  0.3310 -2.3952
  158SAPE  H20T17657   4.556   3.825   8.436 -0.9774  1.8148 -0.6471
  158SAPE   C3317658   4.858   3.654   7.189 -0.0515  0.0600  0.6873
  158SAPE   H3X17659   4.835   3.546   7.183 -2.1682  0.5488 -1.5044
  158SAPE   H3Y17660   4.765   3.706   7.156  0.0281 -1.6146 -2.5320
  158SAPE   C3417661   4.897   3.705   7.327 -0.5709  0.1554 -0.4856
  158SAPE   H4X17662   4.897   3.816   7.333 -3.1542  0.1456  1.0082
  158SAPE   H4Y17663   5.001   3.667   7.340  0.1784  2.2084 -0.1157
  158SAPE   C3517664   4.821   3.642   7.446  0.7673  0.3421 -0.2212
  158SAPE   H5X17665   4.840   3.532   7.452  0.0665  0.2907  2.8628
  158SAPE   H5Y17666   4.712   3.658   7.435  0.7827  3.0472  2.4114
  158SAPE   C3617667   4.862   3.702   7.587  0.5577 -0.2533 -0.0427
  158SAPE   H6X17668   4.855   3.813   7.579 -0.2887 -0.3983 -1.6830
  158SAPE   H6Y17669   4.971   3.694   7.604  0.8041  1.8020 -0.3870
  158SAPE   C3717670   4.767   3.662   7.700  0.5393 -0.1853 -1.0960
  158SAPE   H7X17671   4.659   3.668   7.675  0.1879  1.5749  0.6049
  158SAPE   H7Y17672   4.787   3.559   7.737 -1.7420 -0.4113 -0.3281
  158SAPE   C3817673   4.766   3.749   7.829 -0.8789  0.2435  0.9005
  158SAPE   H8X17674   4.718   3.689   7.910 -1.4252  1.8063  1.7765
  158SAPE   H8Y17675   4.708   3.842   7.814 -0.8240  0.5229  2.2714
  158SAPE   C3917676   4.906   3.782   7.875 -0.6660  1.1080 -0.4373
  158SAPE   H9X17677   4.960   3.855   7.810 -1.8142  3.4592  1.0828
  158SAPE   H9Y17678   4.966   3.689   7.885 -1.4214  0.7928  2.0744
  158SAPE  C31017679   4.897   3.856   8.005 -0.4211  0.5363  0.0418
  158SAPE  H10X17680   4.825   3.812   8.077  0.5652 -0.2522  0.5693
  158SAPE  H10Y17681   4.854   3.956   7.984  0.3922  0.7345 -0.7790
  158SAPE  C31117682   5.043   3.876   8.063  0.2861  0.3566  0.5313
  158SAPE  H11X17683   5.109   3.933   7.993 -1.2146  0.4546 -0.8696
  158SAPE  H11Y17684   5.059   3.768   8.079 -1.4168 -0.2402 -1.3617
  158SAPE  C31217685   5.030   3.946   8.195  1.0351  0.5933  0.2874
  158SAPE  H12X17686   4.964   3.890   8.264  0.8489 -0.5661 -0.7934
  158SAPE  H12Y17687   4.980   4.044   8.195 -1.3998 -0.5753  1.0125
  158SAPE  C31317688   5.161   3.962   8.267  0.3798 -0.5821  0.0035
  158SAPE  H13X17689   5.238   4.014   8.206 -1.6156  1.5728 -0.8140
  158SAPE  H13Y17690   5.205   3.861   8.282  0.4692 -0.5988 -0.3782
  158SAPE  C31417691   5.164   4.040   8.404 -0.3262  0.2607 -0.2146
  158SAPE  H14X17692   5.263   4.056   8.450 -0.0470  0.6108 -0.9191
  158SAPE  H14Y17693   5.102   3.968   8.462 -1.7110  0.0690 -1.8495
  158SAPE  C31517694   5.080   4.169   8.414 -0.0521  0.5559 -0.2061
  158SAPE  H15X17695   4.978   4.163   8.370  0.5301  0.0940 -1.5530
  158SAPE  H15Y17696   5.123   4.252   8.353 -0.1911  0.9011  0.1618
  158SAPE  C31617697   5.057   4.204   8.566 -0.9147  0.1091 -0.2406
  158SAPE  H16X17698   5.014   4.119   8.623 -0.5825 -1.5016 -2.2697
  158SAPE  H16Y17699   4.985   4.287   8.581 -2.6559 -1.4054  0.1495
  158SAPE  C31717700   5.185   4.253   8.634  0.1895 -0.8341 -0.9486
  158SAPE  H17X17701   5.232   4.324   8.563  0.2929  0.7536  0.6590
  158SAPE  H17Y17702   5.249   4.162   8.642  0.3344 -0.8042 -1.6506
  158SAPE  C31817703   5.160   4.316   8.773 -0.2835 -0.6776 -0.0168
  158SAPE  H18X17704   5.243   4.368   8.825 -1.0219  0.1789  0.3387
  158SAPE  H18Y17705   5.135   4.229   8.836 -1.0924 -1.2827 -1.1289
  158SAPE  H18Z17706   5.083   4.397   8.774  2.8608  2.6094  1.7444
  159SAPE     N17707   2.598   6.029   6.544  0.1706  0.0456 -0.1823
  159SAPE   HN117708   2.603   6.104   6.472  0.9331  0.5042  0.3403
  159SAPE   HN217709   2.554   5.942   6.507  0.1815  0.4551 -1.1834
  159SAPE   HN317710   2.533   6.065   6.617  2.7751 -0.1506  2.4018
  159SAPE   C1217711   2.728   6.009   6.608  0.0693 -0.3152  0.6053
  159SAPE  H12A17712   2.786   5.943   6.541 -0.8880 -0.5907  0.0273
  159SAPE  H12B17713   2.719   5.963   6.708 -2.1025 -1.2212  0.0474
  159SAPE   C1117714   2.791   6.146   6.623 -0.8236 -0.5855 -0.0115
  159SAPE  H11A17715   2.898   6.129   6.647  0.0070 -0.7439 -3.2858
  159SAPE  H11B17716   2.737   6.201   6.704 -1.3053  0.2272 -0.8605
  159SAPE     P17717   2.903   6.321   6.459  0.1433 -0.4926  0.0549
  159SAPE   O1317718   3.025   6.246   6.423 -0.1504  0.7060  0.0883
  159SAPE   O1417719   2.856   6.415   6.354 -0.3790 -0.0103 -0.5304
  159SAPE   O1217720   2.789   6.218   6.504 -0.7245 -0.9109  0.0745
  159SAPE   O1117721   2.930   6.403   6.592  0.1791  0.9087 -0.1667
  159SAPE    C117722   3.056   6.453   6.623  0.1507 -0.3445  0.3660
  159SAPE    HA17723   3.131   6.432   6.544 -2.4313 -0.3901 -2.2185
  159SAPE    HB17724   3.052   6.563   6.638 -1.5121 -0.4462  0.8534
  159SAPE    C217725   3.097   6.411   6.773 -0.6386  0.3083  1.1577
  159SAPE    HS17726   3.080   6.302   6.782  1.9401 -0.3388 -0.6350
  159SAPE   O2117727   3.021   6.489   6.862  0.0449  0.3480 -0.2016
  159SAPE   C2117728   2.906   6.428   6.905  0.9592 -0.5867 -0.2544
  159SAPE   O2217729   2.877   6.311   6.903  0.3775 -0.4288  0.2406
  159SAPE   C2217730   2.813   6.531   6.967  0.1416  0.8007  0.5865
  159SAPE   H2R17731   2.817   6.629   6.914  1.7985  1.0250  1.0962
  159SAPE   H2S17732   2.713   6.485   6.947  0.1307  0.7618  0.7333
  159SAPE    C317733   3.247   6.429   6.811 -0.0699 -0.6395 -0.4001
  159SAPE    HX17734   3.266   6.532   6.777  2.3732 -1.4268 -1.6428
  159SAPE    HY17735   3.307   6.370   6.739 -1.0293 -1.2519 -0.7225
  159SAPE   O3117736   3.288   6.391   6.944  0.0787  0.3225  0.1939
  159SAPE   C3117737   3.309   6.266   6.972 -0.2588  0.0864  0.2260
  159SAPE   O3217738   3.280   6.171   6.898 -0.0261 -0.5405 -0.1248
  159SAPE   C3217739   3.388   6.244   7.102  0.1089  0.3927  0.6961
  159SAPE   H2X17740   3.434   6.340   7.137 -2.0030  2.6471 -2.2437
  159SAPE   H2Y17741   3.462   6.168   7.070 -0.2899 -0.5516  1.9529
  159SAPE   C2317742   2.828   6.540   7.126 -0.0719  0.1209  0.3136
  159SAPE   H3R17743   2.799   6.445   7.175  1.8387 -0.8679 -0.3737
  159SAPE   H3S17744   2.749   6.615   7.148  0.7604  1.0937  0.0893
  159SAPE   C2417745   2.960   6.603   7.175  0.3983  0.1997  0.1738
  159SAPE   H4R17746   2.984   6.683   7.102  0.9004 -2.2704 -2.5549
  159SAPE   H4S17747   3.044   6.530   7.175 -1.3010 -1.9056  1.3178
  159SAPE   C2517748   2.952   6.674   7.310 -0.0537 -0.0814 -0.6637
  159SAPE   H5R17749   3.015   6.765   7.315  1.1537 -0.9881  2.1272
  159SAPE   C2617750   2.902   6.628   7.429 -0.8078 -0.0435 -0.2586
  159SAPE   H6R17751   2.898   6.696   7.515 -1.8593  0.9992 -1.1084
  159SAPE   C2717752   2.844   6.485   7.449  0.9988 -0.2965  0.3364
  159SAPE   H7R17753   2.883   6.409   7.378  0.0287 -0.2860 -0.2339
  159SAPE   H7S17754   2.734   6.498   7.435  1.3734  1.1798 -1.7273
  159SAPE   C2817755   2.876   6.422   7.585  0.2212  0.7765  0.2270
  159SAPE   H8R17756   2.925   6.324   7.586  1.1071  1.1918 -0.8439
  159SAPE   C2917757   2.824   6.472   7.704 -0.2397  0.0385  0.1429
  159SAPE   H9R17758   2.848   6.407   7.790  0.9880 -2.6280 -2.0513
  159SAPE  C21017759   2.749   6.600   7.722  0.6219 -0.6221 -0.5421
  159SAPE  H10R17760   2.673   6.615   7.643 -0.2793 -1.3985  0.1640
  159SAPE  H10S17761   2.813   6.691   7.720 -0.4703  0.1573 -1.0241
  159SAPE  C21117762   2.675   6.606   7.854  0.0648 -0.7541  0.3667
  159SAPE  H11R17763   2.633   6.510   7.886  3.4562 -2.1674  0.9953
  159SAPE  C21217764   2.646   6.718   7.927 -0.6632  0.6560 -0.6872
  159SAPE  H12R17765   2.588   6.710   8.020 -0.0361  2.3670 -0.1168
  159SAPE  C21317766   2.712   6.849   7.895  0.2980  0.5154 -0.3622
  159SAPE  H13R17767   2.720   6.855   7.784 -0.1874 -1.3638 -0.5290
  159SAPE  H13S17768   2.818   6.848   7.931  1.1212  3.2141 -2.3600
  159SAPE  C21417769   2.646   6.981   7.937  0.2789 -0.1860 -0.1508
  159SAPE  H14R17770   2.558   6.961   7.999  0.1447  1.0714  0.0886
  159SAPE  C21517771   2.701   7.110   7.928  0.6783  0.1536 -0.2981
  159SAPE  H15R17772   2.627   7.191   7.926  0.1041 -0.3251 -2.9820
  159SAPE  C21617773   2.827   7.145   7.853  0.5512 -0.0837  0.0508
  159SAPE  H16R17774   2.809   7.251   7.824 -0.7620 -0.3865 -0.3235
  159SAPE  H16S17775   2.845   7.095   7.756 -0.0763  2.0628 -1.2459
  159SAPE  C21717776   2.962   7.121   7.932  0.5985 -0.5697 -0.0736
  159SAPE  H17R17777   2.965   7.012   7.954 -0.3715 -0.9654 -1.7547
  159SAPE  H17S17778   2.958   7.185   8.022 -3.3440  0.7223 -0.9780
  159SAPE  C21817779   3.082   7.184   7.866  0.1053 -0.3432 -0.4686
  159SAPE  H18R17780   3.087   7.295   7.860  1.8601 -0.1696  2.2375
  159SAPE  H18S17781   3.090   7.144   7.763  1.8195 -2.8533  0.5531
  159SAPE  C21917782   3.211   7.148   7.943 -0.0984 -0.0023  0.2446
  159SAPE  H19R17783   3.234   7.040   7.930 -1.1359 -0.6451  2.9754
  159SAPE  H19S17784   3.185   7.165   8.050  1.5615  0.4362  0.6098
  159SAPE  C22017785   3.327   7.233   7.900 -0.4671 -0.3724 -0.4808
  159SAPE  H20R17786   3.409   7.230   7.975 -1.6716 -2.8484  0.8644
  159SAPE  H20S17787   3.295   7.339   7.895  1.0232  0.1599  0.7098
  159SAPE  H20T17788   3.370   7.198   7.803  2.9305  0.0756  0.7268
  159SAPE   C3317789   3.307   6.177   7.218 -0.1581 -1.0835  0.0001
  159SAPE   H3X17790   3.382   6.151   7.296  0.6886 -0.4108 -0.5624
  159SAPE   H3Y17791   3.263   6.079   7.189  0.1231 -1.5204  1.0254
  159SAPE   C3417792   3.187   6.265   7.269 -0.1320 -0.0915  0.0642
  159SAPE   H4X17793   3.124   6.196   7.328  0.1763 -1.5383 -1.2563
  159SAPE   H4Y17794   3.111   6.287   7.191 -0.2804  0.3583  0.3281
  159SAPE   C3517795   3.218   6.392   7.352  0.6532  0.5132 -0.6085
  159SAPE   H5X17796   3.117   6.433   7.372 -0.1329 -0.6807 -1.8992
  159SAPE   H5Y17797   3.257   6.467   7.280  0.1919  1.9058  0.5434
  159SAPE   C3617798   3.304   6.377   7.478  0.2434  0.0926 -0.2372
  159SAPE   H6X17799   3.294   6.470   7.538 -0.9100 -1.1346  1.5905
  159SAPE   H6Y17800   3.410   6.361   7.450 -0.0080  0.6261 -1.5703
  159SAPE   C3717801   3.254   6.261   7.564  0.6287  0.4389  0.0754
  159SAPE   H7X17802   3.299   6.176   7.508  0.0078  1.5515 -2.2627
  159SAPE   H7Y17803   3.143   6.267   7.570  0.6201  2.1290 -1.0134
  159SAPE   C3817804   3.301   6.268   7.711 -0.4982  0.4169  0.4614
  159SAPE   H8X17805   3.263   6.361   7.759 -2.3521  0.8098 -1.6141
  159SAPE   H8Y17806   3.412   6.266   7.712 -0.3382 -2.3462 -2.9746
  159SAPE   C3917807   3.244   6.149   7.798 -0.5444  0.0613 -0.4131
  159SAPE   H9X17808   3.295   6.057   7.763 -0.7916 -0.5218  0.6915
  159SAPE   H9Y17809   3.134   6.137   7.783 -0.7435  0.0383  0.9268
  159SAPE  C31017810   3.274   6.177   7.948 -0.1214  0.7584 -0.4066
  159SAPE  H10X17811   3.289   6.284   7.973  0.1688  0.9178 -1.2377
  159SAPE  H10Y17812   3.367   6.126   7.981 -0.8748  0.5558  1.5649
  159SAPE  C31117813   3.163   6.118   8.045  0.7541  0.2714  0.2064
  159SAPE  H11X17814   3.156   6.008   8.028 -1.0215  0.6269 -1.7735
  159SAPE  H11Y17815   3.069   6.158   8.003  0.2151 -1.9170 -0.8600
  159SAPE  C31217816   3.189   6.149   8.193  0.4123 -0.5770  0.6131
  159SAPE  H12X17817   3.156   6.252   8.220 -0.6314 -1.3057  2.3162
  159SAPE  H12Y17818   3.291   6.120   8.223  0.3454 -4.2667 -2.0789
  159SAPE  C31317819   3.099   6.057   8.284 -0.7950 -0.2958  0.2245
  159SAPE  H13X17820   3.153   5.960   8.287  1.9838  1.1645  1.4771
  159SAPE  H13Y17821   2.999   6.049   8.237 -0.0806 -1.4913 -1.1859
  159SAPE  C31417822   3.070   6.111   8.421 -0.1477  0.0682  0.3415
  159SAPE  H14X17823   3.007   6.202   8.415 -2.3257 -1.3097  1.0847
  159SAPE  H14Y17824   3.161   6.132   8.480  0.9037 -1.2999 -0.7060
  159SAPE  C31517825   2.984   6.012   8.508 -0.2008 -0.4417 -0.5995
  159SAPE  H15X17826   3.048   5.924   8.528  1.7572  1.3600  1.6665
  159SAPE  H15Y17827   2.899   5.973   8.448 -1.2148 -0.7039  0.9329
  159SAPE  C31617828   2.936   6.083   8.639 -0.2917 -0.1608  0.1356
  159SAPE  H16X17829   3.026   6.085   8.704  0.6800 -0.3642 -1.1678
  159SAPE  H16Y17830   2.862   6.012   8.681 -0.5797 -1.3641 -2.2127
  159SAPE  C31717831   2.871   6.221   8.639 -0.6350  0.1539 -0.5344
  159SAPE  H17X17832   2.927   6.285   8.568  1.8626 -0.6759  0.5429
  159SAPE  H17Y17833   2.891   6.258   8.742  0.5264  1.1279 -1.0929
  159SAPE  C31817834   2.720   6.223   8.614 -0.0613 -0.6743  0.0271
  159SAPE  H18X17835   2.676   6.324   8.606  1.6602  0.1693  0.6808
  159SAPE  H18Y17836   2.656   6.176   8.691 -0.9723  1.0013  0.3295
  159SAPE  H18Z17837   2.707   6.172   8.516  0.3868  0.4382 -0.6233
  160SAPE     N17838   3.748   3.404   5.884  0.2353 -0.1822  0.0560
  160SAPE   HN117839   3.849   3.424   5.877  0.7337 -2.8303 -2.0500
  160SAPE   HN217840   3.746   3.302   5.865 -1.7793  0.2235 -2.4821
  160SAPE   HN317841   3.704   3.440   5.797  0.1184 -2.0321 -0.7069
  160SAPE   C1217842   3.684   3.462   6.008 -0.6427 -0.9097  0.5113
  160SAPE  H12A17843   3.573   3.457   5.998 -0.5241 -1.2254 -0.8298
  160SAPE  H12B17844   3.728   3.563   6.018  4.7462 -2.8336 -0.6377
  160SAPE   C1117845   3.730   3.382   6.131 -0.1891 -0.8251 -0.5921
  160SAPE  H11A17846   3.685   3.282   6.114 -2.0970 -0.5914  2.3907
  160SAPE  H11B17847   3.682   3.412   6.226  2.4691  1.3934  0.1749
  160SAPE     P17848   3.945   3.500   6.219  0.9936 -0.1806 -0.2129
  160SAPE   O1317849   4.090   3.475   6.206  0.5548 -0.2434  0.0003
  160SAPE   O1417850   3.889   3.635   6.187 -1.1756  0.5013 -0.8308
  160SAPE   O1217851   3.871   3.382   6.146  0.2701  0.0656 -0.2626
  160SAPE   O1117852   3.910   3.469   6.372 -0.4715 -0.2428  0.1428
  160SAPE    C117853   3.918   3.330   6.404 -0.1357  0.4528  0.2308
  160SAPE    HA17854   3.830   3.276   6.364  0.1067  0.5198 -0.3992
  160SAPE    HB17855   4.010   3.281   6.366 -0.3699  0.9324 -0.9926
  160SAPE    C217856   3.911   3.305   6.555 -0.2326  0.4041  0.6051
  160SAPE    HS17857   3.907   3.195   6.569 -0.1646  0.1011 -1.4482
  160SAPE   O2117858   3.790   3.362   6.606 -0.0813 -0.4824  0.9632
  160SAPE   C2117859   3.741   3.312   6.719 -0.1219 -0.5218 -0.4190
  160SAPE   O2217860   3.797   3.225   6.783 -0.0047  0.5646 -0.3841
  160SAPE   C2217861   3.607   3.372   6.744  0.5324 -0.4303  0.1534
  160SAPE   H2R17862   3.621   3.482   6.749  1.7779 -0.6235  3.3222
  160SAPE   H2S17863   3.542   3.346   6.658 -0.1802 -0.3004  0.6481
  160SAPE    C317864   4.037   3.359   6.624 -0.5164 -0.6406 -0.7141
  160SAPE    HX17865   4.037   3.470   6.620 -0.8782 -0.6385 -0.6703
  160SAPE    HY17866   4.124   3.333   6.561  2.7682  2.1483  2.2671
  160SAPE   O3117867   4.057   3.324   6.762 -0.0324 -0.3951  0.3299
  160SAPE   C3117868   4.093   3.198   6.783  0.2960  0.6643  0.0954
  160SAPE   O3217869   4.122   3.123   6.694 -0.8358 -0.2349 -0.0831
  160SAPE   C3217870   4.102   3.165   6.924  0.5298 -0.0579 -0.1084
  160SAPE   H2X17871   4.001   3.166   6.970  1.5562  2.1012  2.3648
  160SAPE   H2Y17872   4.159   3.246   6.974  0.1658 -1.2866  2.4944
  160SAPE   C2317873   3.549   3.308   6.875 -0.1509 -0.4402  0.0414
  160SAPE   H3R17874   3.622   3.308   6.958  0.6989 -0.3944 -0.6951
  160SAPE   H3S17875   3.516   3.203   6.855  0.8343 -0.5880 -0.8690
  160SAPE   C2417876   3.419   3.380   6.914  0.2371 -0.2336 -0.7285
  160SAPE   H4R17877   3.369   3.324   6.995  0.2173  0.6219 -0.1247
  160SAPE   H4S17878   3.353   3.386   6.825 -1.2768 -0.3029  0.3407
  160SAPE   C2517879   3.449   3.518   6.961  0.0086  0.4495 -0.6017
  160SAPE   H5R17880   3.437   3.591   6.879  0.9926  1.2561 -0.0534
  160SAPE   C2617881   3.499   3.546   7.085 -1.0969  1.0929  0.0680
  160SAPE   H6R17882   3.526   3.651   7.104  1.1188  0.3645  1.4046
  160SAPE   C2717883   3.541   3.454   7.199 -0.2939 -0.0766  0.0107
  160SAPE   H7R17884   3.610   3.506   7.268  0.5761  0.7113 -1.4089
  160SAPE   H7S17885   3.594   3.370   7.150  0.6250 -0.5737  1.7526
  160SAPE   C2817886   3.424   3.392   7.277  0.4170 -0.8216  0.3921
  160SAPE   H8R17887   3.328   3.387   7.224 -2.0192  1.0887  4.2156
  160SAPE   C2917888   3.416   3.363   7.406  0.7123  0.3004 -0.2077
  160SAPE   H9R17889   3.334   3.306   7.452  1.7314  0.4925  1.9505
  160SAPE  C21017890   3.522   3.383   7.512  0.2955 -0.2119  0.3861
  160SAPE  H10R17891   3.540   3.492   7.522  2.3604 -0.4660 -0.0508
  160SAPE  H10S17892   3.622   3.340   7.491  0.5221 -1.0017  2.8136
  160SAPE  C21117893   3.472   3.316   7.639 -0.3976  0.9555  0.4802
  160SAPE  H11R17894   3.489   3.207   7.646  0.6038  1.1376  1.1263
  160SAPE  C21217895   3.392   3.372   7.729  0.2434  0.3799  0.2716
  160SAPE  H12R17896   3.349   3.310   7.809  0.1840  1.2220  0.9003
  160SAPE  C21317897   3.350   3.520   7.730 -0.6088  0.3030 -0.1754
  160SAPE  H13R17898   3.252   3.531   7.781 -0.3081  0.1585  0.4396
  160SAPE  H13S17899   3.328   3.537   7.622  0.4458  1.9945 -0.1616
  160SAPE  C21417900   3.457   3.618   7.769 -0.4478  0.0079  0.2735
  160SAPE  H14R17901   3.470   3.707   7.706  0.9434  0.0261  0.5477
  160SAPE  C21517902   3.533   3.611   7.883  1.2318  0.1635 -0.5682
  160SAPE  H15R17903   3.609   3.687   7.908 -0.7129  1.8718  0.5360
  160SAPE  C21617904   3.519   3.503   7.988 -0.5465  0.0790  0.2792
  160SAPE  H16R17905   3.613   3.517   8.045 -0.7380  2.4054  0.1241
  160SAPE  H16S17906   3.519   3.396   7.958 -0.8555  0.5856 -1.6478
  160SAPE  C21717907   3.389   3.524   8.072 -0.4624  0.2968  0.0216
  160SAPE  H17R17908   3.301   3.502   8.009  0.3274  2.3581 -1.9104
  160SAPE  H17S17909   3.381   3.633   8.090  1.8778  0.8980 -1.9436
  160SAPE  C21817910   3.395   3.443   8.203  0.5991  0.1486  0.6730
  160SAPE  H18R17911   3.489   3.469   8.256 -0.2205  1.2953  1.6058
  160SAPE  H18S17912   3.400   3.334   8.183  0.2716 -0.3133  2.8410
  160SAPE  C21917913   3.280   3.471   8.302 -0.8806  0.7812 -0.1948
  160SAPE  H19R17914   3.187   3.472   8.242 -0.3387  2.1191 -1.0504
  160SAPE  H19S17915   3.292   3.580   8.321  0.2025  0.9653 -1.7956
  160SAPE  C22017916   3.276   3.388   8.424  0.4962  0.1405 -0.0345
  160SAPE  H20R17917   3.189   3.419   8.485 -0.1430 -0.7977 -0.4284
  160SAPE  H20S17918   3.372   3.388   8.480  0.1655  1.2425  0.5350
  160SAPE  H20T17919   3.254   3.279   8.412  0.0750  0.2467 -0.2312
  160SAPE   C3317920   4.174   3.024   6.957 -0.3180 -0.3962  0.3083
  160SAPE   H3X17921   4.269   3.013   6.902 -0.6871  0.4791 -0.5432
  160SAPE   H3Y17922   4.106   2.939   6.934 -0.6614  0.0056 -0.1914
  160SAPE   C3417923   4.193   3.011   7.107 -0.4730  0.3136  0.2910
  160SAPE   H4X17924   4.256   2.924   7.136 -1.9198 -1.6526 -2.0864
  160SAPE   H4Y17925   4.093   3.008   7.156 -0.9488  2.0635 -0.4633
  160SAPE   C3517926   4.261   3.125   7.189 -0.2299 -0.3000 -0.7325
  160SAPE   H5X17927   4.271   3.094   7.295  0.0651  1.4270 -0.2184
  160SAPE   H5Y17928   4.189   3.210   7.191 -2.6889 -2.2925  1.0054
  160SAPE   C3617929   4.387   3.172   7.128 -0.6328  0.0502  0.4252
  160SAPE   H6X17930   4.373   3.202   7.022  1.1973  2.3369  0.7423
  160SAPE   H6Y17931   4.459   3.088   7.120 -0.2021  0.5435 -1.4532
  160SAPE   C3717932   4.454   3.299   7.195  0.5646 -0.0860  0.6303
  160SAPE   H7X17933   4.395   3.391   7.177  1.7055  0.6569  0.5827
  160SAPE   H7Y17934   4.547   3.301   7.133 -1.6407 -1.0229 -3.0592
  160SAPE   C3817935   4.479   3.279   7.346 -0.0536  0.3316 -0.2246
  160SAPE   H8X17936   4.524   3.178   7.359 -1.6391 -0.5300 -1.0105
  160SAPE   H8Y17937   4.381   3.265   7.397  1.2221 -0.4536  2.1341
  160SAPE   C3917938   4.555   3.396   7.415  0.3062 -0.1265  1.0362
  160SAPE   H9X17939   4.501   3.489   7.389  1.0855  0.2419  0.7214
  160SAPE   H9Y17940   4.655   3.402   7.368  0.0716 -3.1242 -0.1135
  160SAPE  C31017941   4.578   3.376   7.565 -0.1877 -0.3213 -0.3191
  160SAPE  H10X17942   4.660   3.442   7.599 -0.0213 -1.3880  1.4528
  160SAPE  H10Y17943   4.602   3.269   7.585 -0.8807 -0.2646  0.9039
  160SAPE  C31117944   4.465   3.419   7.665  0.2953 -0.1406  0.2357
  160SAPE  H11X17945   4.375   3.358   7.643 -0.2983  0.8670 -0.1924
  160SAPE  H11Y17946   4.438   3.526   7.659 -1.2935 -0.2146  3.6075
  160SAPE  C31217947   4.512   3.370   7.808 -0.0782 -0.1478  0.3802
  160SAPE  H12X17948   4.618   3.398   7.825  0.4378 -1.5183 -0.4725
  160SAPE  H12Y17949   4.505   3.259   7.807  1.3792 -0.2758  1.0368
  160SAPE  C31317950   4.406   3.416   7.917 -0.1122 -0.2563  0.3424
  160SAPE  H13X17951   4.311   3.378   7.873  1.5498 -2.7932 -1.3400
  160SAPE  H13Y17952   4.397   3.527   7.924 -3.0414 -0.3126 -1.2775
  160SAPE  C31417953   4.416   3.353   8.052  0.0021  0.1654  0.6670
  160SAPE  H14X17954   4.491   3.413   8.108  0.3604  0.3552  0.0010
  160SAPE  H14Y17955   4.443   3.248   8.030 -0.2451  0.4655 -1.2594
  160SAPE  C31517956   4.285   3.364   8.130  0.4834 -0.3042 -0.9377
  160SAPE  H15X17957   4.217   3.281   8.103 -0.0525 -0.0409 -0.4159
  160SAPE  H15Y17958   4.232   3.461   8.122  1.2713  0.4218  1.5255
  160SAPE  C31617959   4.324   3.352   8.280 -0.1857  0.8758 -0.0695
  160SAPE  H16X17960   4.394   3.436   8.300  2.5461 -1.5576  1.1865
  160SAPE  H16Y17961   4.378   3.256   8.294 -0.2571  0.9992  1.1316
  160SAPE  C31717962   4.214   3.360   8.386  0.2012 -1.2040  0.4213
  160SAPE  H17X17963   4.156   3.455   8.378  1.3260 -0.6420 -3.1363
  160SAPE  H17Y17964   4.261   3.352   8.486 -1.1084 -0.3152  1.1471
  160SAPE  C31817965   4.117   3.242   8.386  0.8137  0.2760  0.2991
  160SAPE  H18X17966   4.032   3.271   8.452  1.9432  1.7224  1.2006
  160SAPE  H18Y17967   4.160   3.149   8.428  0.5844  0.7123  1.5644
  160SAPE  H18Z17968   4.084   3.228   8.281  1.3960 -0.8641  0.2615
  161SOPE     N17969   1.694   6.752  10.211 -0.3173 -0.6528  0.4487
  161SOPE   HN117970   1.749   6.665  10.204 -1.8488 -1.8041  1.8363
  161SOPE   HN217971   1.636   6.754  10.297 -0.0900  0.9831  0.5997
  161SOPE   HN317972   1.629   6.758  10.129 -0.8170  0.9969  0.9117
  161SOPE   C1217973   1.780   6.875  10.230  0.1928  0.2592 -0.4429
  161SOPE  H12A17974   1.719   6.966  10.245 -0.2563 -0.1123  0.0514
  161SOPE  H12B17975   1.831   6.892  10.133 -1.2142  3.5662 -0.7010
  161SOPE   C1117976   1.888   6.855  10.342  0.6110 -0.3881 -0.0420
  161SOPE  H11A17977   1.826   6.839  10.432  1.4287  0.0230  0.6055
  161SOPE  H11B17978   1.948   6.948  10.352  0.2677 -0.1211 -0.4043
  161SOPE     P17979   2.068   6.704  10.432 -0.0699  0.3576  0.5013
  161SOPE   O1317980   1.987   6.643  10.534 -0.3727  0.3801 -0.3839
  161SOPE   O1417981   2.161   6.811  10.468 -0.1210  0.4423 -0.1907
  161SOPE   O1217982   1.976   6.743  10.313  0.0998 -0.0865 -0.2245
  161SOPE   O1117983   2.162   6.587  10.379  0.4857  0.5365  0.6553
  161SOPE    C117984   2.136   6.509  10.259 -0.1005 -0.3431 -0.8452
  161SOPE    HA17985   2.025   6.499  10.252 -0.2997  1.1796 -0.2535
  161SOPE    HB17986   2.189   6.412  10.272  2.3781  0.9649 -0.6311
  161SOPE    C217987   2.196   6.586  10.132  0.4903 -0.1161  0.1411
  161SOPE    HS17988   2.177   6.695  10.138 -1.2674 -0.3488 -0.7440
  161SOPE   O2117989   2.137   6.527  10.011  0.1184  0.5724  0.1398
  161SOPE   C2117990   2.027   6.583   9.966  0.3173 -0.1919 -0.3253
  161SOPE   O2217991   1.959   6.662  10.029 -0.2887 -0.2756 -0.4887
  161SOPE   C2217992   2.007   6.541   9.817  1.3099 -0.0589 -0.2862
  161SOPE   H2R17993   1.989   6.431   9.819 -1.6063  0.3297 -0.2768
  161SOPE   H2S17994   2.100   6.574   9.767  1.1915 -0.8340 -1.0532
  161SOPE    C317995   2.345   6.570  10.122 -0.0468 -0.5395 -0.6203
  161SOPE    HX17996   2.359   6.460  10.121  1.9026 -0.3258 -0.0862
  161SOPE    HY17997   2.398   6.614  10.209  2.8123 -0.9335 -2.0359
  161SOPE   O3117998   2.396   6.620   9.994  0.2948  0.5950  0.0217
  161SOPE   C3117999   2.415   6.756   9.994 -0.7345 -0.2062  0.2706
  161SOPE   O3218000   2.396   6.829  10.086 -0.9919 -0.1538  0.0754
  161SOPE   C3218001   2.469   6.792   9.858 -0.1520  0.3278 -0.8588
  161SOPE   H2X18002   2.555   6.723   9.845  0.1790  1.1684 -3.9595
  161SOPE   H2Y18003   2.502   6.898   9.857  0.1404  0.2356 -1.2307
  161SOPE   C2318004   1.888   6.607   9.750 -0.3873  1.2887 -0.0387
  161SOPE   H3R18005   1.914   6.714   9.735  0.5425  1.1279  0.3823
  161SOPE   H3S18006   1.803   6.589   9.819  0.9708 -1.0403  1.1396
  161SOPE   C2418007   1.854   6.535   9.615 -0.1605 -0.0942  0.1000
  161SOPE   H4R18008   1.851   6.426   9.635 -1.9210  0.3161  2.5848
  161SOPE   H4S18009   1.753   6.574   9.589  0.5714  1.2165 -0.8798
  161SOPE   C2518010   1.948   6.569   9.502 -0.6046 -0.6274  0.6848
  161SOPE   H5R18011   1.927   6.664   9.448  3.6288 -0.5211 -1.1605
  161SOPE   H5S18012   2.044   6.596   9.550 -2.6755  1.9655  3.7161
  161SOPE   C2618013   1.986   6.439   9.419  0.3303 -0.0420  0.0248
  161SOPE   H6R18014   2.092   6.449   9.390  0.4449 -2.2546 -0.4765
  161SOPE   H6S18015   1.960   6.349   9.478 -1.4874  0.2279 -0.3007
  161SOPE   C2718016   1.906   6.422   9.294  0.0855 -0.0208  0.2781
  161SOPE   H7R18017   1.930   6.321   9.256  1.3376 -1.1578  3.7461
  161SOPE   H7S18018   1.797   6.425   9.318 -0.2183  0.5551 -1.0601
  161SOPE   C2818019   1.935   6.542   9.200  0.2073 -0.0756 -0.5928
  161SOPE   H8R18020   1.893   6.636   9.241  0.4308 -0.4124  0.4270
  161SOPE   H8S18021   2.040   6.575   9.194 -0.0550  0.6461 -1.4175
  161SOPE   C2918022   1.879   6.505   9.060 -0.6504 -0.6279  0.6800
  161SOPE   H9118023   1.792   6.438   9.059 -0.3386 -1.0389 -0.1257
  161SOPE  C21018024   1.914   6.557   8.939 -0.1391  0.2142 -0.1006
  161SOPE  H10118025   1.860   6.508   8.856 -2.1349  0.3475  1.0459
  161SOPE  C21118026   2.027   6.653   8.904 -0.5718 -0.2389 -0.2020
  161SOPE  H11R18027   2.124   6.603   8.924 -0.9858 -0.6907  0.7860
  161SOPE  H11S18028   2.022   6.738   8.975 -0.8438 -1.5779  1.4368
  161SOPE  C21218029   2.023   6.702   8.751 -0.1429 -0.5815  0.0068
  161SOPE  H12R18030   2.073   6.801   8.747 -0.0293 -0.6267  0.2953
  161SOPE  H12S18031   1.916   6.711   8.720  0.1388 -3.8847 -2.5713
  161SOPE  C21318032   2.096   6.605   8.656  0.3046 -0.6526  0.0420
  161SOPE  H13R18033   2.045   6.506   8.653  0.6672 -0.8393 -0.1058
  161SOPE  H13S18034   2.199   6.591   8.696  0.6641 -0.9772 -0.9730
  161SOPE  C21418035   2.109   6.668   8.518 -0.0687 -0.1636 -0.1325
  161SOPE  H14R18036   2.196   6.616   8.470 -0.4979 -1.4612  0.4504
  161SOPE  H14S18037   2.148   6.772   8.526  1.2039 -0.6431  0.2132
  161SOPE  C21518038   1.983   6.664   8.423  0.2443 -0.2025 -0.0276
  161SOPE  H15R18039   1.903   6.734   8.454 -0.8860 -0.4564 -2.2261
  161SOPE  H15S18040   1.949   6.563   8.454 -1.9684  1.1470  2.3429
  161SOPE  C21618041   2.012   6.676   8.275  1.1403  0.2340 -0.3136
  161SOPE  H16R18042   2.031   6.781   8.245 -0.3064  0.2507 -1.3021
  161SOPE  H16S18043   1.919   6.649   8.220  1.8991 -1.2671 -0.9196
  161SOPE  C21718044   2.114   6.590   8.209 -0.4910  0.2538  0.8113
  161SOPE  H17R18045   2.078   6.486   8.193 -0.4965  0.2426  0.8981
  161SOPE  H17S18046   2.201   6.582   8.278  1.4584 -0.8001 -1.5949
  161SOPE  C21818047   2.171   6.653   8.079  0.3120  0.3944  0.0317
  161SOPE  H18R18048   2.213   6.752   8.103 -0.8067  1.0376 -0.5802
  161SOPE  H18S18049   2.083   6.665   8.012  0.8026 -1.1150 -0.9426
  161SOPE  H18T18050   2.240   6.583   8.028 -1.1017 -1.6367  0.7230
  161SOPE   C3318051   2.369   6.772   9.738 -0.0851  0.0583 -0.5020
  161SOPE   H3X18052   2.278   6.833   9.755 -0.3021 -0.9542  2.6954
  161SOPE   H3Y18053   2.340   6.666   9.723 -1.2938 -0.0096  1.7808
  161SOPE   C3418054   2.414   6.821   9.594 -0.1103  0.1749 -0.5216
  161SOPE   H4X18055   2.515   6.792   9.559  0.6515  1.6294  0.3470
  161SOPE   H4Y18056   2.405   6.932   9.597 -2.4082  0.0191  1.2136
  161SOPE   C3518057   2.309   6.781   9.484 -0.8528 -0.0439  0.3678
  161SOPE   H5X18058   2.206   6.815   9.508 -1.3229 -1.2210  0.0709
  161SOPE   H5Y18059   2.317   6.670   9.480  2.5378 -0.0634  3.3918
  161SOPE   C3618060   2.357   6.834   9.345 -0.2035  0.1651  0.1384
  161SOPE   H6X18061   2.461   6.798   9.329 -0.9525 -1.9860 -0.1245
  161SOPE   H6Y18062   2.364   6.944   9.363  0.6062  0.0053  0.8732
  161SOPE   C3718063   2.261   6.806   9.235  0.6232  0.4720  0.2257
  161SOPE   H7X18064   2.154   6.812   9.265  0.2674 -1.0591 -0.6622
  161SOPE   H7Y18065   2.277   6.702   9.199 -0.9048 -0.3228  1.6809
  161SOPE   C3818066   2.294   6.891   9.105  0.1639  0.3262  0.3326
  161SOPE   H8X18067   2.216   6.877   9.028 -0.5650  2.1799  0.6868
  161SOPE   H8Y18068   2.389   6.874   9.050 -1.4175  0.8009 -2.7526
  161SOPE   C3918069   2.292   7.043   9.116 -0.0472 -0.5273 -0.9214
  161SOPE   H9X18070   2.370   7.080   9.186  1.3137  0.6594 -2.9184
  161SOPE   H9Y18071   2.191   7.075   9.149  0.4355  0.9693 -0.8241
  161SOPE  C31018072   2.317   7.116   8.988 -0.0671  0.0568  0.2719
  161SOPE  H10X18073   2.397   7.068   8.929 -0.0196  0.7383 -0.2346
  161SOPE  H10Y18074   2.357   7.218   9.007  2.6403 -1.0049  0.6398
  161SOPE  C31118075   2.200   7.109   8.889 -0.3615  1.2377 -0.9761
  161SOPE  H11X18076   2.118   7.162   8.941 -0.3295  0.6410 -0.2932
  161SOPE  H11Y18077   2.176   7.002   8.871  0.3908  0.9175 -0.1771
  161SOPE  C31218078   2.214   7.179   8.747  0.6581  0.9028  0.1256
  161SOPE  H12X18079   2.307   7.141   8.699  0.3376  0.1748  0.0653
  161SOPE  H12Y18080   2.234   7.288   8.753  0.5404  1.0323 -1.4814
  161SOPE  C31318081   2.095   7.152   8.662 -0.5431  0.9810  0.4720
  161SOPE  H13X18082   2.001   7.172   8.718 -0.8016  1.0101  0.0294
  161SOPE  H13Y18083   2.089   7.051   8.618  0.9147  0.9332  0.3229
  161SOPE  C31418084   2.101   7.239   8.532  0.0438  0.5181 -0.4054
  161SOPE  H14X18085   2.188   7.208   8.471  0.8609  1.4569  0.2521
  161SOPE  H14Y18086   2.119   7.347   8.551 -2.1097  1.6421 -3.8188
  161SOPE  C31518087   1.964   7.236   8.462 -0.3116 -0.1264  0.2456
  161SOPE  H15X18088   1.882   7.251   8.536 -2.4893 -2.1725 -1.5953
  161SOPE  H15Y18089   1.938   7.141   8.412  0.6287  0.7787 -2.1072
  161SOPE  C31618090   1.961   7.346   8.353  0.1804 -0.2593 -0.2757
  161SOPE  H16X18091   2.007   7.306   8.260 -2.8179 -0.2047 -1.9208
  161SOPE  H16Y18092   2.019   7.434   8.388 -0.4155 -1.2092  3.5168
  161SOPE  C31718093   1.819   7.383   8.316  0.6611  0.1294 -0.1174
  161SOPE  H17X18094   1.765   7.292   8.351  2.7901 -0.7464  1.0813
  161SOPE  H17Y18095   1.821   7.383   8.205  0.8190 -0.6876 -0.1203
  161SOPE  C31818096   1.763   7.512   8.384  0.0116 -0.4987  0.1113
  161SOPE  H18X18097   1.655   7.529   8.365  0.3734  1.6833 -0.2780
  161SOPE  H18Y18098   1.818   7.600   8.345  0.0266 -1.0759 -1.2590
  161SOPE  H18Z18099   1.780   7.504   8.493 -0.8637  2.8306  0.6012
  162SOPE     N18100   0.017   0.476  10.464  0.3481 -0.5504 -0.2531
  162SOPE   HN118101   0.008   0.425  10.554  0.5046  0.4477  0.3341
  162SOPE   HN218102   0.113   0.471  10.422  0.1454  0.6071 -0.8737
  162SOPE   HN318103   0.008   0.575  10.492 -0.2825 -0.5513 -0.4489
  162SOPE   C1218104  -0.098   0.431  10.373 -0.0252  0.5704 -0.0861
  162SOPE  H12A18105  -0.079   0.468  10.270  1.0336 -1.9823 -0.8784
  162SOPE  H12B18106  -0.192   0.469  10.418  1.1426  1.5901  1.6697
  162SOPE   C1118107  -0.080   0.274  10.373  0.3053 -0.3241 -0.0954
  162SOPE  H11A18108   0.027   0.249  10.358  0.9839  2.2104 -0.0014
  162SOPE  H11B18109  -0.138   0.247  10.282  0.9722  0.7187 -0.8535
  162SOPE     P18110  -0.283   0.200  10.527  0.0837 -0.6363  0.3328
  162SOPE   O1318111  -0.325   0.318  10.605 -0.3564 -0.3144  0.1373
  162SOPE   O1418112  -0.302   0.069  10.592 -0.0555 -0.7192 -0.2354
  162SOPE   O1218113  -0.124   0.214  10.495  0.5565  0.0909 -0.6876
  162SOPE   O1118114  -0.361   0.209  10.394  0.3663  0.4198 -0.4994
  162SOPE    C118115  -0.446   0.101  10.345 -0.8459 -0.2208  0.4964
  162SOPE    HA18116  -0.518   0.139  10.269 -2.4259  1.7147  2.8136
  162SOPE    HB18117  -0.512   0.056  10.422 -0.9682  1.5733  1.5132
  162SOPE    C218118  -0.349  -0.013  10.284  0.2936 -0.3277 -0.3744
  162SOPE    HS18119  -0.284  -0.051  10.366 -0.3018  0.0848  0.2983
  162SOPE   O2118120  -0.279   0.039  10.176 -0.3901 -0.7043 -0.3780
  162SOPE   C2118121  -0.175  -0.033  10.143  0.1692 -0.0098  0.6662
  162SOPE   O2218122  -0.126  -0.119  10.210 -0.4659  0.3112 -0.0659
  162SOPE   C2218123  -0.129  -0.006  10.002  0.1013  0.3088 -0.0898
  162SOPE   H2R18124  -0.060   0.081   9.999  1.1577 -0.5265 -0.7364
  162SOPE   H2S18125  -0.216   0.035   9.946 -0.7958  0.8201  1.5988
  162SOPE    C318126  -0.430  -0.144  10.238  0.2583  0.0401 -0.0488
  162SOPE    HX18127  -0.469  -0.187  10.333  0.4150 -3.7379 -1.5154
  162SOPE    HY18128  -0.358  -0.222  10.205  0.3532 -1.2619  2.8349
  162SOPE   O3118129  -0.547  -0.104  10.163 -0.1769  0.0414  0.4936
  162SOPE   C3118130  -0.525  -0.123  10.032  0.2773 -0.4747  0.0168
  162SOPE   O3218131  -0.420  -0.155   9.983  0.1695 -0.7006 -0.4230
  162SOPE   C3218132  -0.654  -0.092   9.957 -1.1015  0.0052  0.7079
  162SOPE   H2X18133  -0.644   0.006   9.905  1.6198 -0.4618  0.1803
  162SOPE   H2Y18134  -0.751  -0.094  10.012 -1.1967  0.2529  0.5539
  162SOPE   C2318135  -0.081  -0.148   9.947  0.7089 -0.2781  0.8449
  162SOPE   H3R18136  -0.152  -0.226   9.981 -1.9644  1.4997 -0.2431
  162SOPE   H3S18137   0.018  -0.166   9.994  0.6842  1.3430  1.5819
  162SOPE   C2418138  -0.072  -0.158   9.795  0.2303 -0.5658  0.3180
  162SOPE   H4R18139   0.000  -0.080   9.764 -0.0370 -1.0588 -1.6740
  162SOPE   H4S18140  -0.025  -0.251   9.757 -0.2276 -0.7738  0.2490
  162SOPE   C2518141  -0.211  -0.147   9.725  0.5802 -0.8148  0.2565
  162SOPE   H5R18142  -0.274  -0.222   9.777 -0.6708  0.3762  0.5522
  162SOPE   H5S18143  -0.259  -0.047   9.736 -0.5044 -0.9973 -2.1864
  162SOPE   C2618144  -0.217  -0.180   9.576 -0.8548  0.4160  0.7475
  162SOPE   H6R18145  -0.176  -0.283   9.574 -0.0945  0.6514 -2.6527
  162SOPE   H6S18146  -0.325  -0.186   9.549 -1.5752  1.2556  3.1992
  162SOPE   C2718147  -0.133  -0.094   9.483 -0.7502  0.3203 -0.4354
  162SOPE   H7R18148  -0.172   0.009   9.500 -0.9633 -0.0875  1.8573
  162SOPE   H7S18149  -0.029  -0.106   9.518 -1.0030  2.5511  1.2786
  162SOPE   C2818150  -0.135  -0.121   9.331  0.4132 -0.2452 -0.3913
  162SOPE   H8R18151  -0.031  -0.099   9.297  1.1740 -0.4572  1.6525
  162SOPE   H8S18152  -0.154  -0.230   9.314 -1.2982  0.3018 -2.3421
  162SOPE   C2918153  -0.257  -0.054   9.263 -0.6425 -0.6353  0.1851
  162SOPE   H9118154  -0.248   0.053   9.237 -0.6562 -0.5864  0.3832
  162SOPE  C21018155  -0.364  -0.120   9.227 -0.4979 -0.2301  0.1734
  162SOPE  H10118156  -0.446  -0.062   9.182 -0.9935 -1.6136 -0.7947
  162SOPE  C21118157  -0.399  -0.267   9.249  0.0864 -0.1478  0.6028
  162SOPE  H11R18158  -0.504  -0.276   9.286 -0.3056 -0.2297 -0.4865
  162SOPE  H11S18159  -0.328  -0.318   9.318 -0.5362 -1.2134  0.4825
  162SOPE  C21218160  -0.395  -0.339   9.116  0.5163 -0.2736  0.0740
  162SOPE  H12R18161  -0.288  -0.347   9.085  0.3982  1.3026 -0.8302
  162SOPE  H12S18162  -0.457  -0.281   9.045  0.8794 -1.4338 -1.2415
  162SOPE  C21318163  -0.439  -0.482   9.134 -0.8860  0.4905 -0.2371
  162SOPE  H13R18164  -0.522  -0.487   9.207  0.4191 -1.7368  1.1987
  162SOPE  H13S18165  -0.361  -0.533   9.194  0.0309  2.6264  0.4981
  162SOPE  C21418166  -0.473  -0.562   9.012  0.2948 -0.8135  0.1534
  162SOPE  H14R18167  -0.560  -0.508   8.969  1.8348  0.2231 -1.8200
  162SOPE  H14S18168  -0.515  -0.661   9.040 -1.8483  0.0322  0.1028
  162SOPE  C21518169  -0.364  -0.561   8.906  0.2708  0.5989  0.0858
  162SOPE  H15R18170  -0.271  -0.601   8.951  1.3430  0.5965 -2.0423
  162SOPE  H15S18171  -0.321  -0.463   8.875  2.7129 -1.2629 -3.0280
  162SOPE  C21618172  -0.397  -0.646   8.789  0.7098 -0.2598 -0.2079
  162SOPE  H16R18173  -0.470  -0.603   8.716  0.9656  0.4753 -0.0318
  162SOPE  H16S18174  -0.445  -0.739   8.826 -2.6243  1.5134  0.2877
  162SOPE  C21718175  -0.276  -0.684   8.700 -0.2792  0.1240 -0.0181
  162SOPE  H17R18176  -0.192  -0.611   8.703 -1.4440  1.4900  0.4662
  162SOPE  H17S18177  -0.314  -0.690   8.596 -1.1799 -0.8249  0.3514
  162SOPE  C21818178  -0.212  -0.831   8.716  0.2515  0.3595 -0.6658
  162SOPE  H18R18179  -0.208  -0.850   8.825  1.1305  1.2170 -0.5373
  162SOPE  H18S18180  -0.105  -0.822   8.688  0.4366 -0.7785 -0.3888
  162SOPE  H18T18181  -0.269  -0.905   8.655 -0.7155  0.8985 -0.4409
  162SOPE   C3318182  -0.678  -0.177   9.827 -0.3341 -0.0963 -0.1111
  162SOPE   H3X18183  -0.711  -0.282   9.843 -0.4474 -0.1750 -0.8049
  162SOPE   H3Y18184  -0.586  -0.174   9.765 -0.2420  1.5680  0.0643
  162SOPE   C3418185  -0.797  -0.120   9.732  0.0093 -0.6437 -0.3754
  162SOPE   H4X18186  -0.793  -0.009   9.730 -2.0680 -0.5204 -2.3041
  162SOPE   H4Y18187  -0.895  -0.147   9.777 -2.3141  1.1096 -3.9259
  162SOPE   C3518188  -0.778  -0.170   9.594 -0.0991 -0.3690  0.9597
  162SOPE   H5X18189  -0.779  -0.281   9.600 -2.3461 -0.6670 -2.2632
  162SOPE   H5Y18190  -0.674  -0.145   9.566 -0.5636  2.3989  1.4176
  162SOPE   C3618191  -0.884  -0.115   9.492  0.0839 -1.2527  0.3336
  162SOPE   H6X18192  -0.896  -0.005   9.503 -3.2397 -1.7285  2.8722
  162SOPE   H6Y18193  -0.981  -0.163   9.516 -0.6466 -0.8743 -1.6754
  162SOPE   C3718194  -0.850  -0.147   9.345 -0.0810 -0.3572  0.1543
  162SOPE   H7X18195  -0.850  -0.255   9.320  0.7840 -0.5216  0.8068
  162SOPE   H7Y18196  -0.748  -0.112   9.317 -1.0143  0.0205 -3.2945
  162SOPE   C3818197  -0.940  -0.079   9.248 -0.2652  0.0224  0.8996
  162SOPE   H8X18198  -0.932   0.030   9.269 -0.6110  0.3381 -0.5010
  162SOPE   H8Y18199  -1.043  -0.111   9.275 -0.9616  1.7663  0.4373
  162SOPE   C3918200  -0.896  -0.096   9.101  0.5479  0.6752  0.2891
  162SOPE   H9X18201  -0.979  -0.110   9.027  0.3662  4.1461 -0.3037
  162SOPE   H9Y18202  -0.830  -0.185   9.086  0.7862  0.8499  0.3025
  162SOPE  C31018203  -0.822   0.027   9.049 -0.2198  0.0158 -0.1702
  162SOPE  H10X18204  -0.736   0.054   9.114 -0.4410 -0.5925  0.3772
  162SOPE  H10Y18205  -0.893   0.112   9.061 -0.7158 -0.4322  0.0806
  162SOPE  C31118206  -0.774   0.018   8.902 -0.5315  0.4108  0.4806
  162SOPE  H11X18207  -0.737   0.113   8.860 -0.4714  0.5371  0.8183
  162SOPE  H11Y18208  -0.853  -0.020   8.833 -1.0588  1.3716  0.5387
  162SOPE  C31218209  -0.657  -0.083   8.871 -1.0700 -0.0776 -0.3748
  162SOPE  H12X18210  -0.675  -0.190   8.895 -1.2582 -0.1269 -0.7335
  162SOPE  H12Y18211  -0.574  -0.063   8.943 -2.0365 -0.8323  0.9923
  162SOPE  C31318212  -0.608  -0.080   8.726 -0.2406  0.3405 -0.5621
  162SOPE  H13X18213  -0.572   0.020   8.695 -0.1295  0.8084  0.9588
  162SOPE  H13Y18214  -0.688  -0.117   8.659  2.4427 -1.8069 -2.8074
  162SOPE  C31418215  -0.494  -0.182   8.709 -0.3065 -0.2780  0.0440
  162SOPE  H14X18216  -0.528  -0.288   8.702 -0.9530 -0.0514 -0.4133
  162SOPE  H14Y18217  -0.418  -0.181   8.790  0.2364  0.6612 -0.4531
  162SOPE  C31518218  -0.425  -0.149   8.577  0.3757 -0.0677  0.5529
  162SOPE  H15X18219  -0.389  -0.046   8.593 -0.3224  0.4082 -0.8209
  162SOPE  H15Y18220  -0.506  -0.161   8.501  1.6875 -1.8414 -0.6517
  162SOPE  C31618221  -0.315  -0.248   8.540 -0.1281  0.3704 -0.0130
  162SOPE  H16X18222  -0.310  -0.318   8.626 -2.6643  2.6625  2.1732
  162SOPE  H16Y18223  -0.223  -0.188   8.531 -1.2250  2.0090 -0.7223
  162SOPE  C31718224  -0.336  -0.327   8.408 -0.3077  0.1877 -0.0590
  162SOPE  H17X18225  -0.335  -0.251   8.327 -0.3330  0.0536 -0.1831
  162SOPE  H17Y18226  -0.438  -0.369   8.400 -0.5257  0.1872  2.1034
  162SOPE  C31818227  -0.242  -0.440   8.374  0.2997 -0.3695  0.3642
  162SOPE  H18X18228  -0.250  -0.520   8.451 -0.5697 -0.2706  0.3754
  162SOPE  H18Y18229  -0.137  -0.402   8.370  0.2010  0.3025  2.7088
  162SOPE  H18Z18230  -0.270  -0.482   8.276 -2.2504  2.0557 -0.0736
  163SOPE     N18231   5.069   1.948  10.761 -0.1840  0.2476 -0.6997
  163SOPE   HN118232   5.072   1.848  10.730 -2.7850  0.0768 -0.6160
  163SOPE   HN218233   5.106   1.952  10.858  0.4886  0.1131 -0.9385
  163SOPE   HN318234   4.973   1.986  10.750  0.1127  0.8399 -1.3007
  163SOPE   C1218235   5.157   2.030  10.681 -0.6487 -0.1164  0.0862
  163SOPE  H12A18236   5.115   2.038  10.578 -0.3509  2.1888  0.0877
  163SOPE  H12B18237   5.250   1.973  10.659 -0.0170  1.1145 -0.5409
  163SOPE   C1118238   5.187   2.160  10.751  1.3363 -0.5050  0.2620
  163SOPE  H11A18239   5.210   2.147  10.859 -2.6660 -0.7731  1.2310
  163SOPE  H11B18240   5.089   2.211  10.744 -0.7785 -4.0148  1.6789
  163SOPE     P18241   5.270   2.349  10.583  0.0453 -0.1620 -0.3284
  163SOPE   O1318242   5.398   2.388  10.524 -0.0645  0.0096 -0.3781
  163SOPE   O1418243   5.193   2.460  10.645 -0.9497 -0.0657  0.3447
  163SOPE   O1218244   5.294   2.232  10.690 -0.0528  0.0067  0.1867
  163SOPE   O1118245   5.184   2.283  10.469 -0.0879 -0.0869 -0.1899
  163SOPE    C118246   5.242   2.193  10.367 -0.7579 -0.5063  0.2778
  163SOPE    HA18247   5.160   2.124  10.339 -0.4782 -0.4966 -0.5950
  163SOPE    HB18248   5.334   2.143  10.405  0.5578  1.5744  0.0060
  163SOPE    C218249   5.293   2.262  10.237 -0.7271 -0.7698  0.0549
  163SOPE    HS18250   5.395   2.306  10.249 -1.3745  1.4401 -1.8357
  163SOPE   O2118251   5.193   2.354  10.176  1.1673  0.2908  0.2769
  163SOPE   C2118252   5.213   2.480  10.183 -0.2938  0.2446 -0.2686
  163SOPE   O2218253   5.289   2.531  10.268  0.0182 -0.4876  0.0663
  163SOPE   C2218254   5.138   2.556  10.075 -0.3350 -0.5009 -0.5462
  163SOPE   H2R18255   5.096   2.647  10.122  2.6842  1.8623 -2.0895
  163SOPE   H2S18256   5.054   2.489  10.045  1.1070 -0.9620 -4.1247
  163SOPE    C318257   5.326   2.155  10.130 -0.0041 -0.0227 -0.1050
  163SOPE    HX18258   5.230   2.113  10.091  0.8264 -2.2503  0.1167
  163SOPE    HY18259   5.381   2.065  10.166 -2.2046 -0.9619  1.1015
  163SOPE   O3118260   5.402   2.216  10.024  0.0152  0.4223  0.8256
  163SOPE   C3118261   5.433   2.140   9.924 -0.5014 -0.4066  0.1113
  163SOPE   O3218262   5.407   2.022   9.904  0.3455 -0.0445  0.5017
  163SOPE   C3218263   5.511   2.229   9.828  0.3011  0.6124  0.0888
  163SOPE   H2X18264   5.597   2.166   9.795 -1.0927 -2.0664  1.3064
  163SOPE   H2Y18265   5.558   2.314   9.882  0.9372  1.2311 -1.3781
  163SOPE   C2318266   5.224   2.591   9.946  0.1858  0.9962  0.1513
  163SOPE   H3R18267   5.279   2.497   9.925  0.0511  0.4386  2.0663
  163SOPE   H3S18268   5.302   2.664   9.975  1.8121 -0.2393 -0.9865
  163SOPE   C2418269   5.137   2.632   9.830 -0.4076 -0.6623  0.1398
  163SOPE   H4R18270   5.085   2.730   9.840  1.4813  0.7884 -2.6507
  163SOPE   H4S18271   5.210   2.655   9.749  0.9983  0.0634  1.5326
  163SOPE   C2518272   5.044   2.529   9.793 -0.1273  0.2592 -0.5628
  163SOPE   H5R18273   5.100   2.434   9.810 -0.2932  0.3742  0.7228
  163SOPE   H5S18274   4.957   2.540   9.860  0.8610  0.3469  0.7443
  163SOPE   C2618275   4.995   2.539   9.647 -0.0412  0.0548 -0.3983
  163SOPE   H6R18276   4.894   2.493   9.644 -0.0714 -0.0521  1.4479
  163SOPE   H6S18277   4.981   2.647   9.623  1.7997  0.2776 -0.6788
  163SOPE   C2718278   5.089   2.482   9.543 -0.0136 -0.2524 -0.1369
  163SOPE   H7R18279   5.172   2.557   9.547  0.9563 -1.3157  0.1952
  163SOPE   H7S18280   5.131   2.382   9.567 -0.9867 -0.4901  0.6438
  163SOPE   C2818281   5.044   2.482   9.394  0.3032  0.1934 -0.2637
  163SOPE   H8R18282   4.943   2.437   9.380  0.3301  0.0813 -0.0998
  163SOPE   H8S18283   5.015   2.588   9.377 -0.6025 -0.1878 -1.2209
  163SOPE   C2918284   5.148   2.446   9.296 -1.3498 -0.0528  0.5742
  163SOPE   H9118285   5.246   2.497   9.300 -1.1768 -0.4248  1.1569
  163SOPE  C21018286   5.136   2.357   9.190 -0.9410 -0.0844 -0.2108
  163SOPE  H10118287   5.219   2.356   9.118 -0.4383 -0.1832  0.3578
  163SOPE  C21118288   5.012   2.273   9.163 -0.8800 -0.4638  0.0308
  163SOPE  H11R18289   4.927   2.326   9.210 -0.0285 -0.1531  1.2663
  163SOPE  H11S18290   5.013   2.173   9.210  2.0585  0.3555  1.9834
  163SOPE  C21218291   4.991   2.263   9.004 -0.1289 -0.8162 -0.8223
  163SOPE  H12R18292   4.891   2.217   8.986 -2.0688  1.7618  2.3266
  163SOPE  H12S18293   5.068   2.189   8.972  1.8161  0.5517  0.4751
  163SOPE  C21318294   5.000   2.399   8.936 -0.4889 -0.1890  0.3227
  163SOPE  H13R18295   5.106   2.430   8.925 -0.8745  2.2307  2.4468
  163SOPE  H13S18296   4.963   2.474   9.010  0.6837  0.9166 -0.1670
  163SOPE  C21418297   4.932   2.417   8.799 -0.0358  0.3153  0.4180
  163SOPE  H14R18298   4.936   2.521   8.760 -0.6621 -0.0453 -0.6777
  163SOPE  H14S18299   4.825   2.386   8.808  0.2446 -0.5124  0.9082
  163SOPE  C21518300   4.990   2.328   8.689  0.0452  0.0517  0.2498
  163SOPE  H15R18301   4.929   2.236   8.678 -1.4714  0.8589  1.5443
  163SOPE  H15S18302   5.091   2.302   8.728 -0.5645 -0.9830  1.1768
  163SOPE  C21618303   4.992   2.389   8.549  0.8336 -0.5364  0.1070
  163SOPE  H16R18304   5.065   2.472   8.546 -0.7610  0.9255 -0.0998
  163SOPE  H16S18305   4.892   2.435   8.538  0.8542 -0.2946  0.8616
  163SOPE  C21718306   5.015   2.288   8.431 -0.7492 -0.3113 -0.0393
  163SOPE  H17R18307   5.007   2.347   8.336  1.1371 -0.2967 -0.2200
  163SOPE  H17S18308   4.943   2.204   8.423 -0.6959 -0.2410 -1.8008
  163SOPE  C21818309   5.152   2.229   8.440  0.5953  0.1674 -0.5538
  163SOPE  H18R18310   5.147   2.144   8.511  1.4670  0.3730 -0.2334
  163SOPE  H18S18311   5.225   2.306   8.474  1.4239 -1.5915  1.8761
  163SOPE  H18T18312   5.191   2.183   8.346  1.7147 -0.9614  0.4358
  163SOPE   C3318313   5.414   2.247   9.708 -0.3552 -0.1590  0.3571
  163SOPE   H3X18314   5.333   2.317   9.736  1.0354  0.9492  1.7758
  163SOPE   H3Y18315   5.362   2.151   9.689  0.5660 -0.1652 -2.7373
  163SOPE   C3418316   5.488   2.269   9.578 -0.2959  0.4277  0.3688
  163SOPE   H4X18317   5.565   2.189   9.569 -0.8913 -0.1667  0.4571
  163SOPE   H4Y18318   5.542   2.365   9.568 -1.2602  0.7674 -2.2885
  163SOPE   C3518319   5.387   2.252   9.466  0.2624 -0.4359 -0.0936
  163SOPE   H5X18320   5.324   2.341   9.450  0.8696  0.1704  0.7987
  163SOPE   H5Y18321   5.315   2.171   9.491  0.3385 -0.0511  1.4443
  163SOPE   C3618322   5.454   2.219   9.333  0.7302  0.8183  0.2507
  163SOPE   H6X18323   5.375   2.153   9.291 -0.8419  0.9888  2.7441
  163SOPE   H6Y18324   5.545   2.156   9.345  0.4163  0.1886 -0.5484
  163SOPE   C3718325   5.494   2.330   9.232  0.0298 -0.5316 -0.8964
  163SOPE   H7X18326   5.573   2.389   9.283 -0.0226 -0.8469 -0.4371
  163SOPE   H7Y18327   5.405   2.396   9.221 -0.3902 -0.9765 -0.2949
  163SOPE   C3818328   5.533   2.298   9.092 -0.6525  0.3289  0.7328
  163SOPE   H8X18329   5.443   2.247   9.052 -0.7553  2.1647 -1.5842
  163SOPE   H8Y18330   5.614   2.223   9.090  0.2993  1.3423 -0.2606
  163SOPE   C3918331   5.565   2.429   9.010 -0.2881 -0.0101 -0.0207
  163SOPE   H9X18332   5.636   2.490   9.069  0.8792  0.1653 -1.5309
  163SOPE   H9Y18333   5.478   2.497   8.999 -0.6001 -0.0467  1.9136
  163SOPE  C31018334   5.640   2.392   8.880  0.7493 -0.1146  0.1803
  163SOPE  H10X18335   5.626   2.485   8.820  0.9883  0.0886  0.4385
  163SOPE  H10Y18336   5.591   2.306   8.829 -0.3688 -0.6347  2.0634
  163SOPE  C31118337   5.785   2.369   8.897  0.3853 -0.1043 -0.3491
  163SOPE  H11X18338   5.809   2.301   8.982  0.6961  0.9374  0.4108
  163SOPE  H11Y18339   5.836   2.465   8.919  2.0287 -0.2946 -2.8613
  163SOPE  C31218340   5.845   2.311   8.773  0.0945 -0.0321  0.1879
  163SOPE  H12X18341   5.832   2.201   8.767  1.6933 -0.1891 -4.2474
  163SOPE  H12Y18342   5.956   2.304   8.777  0.0322 -2.6023 -0.5731
  163SOPE  C31318343   5.790   2.374   8.654  0.1817  0.2228 -0.2442
  163SOPE  H13X18344   5.786   2.484   8.669 -0.5670  0.2852 -0.8744
  163SOPE  H13Y18345   5.687   2.344   8.625  0.2047  0.0724 -0.1679
  163SOPE  C31418346   5.884   2.347   8.536  0.3019  0.2182  0.6562
  163SOPE  H14X18347   5.895   2.237   8.528  0.3746  0.1956  1.0270
  163SOPE  H14Y18348   5.983   2.391   8.560  1.6666 -3.2383  2.0760
  163SOPE  C31518349   5.825   2.389   8.398 -0.0218  0.4017  0.4137
  163SOPE  H15X18350   5.728   2.337   8.382  0.2741  0.6435 -2.8857
  163SOPE  H15Y18351   5.883   2.360   8.308  1.5927  1.9847  0.9005
  163SOPE  C31618352   5.801   2.540   8.375 -0.6990 -0.2419  0.2462
  163SOPE  H16X18353   5.907   2.570   8.383 -1.0337  1.2203 -0.4748
  163SOPE  H16Y18354   5.742   2.580   8.461  2.7330 -0.0668  2.7214
  163SOPE  C31718355   5.738   2.582   8.240 -0.5142  0.1289 -1.0388
  163SOPE  H17X18356   5.733   2.693   8.245  2.7623  0.3796 -0.8714
  163SOPE  H17Y18357   5.637   2.537   8.241 -0.4430 -0.0343 -0.5677
  163SOPE  C31818358   5.826   2.547   8.120 -0.6625  0.2868  0.5476
  163SOPE  H18X18359   5.920   2.606   8.116 -0.6263  0.5101  3.1474
  163SOPE  H18Y18360   5.779   2.556   8.019  0.1039  0.5918  0.2139
  163SOPE  H18Z18361   5.844   2.437   8.116  1.1689  0.5964 -0.6529
  164SOPE     N18362   0.915   2.983  10.629  0.1114  0.5778 -0.2783
  164SOPE   HN118363   0.907   3.070  10.572 -1.5719  0.5920 -0.0712
  164SOPE   HN218364   1.008   2.981  10.675  0.5936  1.9555 -1.1430
  164SOPE   HN318365   0.922   2.902  10.564  0.0322 -0.6424  1.1708
  164SOPE   C1218366   0.797   2.957  10.731 -0.1453 -0.0374 -0.1628
  164SOPE  H12A18367   0.795   3.040  10.805  0.4362 -0.3402  0.1987
  164SOPE  H12B18368   0.816   2.866  10.791 -0.9236 -0.0519  0.0762
  164SOPE   C1118369   0.659   2.948  10.658 -0.2503 -0.4026  0.4887
  164SOPE  H11A18370   0.573   2.948  10.727  0.2689 -0.9607  1.1510
  164SOPE  H11B18371   0.664   2.846  10.613  0.4583  0.1299 -0.7054
  164SOPE     P18372   0.556   3.163  10.560  0.1869  0.3428 -0.1091
  164SOPE   O1318373   0.645   3.279  10.521 -0.2114 -0.5072 -0.4311
  164SOPE   O1418374   0.478   3.169  10.688 -0.3831  0.4929 -0.0188
  164SOPE   O1218375   0.640   3.035  10.539 -0.0650  0.3592 -0.6930
  164SOPE   O1118376   0.449   3.147  10.439  0.2560  0.4016 -0.0892
  164SOPE    C118377   0.363   3.255  10.409 -0.4280 -0.2771 -0.0609
  164SOPE    HA18378   0.385   3.341  10.476  0.9994 -0.2291 -0.5470
  164SOPE    HB18379   0.258   3.223  10.423 -0.5062  0.4871  1.2853
  164SOPE    C218380   0.374   3.321  10.272 -0.1285  0.1635  0.2463
  164SOPE    HS18381   0.287   3.385  10.246 -1.5991 -2.0128 -0.4250
  164SOPE   O2118382   0.390   3.230  10.163  0.2050  0.4269  0.0748
  164SOPE   C2118383   0.279   3.153  10.152 -0.0531  0.0114 -0.2090
  164SOPE   O2218384   0.171   3.163  10.212  0.2630  0.0629  0.2920
  164SOPE   C2218385   0.299   3.047  10.047  0.0472 -0.5414  0.9376
  164SOPE   H2R18386   0.232   2.962  10.071  0.0500 -0.8032  0.0648
  164SOPE   H2S18387   0.405   3.016  10.059  0.1204  0.6435  4.2012
  164SOPE    C318388   0.501   3.406  10.258 -0.1590  0.1890  0.9337
  164SOPE    HX18389   0.597   3.351  10.268 -1.1501 -1.8841 -0.3990
  164SOPE    HY18390   0.511   3.472  10.347 -0.9789 -0.2160  1.3325
  164SOPE   O3118391   0.501   3.486  10.134 -0.4166  0.0875  0.0722
  164SOPE   C3118392   0.611   3.572  10.126  0.2529 -0.8944 -0.2742
  164SOPE   O3218393   0.698   3.578  10.211 -0.0307 -0.4069 -0.5087
  164SOPE   C3218394   0.609   3.649   9.992  0.4615  0.3686  0.1951
  164SOPE   H2X18395   0.703   3.707   9.976  1.6519 -1.3520  0.6170
  164SOPE   H2Y18396   0.526   3.721  10.011 -0.2583 -0.7175  1.3190
  164SOPE   C2318397   0.262   3.079   9.904 -0.2141  0.4138 -0.5895
  164SOPE   H3R18398   0.326   3.165   9.872 -0.3779  0.7234 -0.0999
  164SOPE   H3S18399   0.154   3.100   9.887 -0.2498  0.5503 -0.2141
  164SOPE   C2418400   0.310   2.960   9.810  0.4275 -0.2088  0.2404
  164SOPE   H4R18401   0.404   2.923   9.857 -0.0474 -0.7101  0.7921
  164SOPE   H4S18402   0.239   2.876   9.822  0.0941  0.2408  1.6136
  164SOPE   C2518403   0.321   3.002   9.664 -0.1955 -0.1454 -0.4412
  164SOPE   H5R18404   0.386   3.092   9.666  0.5744 -0.6924  1.3379
  164SOPE   H5S18405   0.370   2.926   9.600 -0.2378  0.8755 -1.7378
  164SOPE   C2618406   0.193   3.037   9.593  0.1734 -0.7432 -0.4471
  164SOPE   H6R18407   0.109   2.966   9.609 -1.6514  1.5373  0.6329
  164SOPE   H6S18408   0.162   3.137   9.630  0.3206 -0.6069 -0.6861
  164SOPE   C2718409   0.212   3.075   9.441 -0.8952  0.1535 -0.7304
  164SOPE   H7R18410   0.288   3.155   9.437 -0.6688  0.0593  0.8110
  164SOPE   H7S18411   0.251   2.991   9.380  0.2638 -1.4261  1.9666
  164SOPE   C2818412   0.079   3.133   9.380  1.3825 -0.3863 -0.2256
  164SOPE   H8R18413   0.040   3.201   9.459  0.7464 -0.0522 -0.8174
  164SOPE   H8S18414   0.089   3.204   9.295 -0.4522  0.2890  0.0755
  164SOPE   C2918415  -0.035   3.034   9.356 -0.5154 -0.6082 -0.1768
  164SOPE   H9118416  -0.047   2.949   9.425  0.3245 -2.5579 -2.2787
  164SOPE  C21018417  -0.113   3.036   9.247 -0.7114 -0.5369 -0.2533
  164SOPE  H10118418  -0.192   2.960   9.235 -2.3205  0.8485  1.1441
  164SOPE  C21118419  -0.093   3.136   9.130  0.5177  0.2419  0.3391
  164SOPE  H11R18420   0.014   3.160   9.110  0.1191  1.7922 -0.0856
  164SOPE  H11S18421  -0.149   3.231   9.142  1.3235  0.7624  0.0867
  164SOPE  C21218422  -0.146   3.069   8.999  0.4990 -0.0205 -0.3155
  164SOPE  H12R18423  -0.246   3.023   9.018  1.4875 -2.4197 -0.5224
  164SOPE  H12S18424  -0.079   2.982   8.980 -0.4616 -0.5408 -1.4927
  164SOPE  C21318425  -0.147   3.172   8.881 -0.7751 -0.1117 -0.5713
  164SOPE  H13R18426  -0.165   3.276   8.915 -0.2735 -0.0857 -0.3737
  164SOPE  H13S18427  -0.221   3.144   8.803 -1.4380 -0.7112  0.2469
  164SOPE  C21418428  -0.004   3.184   8.820 -0.1550  0.4500  0.2789
  164SOPE  H14R18429   0.031   3.093   8.768  2.1301  1.5530 -0.2548
  164SOPE  H14S18430   0.065   3.198   8.905 -0.4922  2.6113  0.2781
  164SOPE  C21518431   0.014   3.307   8.733 -0.6052 -0.4545  0.4170
  164SOPE  H15R18432  -0.006   3.398   8.794 -0.3546 -0.5044  0.5730
  164SOPE  H15S18433  -0.068   3.298   8.659  0.0950  0.2452 -0.4790
  164SOPE  C21618434   0.143   3.324   8.667  0.5463  0.1833  0.3856
  164SOPE  H16R18435   0.148   3.244   8.590 -1.4298 -1.2311  1.6279
  164SOPE  H16S18436   0.227   3.294   8.733  0.2604 -1.6368 -0.0194
  164SOPE  C21718437   0.166   3.456   8.605  0.3859  0.1736 -0.2428
  164SOPE  H17R18438   0.142   3.528   8.687  0.2760 -0.4500  0.2798
  164SOPE  H17S18439   0.092   3.472   8.524  0.3599  1.9893  0.0858
  164SOPE  C21818440   0.310   3.473   8.563 -0.2291  0.2570  0.5671
  164SOPE  H18R18441   0.378   3.458   8.650 -0.9792  1.3038  1.3672
  164SOPE  H18S18442   0.342   3.572   8.527 -1.1030  0.9121  1.5304
  164SOPE  H18T18443   0.331   3.407   8.476 -1.0993  1.0119 -0.2450
  164SOPE   C3318444   0.595   3.552   9.872  0.5732 -0.6250 -0.0444
  164SOPE   H3X18445   0.583   3.607   9.776 -1.6299 -0.6739  0.1730
  164SOPE   H3Y18446   0.503   3.490   9.878 -0.6913  0.6456 -3.6695
  164SOPE   C3418447   0.720   3.463   9.856 -0.4026 -0.4924  0.0676
  164SOPE   H4X18448   0.727   3.409   9.953  0.0196  1.0528  0.9295
  164SOPE   H4Y18449   0.803   3.537   9.857 -1.0940  0.2895 -0.1289
  164SOPE   C3518450   0.721   3.375   9.733  0.8631 -0.4820 -0.5170
  164SOPE   H5X18451   0.727   3.445   9.647 -0.8870  1.7667  1.0947
  164SOPE   H5Y18452   0.628   3.315   9.723  0.8327 -0.3455 -1.1136
  164SOPE   C3618453   0.841   3.276   9.727  0.3214 -0.1958 -0.9353
  164SOPE   H6X18454   0.810   3.192   9.792 -2.2516  1.3836  0.0466
  164SOPE   H6Y18455   0.932   3.323   9.771 -0.3533 -2.0727  2.8435
  164SOPE   C3718456   0.875   3.214   9.594 -0.4370  0.2129  0.1727
  164SOPE   H7X18457   0.901   3.301   9.530 -0.2150 -0.6764 -0.9559
  164SOPE   H7Y18458   0.788   3.157   9.555 -0.7295 -0.4294  1.6667
  164SOPE   C3818459   1.006   3.130   9.609  0.1933 -0.6780 -0.4305
  164SOPE   H8X18460   0.982   3.044   9.675 -1.1945  0.6016  0.8107
  164SOPE   H8Y18461   1.089   3.193   9.649 -0.1700  1.5520 -2.8823
  164SOPE   C3918462   1.053   3.077   9.469  1.0792 -0.8775  0.2254
  164SOPE   H9X18463   1.136   3.010   9.497  0.5501 -0.4255  3.2879
  164SOPE   H9Y18464   1.094   3.163   9.413  0.9436 -1.4403 -0.7519
  164SOPE  C31018465   0.947   2.997   9.379  0.0065 -0.9255 -0.9029
  164SOPE  H10X18466   0.880   3.081   9.352  1.6800  0.5227 -0.7682
  164SOPE  H10Y18467   0.886   2.923   9.434 -0.9793 -2.1144 -3.4536
  164SOPE  C31118468   1.002   2.941   9.252 -0.3844 -0.3229 -0.3600
  164SOPE  H11X18469   1.070   2.855   9.264  3.2956  2.5916  2.3121
  164SOPE  H11Y18470   1.079   3.006   9.205  0.8897 -2.4372 -1.3428
  164SOPE  C31218471   0.889   2.906   9.147 -0.3102 -0.7287  0.0508
  164SOPE  H12X18472   0.815   2.989   9.137 -0.5691 -0.8680  0.7788
  164SOPE  H12Y18473   0.844   2.820   9.200  1.2180  0.4654  3.5525
  164SOPE  C31318474   0.944   2.864   9.021 -0.4835  0.5176 -0.2286
  164SOPE  H13X18475   0.998   2.767   9.029 -1.4669 -0.7516 -5.3440
  164SOPE  H13Y18476   1.022   2.936   8.985  1.5522 -1.7182 -0.5531
  164SOPE  C31418477   0.848   2.853   8.899 -0.0420 -0.2571 -0.3030
  164SOPE  H14X18478   0.785   2.943   8.886 -0.6875 -0.7273 -0.4967
  164SOPE  H14Y18479   0.787   2.760   8.907  1.1601 -0.9317  1.7145
  164SOPE  C31518480   0.920   2.838   8.776 -0.0494 -0.1656  0.2912
  164SOPE  H15X18481   0.985   2.748   8.773  0.7196  0.3973 -1.9306
  164SOPE  H15Y18482   0.979   2.930   8.753  0.7319 -0.8714 -0.6682
  164SOPE  C31618483   0.807   2.846   8.668  0.5890 -0.9714 -0.2007
  164SOPE  H16X18484   0.773   2.952   8.676 -1.6884 -1.7359  1.0957
  164SOPE  H16Y18485   0.726   2.772   8.684  1.4103 -1.7277  0.6047
  164SOPE  C31718486   0.856   2.824   8.525  0.1285  0.6967  0.8553
  164SOPE  H17X18487   0.914   2.729   8.518 -0.6511  0.2351  0.5331
  164SOPE  H17Y18488   0.921   2.911   8.501  1.6741 -0.9968 -1.4768
  164SOPE  C31818489   0.742   2.809   8.426  0.2796 -0.1146 -0.5988
  164SOPE  H18X18490   0.669   2.735   8.465  0.2686  0.3710  0.3240
  164SOPE  H18Y18491   0.774   2.777   8.324 -0.8707  0.2105 -1.0809
  164SOPE  H18Z18492   0.699   2.911   8.414  0.2015 -0.1408 -0.5463
  165SOPE     N18493   0.135   1.918  10.734  0.2189 -0.0473  0.6362
  165SOPE   HN118494   0.170   1.864  10.652 -1.0833  2.3588 -1.6450
  165SOPE   HN218495   0.215   1.920  10.802  0.3769 -0.4717  0.4647
  165SOPE   HN318496   0.052   1.863  10.762 -0.2514 -0.6333 -1.7231
  165SOPE   C1218497   0.108   2.063  10.694  0.1452  0.5525 -0.2412
  165SOPE  H12A18498   0.204   2.083  10.641  0.5718 -1.0010 -0.1019
  165SOPE  H12B18499   0.095   2.128  10.783 -0.4000 -0.0595  0.1351
  165SOPE   C1118500  -0.017   2.069  10.610 -0.3799  0.0049 -0.0864
  165SOPE  H11A18501  -0.007   2.026  10.508 -1.6282  0.8095 -0.5641
  165SOPE  H11B18502  -0.048   2.174  10.594  0.1913  0.0999 -0.5729
  165SOPE     P18503  -0.264   2.028  10.709 -0.0521 -0.2515 -0.0141
  165SOPE   O1318504  -0.246   2.088  10.842  0.1055 -0.2085  0.0832
  165SOPE   O1418505  -0.350   1.902  10.705 -0.6887 -0.4631 -0.2850
  165SOPE   O1218506  -0.115   1.988  10.666  0.5117  0.2115 -0.1647
  165SOPE   O1118507  -0.312   2.141  10.600 -0.3567  0.6354  0.5845
  165SOPE    C118508  -0.402   2.114  10.494 -0.1793 -0.5195  0.0460
  165SOPE    HA18509  -0.457   2.207  10.469  2.5199  0.7987 -1.3702
  165SOPE    HB18510  -0.470   2.029  10.517  1.7675 -1.5559  2.4291
  165SOPE    C218511  -0.320   2.084  10.362 -0.6239  0.6713  0.1766
  165SOPE    HS18512  -0.376   2.064  10.269  1.0981  1.9138 -1.1914
  165SOPE   O2118513  -0.220   1.977  10.377  0.5833 -0.0312  0.3430
  165SOPE   C2118514  -0.270   1.855  10.394 -0.6813 -0.1872 -0.1437
  165SOPE   O2218515  -0.386   1.828  10.407  0.2596  0.2801  0.2813
  165SOPE   C2218516  -0.144   1.761  10.385 -0.5668 -0.1740 -0.6792
  165SOPE   H2R18517  -0.154   1.651  10.394  2.0143 -0.4102  0.2111
  165SOPE   H2S18518  -0.076   1.799  10.465 -0.6991 -0.1841 -0.5630
  165SOPE    C318519  -0.244   2.214  10.321 -0.0156 -0.1186  0.9500
  165SOPE    HX18520  -0.164   2.221  10.397  1.3529  0.6656 -0.5126
  165SOPE    HY18521  -0.305   2.306  10.339  1.6116  0.9345  1.2556
  165SOPE   O3118522  -0.197   2.218  10.180 -0.1921  0.0837 -0.3593
  165SOPE   C3118523  -0.292   2.275  10.101 -0.2565 -0.3227 -0.2181
  165SOPE   O3218524  -0.412   2.277  10.126 -0.7544 -0.3689 -0.3752
  165SOPE   C3218525  -0.240   2.346   9.974 -1.2672  1.0676  0.0252
  165SOPE   H2X18526  -0.130   2.353   9.978 -0.8226 -2.8829 -0.9465
  165SOPE   H2Y18527  -0.293   2.443   9.968 -0.5512  1.3702 -2.5242
  165SOPE   C2318528  -0.064   1.784  10.254  0.1390 -0.7096  0.0214
  165SOPE   H3R18529   0.038   1.752  10.282  0.0430  0.5815  2.0364
  165SOPE   H3S18530  -0.056   1.893  10.238 -0.2415 -0.3337  2.0916
  165SOPE   C2418531  -0.121   1.706  10.137  0.6173 -0.2479  0.6085
  165SOPE   H4R18532  -0.040   1.635  10.108 -0.8009 -2.0413  0.8227
  165SOPE   H4S18533  -0.210   1.645  10.165  0.3025 -0.7830 -1.4071
  165SOPE   C2518534  -0.166   1.801  10.022  0.1340 -0.5021  0.9341
  165SOPE   H5R18535  -0.250   1.871  10.047 -1.5270 -1.5783 -1.2741
  165SOPE   H5S18536  -0.074   1.862  10.009 -0.8638  0.6748 -1.1249
  165SOPE   C2618537  -0.203   1.721   9.896  0.0618 -0.1761 -0.6901
  165SOPE   H6R18538  -0.123   1.648   9.874  0.6756  0.6585 -1.3220
  165SOPE   H6S18539  -0.303   1.673   9.908 -0.8474  1.5571 -0.9181
  165SOPE   C2718540  -0.211   1.817   9.783 -0.6021 -0.6428  0.3472
  165SOPE   H7R18541  -0.285   1.899   9.794  0.1623  0.3765 -1.5317
  165SOPE   H7S18542  -0.114   1.866   9.759 -0.2592 -1.7761 -0.6732
  165SOPE   C2818543  -0.247   1.750   9.644 -0.1225 -0.4523 -0.0958
  165SOPE   H8R18544  -0.157   1.691   9.617  0.8385  0.1342  1.6509
  165SOPE   H8S18545  -0.324   1.674   9.668  1.1430 -1.7822 -0.0917
  165SOPE   C2918546  -0.289   1.854   9.538 -0.3784  0.0326 -0.2524
  165SOPE   H9118547  -0.293   1.962   9.560 -1.4983  0.3350 -1.8016
  165SOPE  C21018548  -0.326   1.813   9.411 -0.7220 -0.2986 -0.6327
  165SOPE  H10118549  -0.344   1.888   9.333  3.3549  1.1940 -0.3866
  165SOPE  C21118550  -0.333   1.669   9.369  0.3927 -0.0744  0.2753
  165SOPE  H11R18551  -0.432   1.626   9.395 -0.6750  2.1730  0.2389
  165SOPE  H11S18552  -0.259   1.597   9.410 -0.0614 -1.1109 -0.6936
  165SOPE  C21218553  -0.326   1.674   9.210  0.1787  0.0189  0.4759
  165SOPE  H12R18554  -0.421   1.714   9.171  1.2778  0.7606 -1.5793
  165SOPE  H12S18555  -0.323   1.569   9.173 -1.7632  0.5755 -1.4587
  165SOPE  C21318556  -0.208   1.749   9.144 -0.2003  0.2200  0.5083
  165SOPE  H13R18557  -0.117   1.756   9.206  0.2539 -1.0876  0.0230
  165SOPE  H13S18558  -0.235   1.856   9.130  3.8428  1.4786  1.0202
  165SOPE  C21418559  -0.186   1.696   9.008  0.0549  0.1361  0.2617
  165SOPE  H14R18560  -0.280   1.721   8.954 -0.8874 -2.1396  0.7297
  165SOPE  H14S18561  -0.169   1.586   8.999 -0.2698  0.0707  0.4352
  165SOPE  C21518562  -0.079   1.764   8.927  0.0034 -0.1268  0.1261
  165SOPE  H15R18563   0.023   1.758   8.971  0.7313  0.3358 -1.4386
  165SOPE  H15S18564  -0.094   1.874   8.926 -1.0345 -0.2498 -1.5465
  165SOPE  C21618565  -0.081   1.727   8.774 -0.2562  0.7772 -0.1555
  165SOPE  H16R18566  -0.016   1.799   8.721  0.0961  0.9748  0.5283
  165SOPE  H16S18567  -0.185   1.753   8.743  0.1897  1.0023 -1.5205
  165SOPE  C21718568  -0.036   1.581   8.749 -0.5723  1.1620 -0.2459
  165SOPE  H17R18569  -0.071   1.515   8.831 -0.5747  0.4469 -0.8101
  165SOPE  H17S18570   0.074   1.571   8.761 -0.7171 -3.6257 -0.7612
  165SOPE  C21818571  -0.080   1.526   8.608  0.0663  0.5210 -0.7756
  165SOPE  H18R18572  -0.031   1.430   8.580  0.2217 -0.0007  1.0929
  165SOPE  H18S18573  -0.063   1.593   8.521  0.9245 -0.7938 -1.6677
  165SOPE  H18T18574  -0.189   1.508   8.616  0.3991 -1.6460 -0.6219
  165SOPE   C3318575  -0.286   2.267   9.849 -0.0188  0.3048 -0.0126
  165SOPE   H3X18576  -0.390   2.230   9.859  0.1742 -0.8300 -1.7217
  165SOPE   H3Y18577  -0.228   2.174   9.825  1.1329  1.7386 -3.5057
  165SOPE   C3418578  -0.286   2.346   9.721 -0.2317  0.2723 -0.6707
  165SOPE   H4X18579  -0.182   2.340   9.681  1.1438 -0.6233  2.6643
  165SOPE   H4Y18580  -0.317   2.452   9.730 -2.1440 -0.1717 -1.5106
  165SOPE   C3518581  -0.377   2.274   9.622 -0.4099 -0.2197  0.7462
  165SOPE   H5X18582  -0.482   2.297   9.648 -0.7168 -1.7164  0.9116
  165SOPE   H5Y18583  -0.359   2.166   9.637 -0.1852 -0.6455 -2.1480
  165SOPE   C3618584  -0.346   2.310   9.478  0.0764  0.0806  0.8416
  165SOPE   H6X18585  -0.242   2.287   9.446 -0.5328 -1.9132  0.1997
  165SOPE   H6Y18586  -0.376   2.415   9.459 -0.3986 -0.6747 -3.3671
  165SOPE   C3718587  -0.437   2.242   9.375 -0.6178 -0.9144 -0.0600
  165SOPE   H7X18588  -0.542   2.271   9.400  0.1045  0.4509  1.6863
  165SOPE   H7Y18589  -0.440   2.132   9.386 -1.2117 -0.7962  1.3152
  165SOPE   C3818590  -0.409   2.263   9.227 -0.0181 -0.1809  0.2003
  165SOPE   H8X18591  -0.394   2.372   9.214  0.2517 -0.1168  1.0182
  165SOPE   H8Y18592  -0.503   2.245   9.170  0.8627 -1.0998 -1.0085
  165SOPE   C3918593  -0.287   2.182   9.192  0.7626  1.1735 -0.6969
  165SOPE   H9X18594  -0.295   2.071   9.189  2.0842  0.8283  2.8734
  165SOPE   H9Y18595  -0.209   2.206   9.268  1.5530  2.8466 -1.9611
  165SOPE  C31018596  -0.211   2.227   9.065  0.1778  0.1046 -0.1399
  165SOPE  H10X18597  -0.102   2.205   9.074  0.7313  2.4583 -0.4569
  165SOPE  H10Y18598  -0.230   2.336   9.053 -0.8277 -0.1748 -1.2485
  165SOPE  C31118599  -0.261   2.146   8.935  0.1998 -0.6283  0.0804
  165SOPE  H11X18600  -0.372   2.151   8.926  0.2362  0.5897  0.2251
  165SOPE  H11Y18601  -0.230   2.039   8.940 -1.1403 -1.0734 -0.4809
  165SOPE  C31218602  -0.197   2.208   8.814 -0.2059 -0.1334  0.2379
  165SOPE  H12X18603  -0.091   2.175   8.808 -0.2882 -0.3548 -0.0685
  165SOPE  H12Y18604  -0.202   2.318   8.821  0.3906  0.0590 -1.6379
  165SOPE  C31318605  -0.274   2.159   8.685 -0.1751 -0.7679 -0.9097
  165SOPE  H13X18606  -0.384   2.171   8.688 -0.0577  0.2631  0.0226
  165SOPE  H13Y18607  -0.257   2.050   8.695  2.7284 -0.2477  1.4827
  165SOPE  C31418608  -0.222   2.211   8.548  1.0874 -0.1878 -0.4687
  165SOPE  H14X18609  -0.247   2.319   8.550  1.1588 -0.1666  2.0515
  165SOPE  H14Y18610  -0.283   2.165   8.467 -2.0581  1.6951  0.6150
  165SOPE  C31518611  -0.076   2.208   8.512 -0.0538  0.9906  0.1317
  165SOPE  H15X18612  -0.028   2.109   8.529  1.2200  1.7628  1.3470
  165SOPE  H15Y18613  -0.038   2.277   8.591 -1.4629  1.8602  0.0846
  165SOPE  C31618614  -0.044   2.253   8.372  0.9472 -0.4720 -0.3850
  165SOPE  H16X18615  -0.106   2.344   8.359  0.8306 -0.2682  1.3842
  165SOPE  H16Y18616  -0.089   2.189   8.292 -2.9609  0.8686  0.5286
  165SOPE  C31718617   0.113   2.276   8.346  0.8109 -0.0487 -0.1386
  165SOPE  H17X18618   0.168   2.180   8.352  1.7005  0.2805 -2.2283
  165SOPE  H17Y18619   0.151   2.339   8.430 -1.0420  0.0992  0.6350
  165SOPE  C31818620   0.132   2.354   8.217  0.4416  0.1783  0.1794
  165SOPE  H18X18621   0.101   2.458   8.241 -3.6055 -0.1755 -2.4576
  165SOPE  H18Y18622   0.057   2.320   8.142 -0.5122 -0.4044  1.3566
  165SOPE  H18Z18623   0.233   2.347   8.172  0.5555  1.0016  0.2877
  166SOPE     N18624   1.813   3.199  10.734  0.2319  0.0413  0.0183
  166SOPE   HN118625   1.879   3.148  10.671 -1.3969  1.6881 -3.2617
  166SOPE   HN218626   1.772   3.134  10.803 -2.0975 -0.7655 -1.9935
  166SOPE   HN318627   1.741   3.245  10.675 -0.7435  2.0566  2.5898
  166SOPE   C1218628   1.890   3.313  10.798 -0.4996  0.4610 -0.1994
  166SOPE  H12A18629   1.831   3.355  10.882  0.7736 -0.2614  1.0943
  166SOPE  H12B18630   1.907   3.397  10.728  1.8634  1.6655  1.6671
  166SOPE   C1118631   2.023   3.266  10.865  0.0157  0.0234 -0.8391
  166SOPE  H11A18632   2.000   3.226  10.966 -2.8918  1.7232 -0.7020
  166SOPE  H11B18633   2.078   3.359  10.885 -1.3891  0.8576 -0.6978
  166SOPE     P18634   2.215   3.093  10.826 -0.1508 -0.3590  0.1528
  166SOPE   O1318635   2.221   2.980  10.742 -0.2172 -0.2026  0.3548
  166SOPE   O1418636   2.217   3.064  10.975  0.7401  0.6628  0.6454
  166SOPE   O1218637   2.096   3.176  10.779  0.1810  0.0328 -0.5190
  166SOPE   O1118638   2.344   3.186  10.797  0.8621  0.3272 -0.4059
  166SOPE    C118639   2.334   3.297  10.705  0.1946  0.2830  0.0697
  166SOPE    HA18640   2.395   3.383  10.741 -0.5952  0.1918  1.7387
  166SOPE    HB18641   2.236   3.348  10.715  0.2677  0.2489  1.0861
  166SOPE    C218642   2.368   3.254  10.564  0.0853 -0.5035  0.5366
  166SOPE    HS18643   2.324   3.156  10.538 -0.7938  0.6057 -2.5471
  166SOPE   O2118644   2.514   3.257  10.547 -0.0291  0.1908 -0.2974
  166SOPE   C2118645   2.551   3.160  10.471 -0.2927  0.4611  0.0680
  166SOPE   O2218646   2.481   3.079  10.411 -0.2791 -0.2731 -0.2512
  166SOPE   C2218647   2.703   3.184  10.442 -0.1177  0.5491 -0.7482
  166SOPE   H2R18648   2.745   3.221  10.538 -1.2120  1.4867 -0.6071
  166SOPE   H2S18649   2.699   3.275  10.377 -1.2762  0.6298 -0.5771
  166SOPE    C318650   2.316   3.367  10.467 -0.6865  0.0449  0.0338
  166SOPE    HX18651   2.374   3.459  10.486 -0.4993  0.0031 -0.3201
  166SOPE    HY18652   2.207   3.384  10.484 -1.3027 -0.5036 -2.7754
  166SOPE   O3118653   2.340   3.331  10.328 -0.1070  0.2675  0.5949
  166SOPE   C3118654   2.255   3.237  10.273  0.2175  0.3098 -0.4103
  166SOPE   O3218655   2.166   3.180  10.335 -0.7234 -0.1922 -0.6099
  166SOPE   C3218656   2.292   3.204  10.132  0.5471 -0.3987 -0.4873
  166SOPE   H2X18657   2.381   3.138  10.142  0.4931 -0.3016  0.9088
  166SOPE   H2Y18658   2.313   3.298  10.076 -0.7626 -0.3648 -0.9446
  166SOPE   C2318659   2.784   3.072  10.378  0.1492 -0.3255 -0.4652
  166SOPE   H3R18660   2.889   3.101  10.354  0.9310 -1.8380  0.8529
  166SOPE   H3S18661   2.731   3.051  10.283  1.9514  1.3532 -1.9263
  166SOPE   C2418662   2.803   2.948  10.466 -0.3827 -0.3519  0.1292
  166SOPE   H4R18663   2.833   2.993  10.563 -1.5066  0.5735  0.0797
  166SOPE   H4S18664   2.704   2.898  10.478 -1.0247 -0.1711 -3.3711
  166SOPE   C2518665   2.898   2.841  10.419 -0.5336  0.3109  0.6505
  166SOPE   H5R18666   2.915   2.768  10.502 -0.9983 -0.6841 -0.1174
  166SOPE   H5S18667   2.860   2.788  10.330 -0.1497  1.7057 -0.3797
  166SOPE   C2618668   3.041   2.895  10.380 -0.9708  0.1290 -0.0043
  166SOPE   H6R18669   3.033   2.946  10.282  1.5485  3.6492  1.4282
  166SOPE   H6S18670   3.072   2.973  10.452  0.1252  0.2120 -0.5577
  166SOPE   C2718671   3.141   2.777  10.388  0.4671 -0.5405  0.5087
  166SOPE   H7R18672   3.134   2.725  10.486  2.1117 -0.4175  0.7157
  166SOPE   H7S18673   3.134   2.703  10.305  2.1234 -1.0344  0.7789
  166SOPE   C2818674   3.287   2.825  10.376 -0.3300 -0.5915 -0.1574
  166SOPE   H8R18675   3.318   2.876  10.470  1.9780  0.0827 -1.2174
  166SOPE   H8S18676   3.355   2.738  10.362  1.6585  0.8391  0.2040
  166SOPE   C2918677   3.310   2.925  10.261  0.2133 -0.5851 -0.4444
  166SOPE   H9118678   3.295   3.030  10.291  1.2205 -0.2626 -1.0055
  166SOPE  C21018679   3.328   2.897  10.128 -0.3473  0.3368  0.5707
  166SOPE  H10118680   3.329   2.974  10.049 -2.5215 -0.7438 -0.6223
  166SOPE  C21118681   3.317   2.759  10.068  0.3108 -0.0645 -0.0917
  166SOPE  H11R18682   3.209   2.737  10.057  0.3896  0.3256 -1.9280
  166SOPE  H11S18683   3.377   2.694  10.134  0.1646  0.0430  0.1484
  166SOPE  C21218684   3.376   2.772   9.923 -0.2076 -0.1709 -0.7092
  166SOPE  H12R18685   3.398   2.671   9.882  1.9471  0.3978 -1.1244
  166SOPE  H12S18686   3.474   2.826   9.922 -0.7708  0.9002 -0.1235
  166SOPE  C21318687   3.286   2.828   9.816  0.9768  0.3315  0.2518
  166SOPE  H13R18688   3.290   2.939   9.824 -2.0138  0.5237  0.1285
  166SOPE  H13S18689   3.185   2.793   9.848  1.1973  0.0921  0.6845
  166SOPE  C21418690   3.302   2.784   9.673  0.5878 -0.4446 -0.1061
  166SOPE  H14R18691   3.204   2.799   9.622  0.8905 -1.3352 -0.9893
  166SOPE  H14S18692   3.310   2.674   9.681 -0.8756 -0.4784  1.3917
  166SOPE  C21518693   3.411   2.846   9.584  0.5922 -0.0727 -0.1036
  166SOPE  H15R18694   3.515   2.822   9.614  1.1622 -1.1823 -2.7060
  166SOPE  H15S18695   3.415   2.957   9.588  2.5283 -0.0947 -0.1255
  166SOPE  C21618696   3.425   2.787   9.442  0.4349 -0.3729  0.4305
  166SOPE  H16R18697   3.415   2.678   9.458 -2.3442  0.0592  2.1620
  166SOPE  H16S18698   3.519   2.817   9.390  0.3577 -0.3742  0.2891
  166SOPE  C21718699   3.323   2.840   9.333 -0.1771  0.3943 -0.0474
  166SOPE  H17R18700   3.337   2.949   9.321  0.7809  0.1997 -0.8583
  166SOPE  H17S18701   3.221   2.826   9.373 -0.4862  1.2747 -0.5107
  166SOPE  C21818702   3.344   2.768   9.193 -0.1297  0.2553 -0.5839
  166SOPE  H18R18703   3.444   2.792   9.149  0.0132 -2.2296 -1.7453
  166SOPE  H18S18704   3.274   2.804   9.114 -1.0138  0.4441  0.2701
  166SOPE  H18T18705   3.333   2.658   9.198  0.2045  0.2044 -0.8909
  166SOPE   C3318706   2.189   3.133  10.051 -0.4414 -0.9003 -0.3505
  166SOPE   H3X18707   2.097   3.195  10.047  1.0856  1.6162  1.0429
  166SOPE   H3Y18708   2.157   3.035  10.093 -0.7168 -0.9631 -0.6945
  166SOPE   C3418709   2.231   3.112   9.908 -0.3985  0.3233 -0.1842
  166SOPE   H4X18710   2.155   3.048   9.859 -1.2586  1.7681 -0.7918
  166SOPE   H4Y18711   2.328   3.057   9.908  0.1426  1.1625 -2.5120
  166SOPE   C3518712   2.253   3.242   9.820  0.2040  0.6645 -0.0648
  166SOPE   H5X18713   2.327   3.306   9.873  0.0611  1.0439 -0.3141
  166SOPE   H5Y18714   2.156   3.296   9.820 -0.9298 -1.2611  0.5569
  166SOPE   C3618715   2.292   3.212   9.675 -0.1926  0.5213 -0.0758
  166SOPE   H6X18716   2.209   3.160   9.622 -0.6116  3.2128 -2.2295
  166SOPE   H6Y18717   2.385   3.151   9.680 -1.0603 -0.8393  0.0678
  166SOPE   C3718718   2.319   3.337   9.592  0.1070  0.3276  0.4673
  166SOPE   H7X18719   2.221   3.389   9.605  0.8584  1.6322  1.0875
  166SOPE   H7Y18720   2.311   3.305   9.486 -1.2979  1.3074  0.2495
  166SOPE   C3818721   2.440   3.432   9.633 -0.1268  0.3293 -0.1181
  166SOPE   H8X18722   2.439   3.451   9.743  2.4787 -1.1240  0.2440
  166SOPE   H8Y18723   2.440   3.530   9.581 -1.1331 -0.8576 -2.4804
  166SOPE   C3918724   2.582   3.375   9.597 -0.2767 -0.1691 -0.2412
  166SOPE   H9X18725   2.599   3.277   9.648  3.5957 -0.0792 -0.9982
  166SOPE   H9Y18726   2.651   3.453   9.637 -1.2354  0.2976  0.5409
  166SOPE  C31018727   2.606   3.361   9.451  0.2018  0.1734 -0.0334
  166SOPE  H10X18728   2.590   3.450   9.386  2.9007  0.6503 -0.1641
  166SOPE  H10Y18729   2.540   3.283   9.407 -0.7155  2.4675 -3.0403
  166SOPE  C31118730   2.749   3.315   9.416  0.2940 -0.5877 -0.4163
  166SOPE  H11X18731   2.798   3.258   9.498 -0.8554  0.3727  0.9863
  166SOPE  H11Y18732   2.804   3.410   9.397 -1.9932  0.6106 -1.4030
  166SOPE  C31218733   2.762   3.243   9.281 -0.7755  0.0968 -0.1846
  166SOPE  H12X18734   2.726   3.139   9.291 -1.5254  0.2883 -0.8481
  166SOPE  H12Y18735   2.867   3.243   9.245 -0.8169  0.0661 -0.3027
  166SOPE  C31318736   2.682   3.307   9.169  0.0973  0.0318  1.0002
  166SOPE  H13X18737   2.692   3.417   9.183 -0.3944  0.1269  0.6401
  166SOPE  H13Y18738   2.576   3.276   9.178  0.1079 -0.7268 -1.0459
  166SOPE  C31418739   2.736   3.268   9.027 -0.6338  0.3373 -0.1081
  166SOPE  H14X18740   2.760   3.160   9.025 -1.9673  0.0318 -0.5009
  166SOPE  H14Y18741   2.838   3.307   9.008 -0.0808 -1.2959 -0.6577
  166SOPE  C31518742   2.636   3.299   8.911 -0.0214 -0.1840  0.2965
  166SOPE  H15X18743   2.603   3.404   8.926 -0.7501 -0.4171  0.3409
  166SOPE  H15Y18744   2.550   3.230   8.909 -1.5033  1.5684  0.5439
  166SOPE  C31618745   2.695   3.267   8.771  0.0871 -0.2158  0.1528
  166SOPE  H16X18746   2.744   3.168   8.767  2.7047  0.9915  0.3932
  166SOPE  H16Y18747   2.776   3.341   8.753  1.0314 -1.4126 -0.7331
  166SOPE  C31718748   2.597   3.263   8.658 -0.0502  0.2471  0.3766
  166SOPE  H17X18749   2.512   3.194   8.678  0.0566 -0.0439 -0.1650
  166SOPE  H17Y18750   2.655   3.229   8.570 -0.9064  0.2942 -0.2119
  166SOPE  C31818751   2.542   3.399   8.629  0.0368  0.3807 -0.2061
  166SOPE  H18X18752   2.620   3.473   8.600 -1.8053  1.8356 -1.8106
  166SOPE  H18Y18753   2.481   3.432   8.715  0.3704 -0.8145  0.5030
  166SOPE  H18Z18754   2.472   3.382   8.544  0.4473  0.5563 -0.5870
  167SOPE     N18755   2.293   0.065   6.253 -0.2240  0.1610  0.2785
  167SOPE   HN118756   2.387   0.021   6.266 -0.8477 -1.0728  0.8135
  167SOPE   HN218757   2.238   0.005   6.188 -1.2007 -0.2547  1.4744
  167SOPE   HN318758   2.318   0.154   6.204  3.8340  0.3243  2.2400
  167SOPE   C1218759   2.222   0.100   6.382  0.0347 -0.3202 -0.3217
  167SOPE  H12A18760   2.301   0.136   6.452  0.9307 -1.8792 -0.4894
  167SOPE  H12B18761   2.176   0.009   6.426 -0.1250  0.5063  1.3039
  167SOPE   C1118762   2.118   0.211   6.348  0.1903  0.0902 -0.3210
  167SOPE  H11A18763   2.048   0.223   6.434 -0.3787 -1.4262 -0.5380
  167SOPE  H11B18764   2.060   0.179   6.259 -2.0147 -3.2791  2.0755
  167SOPE     P18765   2.109   0.470   6.298 -0.0774  0.0857  0.1568
  167SOPE   O1318766   1.966   0.441   6.292  0.2543  0.3121  0.3298
  167SOPE   O1418767   2.181   0.535   6.182  0.4797  0.2852  0.4094
  167SOPE   O1218768   2.184   0.334   6.316 -0.5031  0.1742  0.1218
  167SOPE   O1118769   2.124   0.562   6.422  0.5277 -0.1398  0.2567
  167SOPE    C118770   2.126   0.513   6.554 -0.2103  0.1377  0.2520
  167SOPE    HA18771   2.221   0.457   6.565  1.4384  3.1453  2.9298
  167SOPE    HB18772   2.044   0.439   6.567 -0.2639  0.0843 -0.3750
  167SOPE    C218773   2.130   0.632   6.653 -0.5188  0.4840  0.3855
  167SOPE    HS18774   2.140   0.584   6.753 -0.8737 -1.6672 -0.5516
  167SOPE   O2118775   2.006   0.698   6.656  0.3599 -0.4952  0.2084
  167SOPE   C2118776   1.950   0.738   6.769  0.1741 -0.3024 -0.0595
  167SOPE   O2218777   1.986   0.713   6.884 -0.3998 -0.0128  0.1427
  167SOPE   C2218778   1.839   0.847   6.733 -0.1974  0.5601 -0.2376
  167SOPE   H2R18779   1.796   0.828   6.633  1.5870 -0.5590 -0.8348
  167SOPE   H2S18780   1.895   0.940   6.712  1.7144 -0.4274  0.2854
  167SOPE    C318781   2.248   0.733   6.620  0.3144  0.0539 -0.1866
  167SOPE    HX18782   2.219   0.820   6.557  0.7640 -0.7191 -1.5075
  167SOPE    HY18783   2.321   0.679   6.556 -1.8569 -2.0131 -1.0332
  167SOPE   O3118784   2.285   0.785   6.751 -0.2258  0.4420  0.6265
  167SOPE   C3118785   2.389   0.721   6.807  0.1580  0.4298 -0.1821
  167SOPE   O3218786   2.441   0.624   6.760  0.5764  0.4883  0.0493
  167SOPE   C3218787   2.425   0.774   6.948 -0.3829 -0.2396  1.2587
  167SOPE   H2X18788   2.421   0.884   6.938  0.2393 -0.3803 -1.1606
  167SOPE   H2Y18789   2.529   0.739   6.965  0.3928 -1.7611 -4.5431
  167SOPE   C2318790   1.730   0.865   6.841 -0.3876  0.4919 -0.2955
  167SOPE   H3R18791   1.774   0.870   6.943  0.1183 -3.1376 -0.2109
  167SOPE   H3S18792   1.671   0.771   6.831  0.4931  0.0499 -1.7719
  167SOPE   C2418793   1.640   0.983   6.798 -0.3451  0.8893  0.3466
  167SOPE   H4R18794   1.611   1.035   6.891  1.4891  0.8860  0.9561
  167SOPE   H4S18795   1.704   1.064   6.756 -0.7892  1.8063  1.3851
  167SOPE   C2518796   1.529   0.960   6.691  0.3595  0.2290 -0.0967
  167SOPE   H5R18797   1.585   0.925   6.601  1.2534 -2.3354  1.3519
  167SOPE   H5S18798   1.476   0.869   6.726  1.0945  0.3432  1.3913
  167SOPE   C2618799   1.438   1.076   6.656 -0.0182  0.4559  0.6081
  167SOPE   H6R18800   1.505   1.163   6.636 -0.5538  1.7172  3.7225
  167SOPE   H6S18801   1.378   1.057   6.565  1.4571 -0.8618 -0.1476
  167SOPE   C2718802   1.346   1.118   6.774  0.2000  0.6394  0.5375
  167SOPE   H7R18803   1.288   1.027   6.802  0.4997  0.0565 -0.6537
  167SOPE   H7S18804   1.416   1.157   6.851  0.4054  0.8199  0.2611
  167SOPE   C2818805   1.243   1.233   6.739  0.1758 -0.0128 -0.3035
  167SOPE   H8R18806   1.189   1.211   6.645  0.6717 -1.4086 -0.2845
  167SOPE   H8S18807   1.156   1.233   6.809  0.8336 -3.7388  0.7260
  167SOPE   C2918808   1.299   1.367   6.713 -0.9630  0.2955 -0.1161
  167SOPE   H9118809   1.365   1.371   6.625  0.5381  2.5470  1.0036
  167SOPE  C21018810   1.296   1.482   6.787 -0.3033 -0.9168  0.5362
  167SOPE  H10118811   1.337   1.566   6.729  0.3716 -2.4287 -1.2917
  167SOPE  C21118812   1.242   1.495   6.929 -0.4160 -0.0996  0.2305
  167SOPE  H11R18813   1.181   1.408   6.962 -1.5984  0.9012  0.7644
  167SOPE  H11S18814   1.178   1.584   6.949 -0.0117  1.0329 -2.9671
  167SOPE  C21218815   1.368   1.504   7.017 -0.2797  0.0648 -0.4902
  167SOPE  H12R18816   1.419   1.600   6.999 -0.8573  0.1148 -2.0414
  167SOPE  H12S18817   1.428   1.416   6.985 -0.5293 -1.1538  2.1210
  167SOPE  C21318818   1.344   1.505   7.174 -0.2881  0.6735  0.2599
  167SOPE  H13R18819   1.286   1.598   7.191 -1.5442  0.0328 -0.4064
  167SOPE  H13S18820   1.441   1.521   7.226  0.1623  0.9739 -0.6331
  167SOPE  C21418821   1.275   1.388   7.232 -0.7140  0.6026  0.2674
  167SOPE  H14R18822   1.351   1.307   7.229 -0.2509  1.0294 -2.6837
  167SOPE  H14S18823   1.188   1.355   7.172 -0.1184  1.3531 -1.0477
  167SOPE  C21518824   1.232   1.422   7.374  0.0096  0.6379  0.3141
  167SOPE  H15R18825   1.178   1.518   7.379 -0.7547  0.3625 -1.6251
  167SOPE  H15S18826   1.326   1.430   7.433  1.7341 -2.0056 -1.7616
  167SOPE  C21618827   1.139   1.314   7.420  0.3983 -0.2022 -0.1621
  167SOPE  H16R18828   1.182   1.212   7.408 -2.4826 -1.3610 -1.8286
  167SOPE  H16S18829   1.044   1.304   7.363 -0.8936 -1.2044  2.0577
  167SOPE  C21718830   1.107   1.345   7.565 -0.0185  0.1032 -0.1528
  167SOPE  H17R18831   1.068   1.448   7.578  1.8401  1.1837 -2.2367
  167SOPE  H17S18832   1.202   1.343   7.622  1.0995  1.6213 -1.8670
  167SOPE  C21818833   1.006   1.243   7.620  0.1427  0.5329 -0.4487
  167SOPE  H18R18834   0.905   1.248   7.575 -0.9358  1.9864  1.9020
  167SOPE  H18S18835   0.989   1.267   7.727 -1.3960 -0.2014 -0.5035
  167SOPE  H18T18836   1.041   1.138   7.612  1.5603  0.8203  1.2237
  167SOPE   C3318837   2.329   0.707   7.051 -0.5024  0.7988 -0.0605
  167SOPE   H3X18838   2.225   0.743   7.031 -0.3847  0.2494 -1.8210
  167SOPE   H3Y18839   2.359   0.734   7.155  0.8982 -2.0650  0.3932
  167SOPE   C3418840   2.329   0.548   7.051 -0.5245  0.4870  0.4252
  167SOPE   H4X18841   2.433   0.525   7.081 -1.3267 -2.0330  1.4979
  167SOPE   H4Y18842   2.313   0.514   6.947 -3.3530  1.5592  0.4185
  167SOPE   C3518843   2.220   0.486   7.139  0.0496 -0.1131  1.1014
  167SOPE   H5X18844   2.124   0.523   7.095  0.6461 -0.2211 -0.3133
  167SOPE   H5Y18845   2.233   0.539   7.236  0.0610  0.9013  0.5623
  167SOPE   C3618846   2.230   0.339   7.146  0.0519  0.3783  0.3527
  167SOPE   H6X18847   2.327   0.307   7.190 -0.4774 -1.5701  0.1890
  167SOPE   H6Y18848   2.228   0.286   7.049  2.4922 -1.9417  1.4203
  167SOPE   C3718849   2.119   0.284   7.228  0.1945 -0.3095 -0.5712
  167SOPE   H7X18850   2.021   0.311   7.184 -1.7453  0.7076  3.7749
  167SOPE   H7Y18851   2.110   0.352   7.315  0.7474 -0.4625 -0.3897
  167SOPE   C3818852   2.131   0.132   7.253 -0.4978 -0.3868  0.6338
  167SOPE   H8X18853   2.217   0.110   7.320 -1.5924  0.2473  2.3109
  167SOPE   H8Y18854   2.159   0.088   7.155  1.6141  0.7682  0.6690
  167SOPE   C3918855   2.008   0.062   7.298  0.1894 -0.3254  0.8169
  167SOPE   H9X18856   2.009  -0.047   7.276 -0.5526 -0.2576  0.4382
  167SOPE   H9Y18857   1.922   0.099   7.239  1.2498  1.0189  0.0463
  167SOPE  C31018858   1.986   0.080   7.453 -0.0554  1.1063 -0.4569
  167SOPE  H10X18859   2.022   0.176   7.495  0.4322  0.4203  0.7621
  167SOPE  H10Y18860   2.042   0.007   7.516 -1.5478 -0.2686 -0.6472
  167SOPE  C31118861   1.840   0.072   7.501 -0.0262 -0.0914 -0.3722
  167SOPE  H11X18862   1.809  -0.035   7.504  2.6087 -0.9605 -0.9442
  167SOPE  H11Y18863   1.774   0.119   7.425 -0.0721 -0.4638 -0.5694
  167SOPE  C31218864   1.811   0.121   7.647  0.3737  0.6787  0.2408
  167SOPE  H12X18865   1.845   0.227   7.656  0.5772  0.9829 -3.0255
  167SOPE  H12Y18866   1.858   0.051   7.720 -1.8704  1.3135  2.4221
  167SOPE  C31318867   1.658   0.139   7.672 -0.1704  0.8824 -0.3969
  167SOPE  H13X18868   1.619   0.036   7.688  1.9766  0.0921  0.0713
  167SOPE  H13Y18869   1.612   0.184   7.582  0.9497 -0.4455 -1.6834
  167SOPE  C31418870   1.639   0.213   7.805 -0.1646 -0.4160 -0.0219
  167SOPE  H14X18871   1.664   0.322   7.801 -1.1719 -0.1064  1.3233
  167SOPE  H14Y18872   1.690   0.161   7.889  2.6777 -1.6516 -2.3416
  167SOPE  C31518873   1.491   0.197   7.844  0.5155  1.1168  0.3054
  167SOPE  H15X18874   1.458   0.093   7.827  1.3174  0.7513  0.9292
  167SOPE  H15Y18875   1.428   0.243   7.765 -0.1460 -3.2985 -2.0272
  167SOPE  C31618876   1.480   0.252   7.981 -0.3711  0.8632  0.0894
  167SOPE  H16X18877   1.378   0.295   7.981 -0.4052  0.8785 -1.8419
  167SOPE  H16Y18878   1.559   0.330   7.994 -0.5360  1.4942 -2.1934
  167SOPE  C31718879   1.490   0.150   8.093 -0.2472  0.2507 -0.7749
  167SOPE  H17X18880   1.584   0.092   8.079  1.7713  3.0110  0.3869
  167SOPE  H17Y18881   1.406   0.078   8.091 -0.8332  0.8617  0.7603
  167SOPE  C31818882   1.490   0.220   8.228 -0.1434  0.2932 -0.5974
  167SOPE  H18X18883   1.561   0.305   8.238  0.2937 -0.1794  0.4348
  167SOPE  H18Y18884   1.511   0.168   8.323 -2.0540 -1.1702 -0.9169
  167SOPE  H18Z18885   1.390   0.265   8.247 -0.4247 -0.4112 -0.4052
  168SOPE     N18886   0.688   6.224   6.121 -0.4235 -1.0510  0.4779
  168SOPE   HN118887   0.729   6.317   6.144  1.5390 -1.7196 -0.1051
  168SOPE   HN218888   0.768   6.170   6.082  0.2396 -0.9265  1.6312
  168SOPE   HN318889   0.619   6.236   6.045  0.5894 -2.5376 -0.7502
  168SOPE   C1218890   0.642   6.151   6.242 -0.1336  0.6764 -0.0039
  168SOPE  H12A18891   0.543   6.190   6.274  1.5010  3.0750  2.6554
  168SOPE  H12B18892   0.706   6.183   6.327  0.0546  0.2070  0.0326
  168SOPE   C1118893   0.655   5.994   6.226  0.5173  0.1923 -0.1187
  168SOPE  H11A18894   0.582   5.963   6.148  1.2948 -2.3014  0.0362
  168SOPE  H11B18895   0.623   5.950   6.323 -1.8140 -1.7320 -1.6338
  168SOPE     P18896   0.903   5.963   6.305  0.2320  0.5498  0.1161
  168SOPE   O1318897   0.928   6.105   6.345  0.0489 -0.3450  0.0389
  168SOPE   O1418898   1.011   5.889   6.241 -0.2081  0.0890 -0.1479
  168SOPE   O1218899   0.784   5.962   6.199  0.0944  0.0830  0.3795
  168SOPE   O1118900   0.840   5.890   6.432 -0.1309  0.3286 -0.1009
  168SOPE    C118901   0.815   5.749   6.435 -0.2289  1.0009  0.0209
  168SOPE    HA18902   0.817   5.703   6.334  0.9730  2.1838 -0.5323
  168SOPE    HB18903   0.711   5.734   6.471  0.2472 -1.6587  0.4901
  168SOPE    C218904   0.908   5.677   6.542  0.2934  0.3102  0.3009
  168SOPE    HS18905   0.872   5.572   6.554  1.9157 -0.4564 -1.0689
  168SOPE   O2118906   0.909   5.743   6.671  0.0385 -0.5908  0.6426
  168SOPE   C2118907   0.804   5.737   6.748 -0.1427 -0.4525 -0.0087
  168SOPE   O2218908   0.708   5.664   6.731 -0.0477  0.7291  0.0926
  168SOPE   C2218909   0.821   5.841   6.861  0.2588  0.4463 -0.6041
  168SOPE   H2R18910   0.725   5.890   6.887  0.5475 -0.0211  1.5875
  168SOPE   H2S18911   0.890   5.922   6.826 -0.3745  0.1377 -2.6753
  168SOPE    C318912   1.050   5.662   6.485  0.1571 -0.6705 -0.2367
  168SOPE    HX18913   1.079   5.768   6.468  0.0454 -0.6440 -0.2643
  168SOPE    HY18914   1.043   5.620   6.383  0.3254 -1.0537 -0.0900
  168SOPE   O3118915   1.152   5.598   6.566  0.6704  0.1564 -0.2231
  168SOPE   C3118916   1.145   5.465   6.566 -0.2872 -0.0443 -0.3176
  168SOPE   O3218917   1.073   5.398   6.497  0.0186 -0.1552  0.4154
  168SOPE   C3218918   1.248   5.412   6.665  1.0575 -0.1170  0.4448
  168SOPE   H2X18919   1.347   5.428   6.618  0.2072 -3.0194 -2.8014
  168SOPE   H2Y18920   1.230   5.303   6.678 -0.8494  0.3580  2.3618
  168SOPE   C2318921   0.874   5.765   6.997  0.0338  0.5818  0.3438
  168SOPE   H3R18922   0.969   5.713   6.969 -1.1804 -1.3612 -0.4042
  168SOPE   H3S18923   0.801   5.687   7.027  0.2047  0.0292 -0.6172
  168SOPE   C2418924   0.886   5.871   7.113  0.1805 -0.2430 -0.3035
  168SOPE   H4R18925   0.978   5.932   7.105  0.6975 -0.4897  2.5845
  168SOPE   H4S18926   0.803   5.943   7.103  0.7765  0.7630  1.6165
  168SOPE   C2518927   0.881   5.799   7.250 -0.3529  0.8485  0.5292
  168SOPE   H5R18928   0.793   5.734   7.267  0.8415 -1.1922 -0.7757
  168SOPE   H5S18929   0.965   5.727   7.240 -2.0906 -1.1935 -0.1875
  168SOPE   C2618930   0.897   5.890   7.369 -0.3614  0.1806 -0.0464
  168SOPE   H6R18931   0.997   5.938   7.363 -1.1826  1.9244 -0.3676
  168SOPE   H6S18932   0.831   5.978   7.351 -0.2918  0.3143  0.3642
  168SOPE   C2718933   0.870   5.829   7.508 -0.8042  1.0057 -0.0922
  168SOPE   H7R18934   0.781   5.763   7.497  0.3735 -0.7076  0.4361
  168SOPE   H7S18935   0.944   5.755   7.544  0.6809  1.5249 -1.9520
  168SOPE   C2818936   0.844   5.929   7.616  0.3878  0.3996  0.1271
  168SOPE   H8R18937   0.924   6.005   7.609  1.0327 -0.2308  0.4469
  168SOPE   H8S18938   0.741   5.967   7.602 -0.5802 -2.4155 -1.2167
  168SOPE   C2918939   0.849   5.863   7.753  0.4465 -0.6875  0.7326
  168SOPE   H9118940   0.949   5.857   7.798  0.0635 -3.5385  1.4374
  168SOPE  C21018941   0.752   5.810   7.829  0.4195 -0.7025 -0.1066
  168SOPE  H10118942   0.773   5.765   7.927  1.1396  0.7192  0.4189
  168SOPE  C21118943   0.605   5.798   7.796 -0.1646  0.7622  0.8353
  168SOPE  H11R18944   0.583   5.689   7.797 -2.1345  1.0712 -1.4184
  168SOPE  H11S18945   0.582   5.829   7.692  1.6057  2.0145  0.7654
  168SOPE  C21218946   0.517   5.886   7.890 -0.6505 -0.7785  0.0070
  168SOPE  H12R18947   0.425   5.897   7.829 -0.4352  1.6507  0.0247
  168SOPE  H12S18948   0.548   5.991   7.909  0.4178 -1.2974  1.3929
  168SOPE  C21318949   0.486   5.822   8.024  0.3189  0.7791  0.5574
  168SOPE  H13R18950   0.573   5.777   8.075  0.9883  4.1230  2.6569
  168SOPE  H13S18951   0.418   5.737   8.002 -0.0023  1.1259  0.1845
  168SOPE  C21418952   0.411   5.911   8.120 -0.4599  0.0457  0.6665
  168SOPE  H14R18953   0.312   5.942   8.080  0.0915  1.0122  0.0058
  168SOPE  H14S18954   0.479   5.998   8.135 -0.2544  0.5590 -2.5488
  168SOPE  C21518955   0.375   5.841   8.252 -0.4204 -0.1112  0.1205
  168SOPE  H15R18956   0.320   5.746   8.234  0.0157 -0.7585  1.9645
  168SOPE  H15S18957   0.301   5.908   8.301  0.1051  0.7851 -0.2714
  168SOPE  C21618958   0.492   5.803   8.341  0.0800  0.0490  0.3755
  168SOPE  H16R18959   0.540   5.897   8.376 -0.9133  0.4575  0.7105
  168SOPE  H16S18960   0.560   5.753   8.270 -1.7466 -0.4916 -1.0863
  168SOPE  C21718961   0.453   5.711   8.460  0.2020 -0.7767 -0.1468
  168SOPE  H17R18962   0.419   5.613   8.421 -1.3763 -0.6652  0.8394
  168SOPE  H17S18963   0.367   5.759   8.513  0.6919  1.2655 -1.1050
  168SOPE  C21818964   0.565   5.680   8.568 -0.1686 -0.0118  0.1747
  168SOPE  H18R18965   0.650   5.636   8.512  0.1111  0.9516 -0.1751
  168SOPE  H18S18966   0.528   5.601   8.637 -0.6523 -0.9512 -1.1037
  168SOPE  H18T18967   0.601   5.774   8.615 -0.0996 -0.1298  0.3583
  168SOPE   C3318968   1.254   5.479   6.804  0.5669  0.1499 -0.3752
  168SOPE   H3X18969   1.273   5.587   6.785  0.4107  0.0792 -0.9554
  168SOPE   H3Y18970   1.337   5.425   6.855 -0.4196 -2.7310 -1.6061
  168SOPE   C3418971   1.130   5.457   6.887  0.3330  0.2410  0.2449
  168SOPE   H4X18972   1.083   5.362   6.854 -0.6004  0.8148 -0.1210
  168SOPE   H4Y18973   1.050   5.530   6.862  1.7413  1.5846 -0.4924
  168SOPE   C3518974   1.162   5.479   7.037  0.2717 -0.0794  0.1201
  168SOPE   H5X18975   1.193   5.583   7.059  2.7170 -1.1014  2.1207
  168SOPE   H5Y18976   1.251   5.420   7.069  0.2488 -0.5698 -0.6781
  168SOPE   C3618977   1.050   5.441   7.127 -0.3001 -0.2579  0.1070
  168SOPE   H6X18978   1.012   5.339   7.106  1.1629 -0.7244 -0.3801
  168SOPE   H6Y18979   0.969   5.516   7.119  0.7385  0.6450 -3.9873
  168SOPE   C3718980   1.094   5.446   7.277 -0.5496  0.1264 -0.2857
  168SOPE   H7X18981   1.131   5.549   7.290 -1.1997  0.0834  2.7801
  168SOPE   H7Y18982   1.181   5.380   7.296  1.8080  2.5377 -2.0599
  168SOPE   C3818983   0.986   5.437   7.389  0.4518 -0.2746  0.3071
  168SOPE   H8X18984   0.938   5.336   7.387  1.9747 -1.0629  1.5026
  168SOPE   H8Y18985   0.903   5.511   7.391 -1.8691 -2.7270  1.5821
  168SOPE   C3918986   1.047   5.449   7.530  0.0212  0.2540  0.0953
  168SOPE   H9X18987   1.102   5.543   7.553 -0.0223  0.5670 -1.0097
  168SOPE   H9Y18988   1.115   5.362   7.540  1.2865  1.2268  0.0762
  168SOPE  C31018989   0.941   5.433   7.643  0.5800  0.6294 -0.2064
  168SOPE  H10X18990   0.885   5.340   7.620  2.3458 -0.3800 -0.6016
  168SOPE  H10Y18991   0.878   5.524   7.648 -0.8259 -0.3215 -0.1951
  168SOPE  C31118992   1.024   5.415   7.768  0.3148  0.2069  0.1704
  168SOPE  H11X18993   1.057   5.515   7.802  1.9749  0.1552 -1.1193
  168SOPE  H11Y18994   1.121   5.366   7.744 -0.0719  0.7724 -2.9745
  168SOPE  C31218995   0.942   5.347   7.881  0.4679 -0.0236  0.1503
  168SOPE  H12X18996   0.943   5.239   7.856  0.1868 -0.3109  1.3376
  168SOPE  H12Y18997   0.838   5.384   7.868  0.7902  0.5784 -0.8466
  168SOPE  C31318998   0.999   5.381   8.019 -0.2134 -0.2973  0.7162
  168SOPE  H13X18999   0.974   5.488   8.035  0.1841  0.0146 -0.6368
  168SOPE  H13Y19000   1.108   5.365   8.001 -0.3808 -0.8543  0.1216
  168SOPE  C31419001   0.946   5.294   8.132 -0.5071 -0.4363  0.0708
  168SOPE  H14X19002   0.835   5.285   8.127 -0.6447  0.9192  0.2835
  168SOPE  H14Y19003   0.961   5.359   8.221 -1.4880 -0.8984  0.6023
  168SOPE  C31519004   1.019   5.159   8.160  0.9696  1.2254 -1.2967
  168SOPE  H15X19005   1.130   5.167   8.163  1.3515 -2.3874 -0.8571
  168SOPE  H15Y19006   1.000   5.086   8.078  1.8588  0.0949 -0.5290
  168SOPE  C31619007   0.969   5.094   8.288  0.4031  0.2149 -0.8221
  168SOPE  H16X19008   0.858   5.095   8.296  0.3085 -1.7838 -1.3260
  168SOPE  H16Y19009   1.006   5.164   8.366  3.1092 -1.2042 -0.7140
  168SOPE  C31719010   1.010   4.951   8.316 -0.6485 -0.1438  0.0925
  168SOPE  H17X19011   1.031   4.932   8.424  0.7732 -2.1669 -0.4877
  168SOPE  H17Y19012   1.099   4.933   8.253 -0.5166 -0.3503  0.3351
  168SOPE  C31819013   0.896   4.865   8.267  0.0144  0.5335  0.0819
  168SOPE  H18X19014   0.928   4.758   8.266  1.4343  0.8657  2.5716
  168SOPE  H18Y19015   0.866   4.892   8.163 -0.8592 -1.4210 -0.2129
  168SOPE  H18Z19016   0.804   4.879   8.327  1.8172  1.0043  2.9207
  169SOPE     N19017   3.086   1.603   6.116  0.4670 -0.3165  0.0296
  169SOPE   HN119018   2.997   1.549   6.108  0.6542 -0.4930 -1.0780
  169SOPE   HN219019   3.161   1.566   6.177 -1.3304  3.2368  5.0360
  169SOPE   HN319020   3.069   1.692   6.166  0.5190  0.0889 -0.6722
  169SOPE   C1219021   3.131   1.610   5.978 -0.0191  0.1209  0.4176
  169SOPE  H12A19022   3.203   1.694   5.974  2.2257 -1.7064  0.7737
  169SOPE  H12B19023   3.052   1.643   5.907  2.4342  1.2607 -1.9839
  169SOPE   C1119024   3.199   1.483   5.930  0.1308  0.4432 -0.0352
  169SOPE  H11A19025   3.225   1.484   5.822  1.6066  0.4267  0.2965
  169SOPE  H11B19026   3.130   1.398   5.949  0.4592  0.4431  1.2592
  169SOPE     P19027   3.400   1.319   6.000  0.1199  0.2025 -0.4163
  169SOPE   O1319028   3.535   1.362   6.034 -0.0146 -0.4807  0.1192
  169SOPE   O1419029   3.382   1.244   5.874 -0.2654 -0.6456  0.0413
  169SOPE   O1219030   3.311   1.448   6.006  0.3004 -0.2909  0.2014
  169SOPE   O1119031   3.347   1.227   6.117 -0.4557  0.5583 -0.4416
  169SOPE    C119032   3.215   1.247   6.177 -0.7603 -0.1092 -0.0261
  169SOPE    HA19033   3.137   1.235   6.099  0.4107  2.8602 -1.8167
  169SOPE    HB19034   3.210   1.351   6.215 -3.1962  0.1513 -0.9319
  169SOPE    C219035   3.196   1.148   6.289  0.1426 -0.8263 -0.6491
  169SOPE    HS19036   3.117   1.194   6.352  3.2917  2.7463  1.0622
  169SOPE   O2119037   3.309   1.125   6.376  0.0051 -0.1953  0.2030
  169SOPE   C2119038   3.362   1.230   6.426 -0.4241 -0.1368  0.1905
  169SOPE   O2219039   3.320   1.343   6.419  0.2495  0.4614  0.1432
  169SOPE   C2219040   3.478   1.195   6.521 -0.0077 -0.6837  0.0197
  169SOPE   H2R19041   3.571   1.173   6.464  0.6883  1.6121  0.1581
  169SOPE   H2S19042   3.451   1.107   6.582 -0.0581 -0.1266  0.8098
  169SOPE    C319043   3.148   1.015   6.237  0.0874  0.0207  0.1303
  169SOPE    HX19044   3.208   0.986   6.148 -0.3921 -1.5340  0.2758
  169SOPE    HY19045   3.043   1.029   6.204  0.7186  0.5770 -1.8044
  169SOPE   O3119046   3.148   0.916   6.342 -0.1284 -0.5253  0.4739
  169SOPE   C3119047   3.261   0.843   6.350  0.1804  0.1659  0.1286
  169SOPE   O3219048   3.354   0.845   6.272 -0.4433  0.0453  0.9839
  169SOPE   C3219049   3.268   0.769   6.482 -0.0784 -0.6742 -0.5350
  169SOPE   H2X19050   3.200   0.682   6.471  0.8543 -1.4963  0.0718
  169SOPE   H2Y19051   3.237   0.840   6.562  0.8092 -0.0740 -0.6997
  169SOPE   C2319052   3.506   1.311   6.621 -0.2465  0.1034 -0.7040
  169SOPE   H3R19053   3.425   1.345   6.690  1.7096  2.0767  0.7764
  169SOPE   H3S19054   3.528   1.399   6.558 -1.5988  0.0552 -1.2823
  169SOPE   C2419055   3.633   1.288   6.710 -0.4190  0.4125  0.6991
  169SOPE   H4R19056   3.727   1.274   6.653 -1.4094 -1.6806 -0.5216
  169SOPE   H4S19057   3.636   1.369   6.786 -3.7781  0.1508  1.2677
  169SOPE   C2519058   3.602   1.165   6.794 -0.0459  0.7544 -0.2936
  169SOPE   H5R19059   3.517   1.190   6.862 -0.2054  2.1634 -0.9747
  169SOPE   H5S19060   3.584   1.072   6.735  1.2950  0.1508  0.2147
  169SOPE   C2619061   3.709   1.125   6.901 -0.0668  0.5639  0.0713
  169SOPE   H6R19062   3.679   1.032   6.955  1.1578 -0.2959 -0.6919
  169SOPE   H6S19063   3.795   1.093   6.839 -0.7502 -0.7903 -0.2039
  169SOPE   C2719064   3.754   1.241   6.995 -0.2025  0.9648 -0.0798
  169SOPE   H7R19065   3.799   1.323   6.935 -2.5842  1.3670 -1.4624
  169SOPE   H7S19066   3.666   1.286   7.045 -0.3710  2.5872 -1.7145
  169SOPE   C2819067   3.849   1.198   7.104  0.0081  0.0360  0.4527
  169SOPE   H8R19068   3.945   1.154   7.070  1.2952  2.5686  0.5206
  169SOPE   H8S19069   3.904   1.292   7.129  1.8368  0.1357 -3.3328
  169SOPE   C2919070   3.798   1.119   7.220  0.2185 -0.2333 -0.2686
  169SOPE   H9119071   3.772   1.016   7.191  4.3978 -0.8726 -2.5119
  169SOPE  C21019072   3.776   1.158   7.344 -0.2455  0.0169 -0.2054
  169SOPE  H10119073   3.730   1.084   7.411  1.8710 -0.5707  0.6623
  169SOPE  C21119074   3.799   1.288   7.406  0.1974  0.3573 -0.1361
  169SOPE  H11R19075   3.713   1.329   7.463  0.1041  0.7401 -0.5379
  169SOPE  H11S19076   3.819   1.364   7.327  0.9825 -0.7660 -1.0484
  169SOPE  C21219077   3.920   1.287   7.504 -0.1913  0.4954 -0.1500
  169SOPE  H12R19078   3.958   1.390   7.524 -1.0549  0.9687 -0.8607
  169SOPE  H12S19079   4.003   1.231   7.457  0.3954 -0.1473  1.5582
  169SOPE  C21319080   3.886   1.233   7.639  0.4559  0.2759 -0.2444
  169SOPE  H13R19081   3.868   1.123   7.637  1.4759  0.0259  1.6579
  169SOPE  H13S19082   3.793   1.285   7.670  1.0231  0.1555  1.8399
  169SOPE  C21419083   3.998   1.265   7.740 -0.1247  0.9704 -0.2337
  169SOPE  H14R19084   4.019   1.374   7.731  1.0426  0.6438 -2.1274
  169SOPE  H14S19085   4.086   1.209   7.704 -0.5629  0.6875 -0.9024
  169SOPE  C21519086   3.983   1.235   7.892  0.1170  0.0963 -0.5699
  169SOPE  H15R19087   3.896   1.294   7.926  1.1393 -0.2222  2.9802
  169SOPE  H15S19088   4.060   1.279   7.959 -0.1770 -1.1659  0.6315
  169SOPE  C21619089   3.968   1.083   7.926 -0.1389 -0.0083  0.1349
  169SOPE  H16R19090   3.889   1.040   7.860  0.6547 -0.9179 -0.2373
  169SOPE  H16S19091   3.931   1.079   8.031 -0.3255  0.8983  0.1129
  169SOPE  C21719092   4.102   1.014   7.914  0.0374  0.4410  0.3658
  169SOPE  H17R19093   4.173   1.066   7.981 -0.2660 -0.3565  1.3264
  169SOPE  H17S19094   4.134   1.030   7.809  0.0522 -0.8257  0.1622
  169SOPE  C21819095   4.089   0.867   7.932  0.4061 -0.2030  0.6627
  169SOPE  H18R19096   3.987   0.853   7.972  0.5290  2.8220  2.2999
  169SOPE  H18S19097   4.155   0.829   8.013  1.7639 -0.2581 -0.4201
  169SOPE  H18T19098   4.116   0.810   7.840 -0.7934  1.3417 -0.6986
  169SOPE   C3319099   3.414   0.718   6.501 -0.0916  0.2440 -0.9650
  169SOPE   H3X19100   3.485   0.804   6.500  1.3644 -0.8910 -3.3083
  169SOPE   H3Y19101   3.429   0.649   6.415 -2.0348 -0.4819 -0.7783
  169SOPE   C3419102   3.420   0.642   6.636 -0.0549  0.5180 -0.2304
  169SOPE   H4X19103   3.512   0.581   6.634  0.8181  1.7977 -2.4740
  169SOPE   H4Y19104   3.331   0.578   6.654  2.0530 -2.0639  1.7859
  169SOPE   C3519105   3.441   0.730   6.757  0.1494 -0.9098  0.3425
  169SOPE   H5X19106   3.356   0.800   6.753  1.2976  0.4730 -2.5322
  169SOPE   H5Y19107   3.527   0.792   6.725 -1.3038 -1.0519 -4.6411
  169SOPE   C3619108   3.468   0.661   6.889 -0.2990  0.8715 -0.4331
  169SOPE   H6X19109   3.558   0.596   6.886 -0.2513  0.9105  0.0690
  169SOPE   H6Y19110   3.380   0.597   6.912 -0.0487 -0.2114 -2.2326
  169SOPE   C3719111   3.499   0.758   6.999 -0.2533  0.1663 -0.1091
  169SOPE   H7X19112   3.423   0.840   6.997 -0.7104 -0.2471  0.0270
  169SOPE   H7Y19113   3.592   0.814   6.975 -0.9464  0.8503 -1.3895
  169SOPE   C3819114   3.508   0.695   7.147  0.2123  0.8100  0.4618
  169SOPE   H8X19115   3.597   0.630   7.161 -2.1370 -2.3250  2.0547
  169SOPE   H8Y19116   3.510   0.781   7.216 -1.5602  0.3680  1.1152
  169SOPE   C3919117   3.385   0.607   7.187  0.4821  0.0062  0.0111
  169SOPE   H9X19118   3.391   0.515   7.125 -0.4942  0.1403 -0.2870
  169SOPE   H9Y19119   3.294   0.653   7.143 -0.7136 -1.8966  0.3953
  169SOPE  C31019120   3.378   0.577   7.334  0.9426  0.3541  0.6875
  169SOPE  H10X19121   3.330   0.665   7.382  0.3722  0.7297 -0.5411
  169SOPE  H10Y19122   3.479   0.556   7.376  1.4071 -1.1881 -1.0451
  169SOPE  C31119123   3.296   0.453   7.372  0.1428 -0.2760 -0.3615
  169SOPE  H11X19124   3.361   0.362   7.369  0.6508  0.1014 -1.3206
  169SOPE  H11Y19125   3.219   0.424   7.298 -0.4682 -0.7553  0.4490
  169SOPE  C31219126   3.225   0.475   7.508  0.1157 -0.8256 -0.7236
  169SOPE  H12X19127   3.302   0.519   7.575 -1.8301 -0.6711  1.5065
  169SOPE  H12Y19128   3.194   0.377   7.549  0.5142 -0.5558  0.2440
  169SOPE  C31319129   3.089   0.556   7.477  0.1039  0.3140  0.7949
  169SOPE  H13X19130   3.026   0.502   7.403 -2.1455  3.2706  0.3609
  169SOPE  H13Y19131   3.110   0.655   7.431 -1.9172 -0.1623 -1.3847
  169SOPE  C31419132   3.009   0.583   7.602  0.5248  0.1198  0.4230
  169SOPE  H14X19133   2.979   0.486   7.647  0.3327 -0.1235 -0.2214
  169SOPE  H14Y19134   2.916   0.642   7.589  0.7008  0.4471  0.6277
  169SOPE  C31519135   3.086   0.657   7.715  0.1758  0.4005 -0.3949
  169SOPE  H15X19136   3.121   0.755   7.674  0.4812  0.0837 -0.8977
  169SOPE  H15Y19137   3.178   0.605   7.751 -0.7070 -0.7607  0.2314
  169SOPE  C31619138   2.998   0.697   7.832  0.0653 -0.3165 -0.7275
  169SOPE  H16X19139   2.952   0.613   7.888 -0.8315  1.2017  0.9301
  169SOPE  H16Y19140   2.910   0.753   7.793  0.4488  0.5250 -0.4222
  169SOPE  C31719141   3.075   0.790   7.943  0.2821 -0.2679 -0.0230
  169SOPE  H17X19142   2.999   0.825   8.015  0.5304 -1.8910  1.0772
  169SOPE  H17Y19143   3.115   0.875   7.884  1.3256 -0.4226  0.4304
  169SOPE  C31819144   3.196   0.734   8.018 -0.0751 -0.1589 -0.7365
  169SOPE  H18X19145   3.171   0.629   8.046 -1.0622  0.6807  1.8379
  169SOPE  H18Y19146   3.236   0.781   8.111  1.1863 -2.1210 -0.2196
  169SOPE  H18Z19147   3.291   0.728   7.960  1.3119  1.7025  1.1581
  170SOPE     N19148   4.142   5.883   6.257 -0.4295 -0.8270  0.8731
  170SOPE   HN119149   4.234   5.834   6.249 -0.8528 -1.7473  1.5233
  170SOPE   HN219150   4.081   5.856   6.178 -0.4931 -1.3611  1.1005
  170SOPE   HN319151   4.168   5.984   6.257  1.4940 -1.2100 -2.0651
  170SOPE   C1219152   4.065   5.847   6.380 -0.4101 -0.4201  0.6842
  170SOPE  H12A19153   3.960   5.873   6.354 -0.0408 -0.2846 -0.7771
  170SOPE  H12B19154   4.103   5.918   6.457  0.1385  0.5563 -0.4504
  170SOPE   C1119155   4.087   5.701   6.413  0.6608  0.9708  0.1707
  170SOPE  H11A19156   4.027   5.668   6.501  1.3527  0.6383  0.5292
  170SOPE  H11B19157   4.190   5.676   6.444 -0.6222 -2.2968  2.4532
  170SOPE     P19158   4.139   5.545   6.207  0.6363  0.2368  0.1396
  170SOPE   O1319159   4.225   5.650   6.141  0.0936  0.2228 -0.0840
  170SOPE   O1419160   4.064   5.453   6.115  0.5365  0.0735  0.2643
  170SOPE   O1219161   4.037   5.612   6.308 -0.2337  0.4553 -0.2630
  170SOPE   O1119162   4.228   5.456   6.299 -0.2110  0.0548  0.0570
  170SOPE    C119163   4.166   5.363   6.394  0.2570  0.1930 -0.3297
  170SOPE    HA19164   4.099   5.288   6.347 -0.6343  0.1918  0.8902
  170SOPE    HB19165   4.101   5.416   6.468 -2.1384 -0.0435 -2.1457
  170SOPE    C219166   4.281   5.290   6.472  0.6474 -0.3109 -0.6383
  170SOPE    HS19167   4.352   5.231   6.410  0.3317 -1.0226 -0.3364
  170SOPE   O2119168   4.207   5.201   6.564  0.2233 -0.1116  0.0249
  170SOPE   C2119169   4.191   5.082   6.507 -0.4356  0.6900  0.3463
  170SOPE   O2219170   4.228   5.050   6.395 -0.1234 -0.4923 -0.3356
  170SOPE   C2219171   4.120   4.998   6.609 -0.5509  0.4138 -0.0560
  170SOPE   H2R19172   4.014   4.979   6.581 -0.5043  0.8620 -0.5605
  170SOPE   H2S19173   4.111   5.043   6.710  1.6183 -0.6856  0.6881
  170SOPE    C319174   4.359   5.390   6.551  0.1908  0.5481  0.2277
  170SOPE    HX19175   4.411   5.468   6.493  0.8597  0.8451  1.1979
  170SOPE    HY19176   4.442   5.337   6.603  0.2819  2.4397  2.1486
  170SOPE   O3119177   4.285   5.449   6.657  0.2533  0.3547 -0.3305
  170SOPE   C3119178   4.355   5.532   6.741  0.8535 -0.0218 -0.6448
  170SOPE   O3219179   4.468   5.565   6.717 -0.0889  0.0647 -0.1967
  170SOPE   C3219180   4.269   5.558   6.861 -0.0150 -0.6238  0.0525
  170SOPE   H2X19181   4.182   5.489   6.856  0.9416 -1.8896  0.3638
  170SOPE   H2Y19182   4.232   5.662   6.851 -1.9381 -1.2275  0.4832
  170SOPE   C2319183   4.171   4.849   6.616  0.1415 -0.6629 -0.4825
  170SOPE   H3R19184   4.265   4.845   6.675 -0.0995  1.9813  0.2243
  170SOPE   H3S19185   4.190   4.812   6.513 -0.2606  0.6353 -1.0483
  170SOPE   C2419186   4.070   4.738   6.663 -0.7017  0.0143  0.5680
  170SOPE   H4R19187   3.973   4.740   6.608  0.3658 -1.3158 -1.4935
  170SOPE   H4S19188   4.110   4.636   6.648 -0.9664 -0.1384  0.8819
  170SOPE   C2519189   4.051   4.757   6.813 -0.2900  0.4140 -0.3558
  170SOPE   H5R19190   4.052   4.865   6.838  1.1975  0.1920  0.7240
  170SOPE   H5S19191   3.958   4.714   6.854 -0.0397  0.2977  0.0999
  170SOPE   C2619192   4.155   4.670   6.892 -0.4012 -0.2894  0.0085
  170SOPE   H6R19193   4.138   4.562   6.877 -1.2305 -0.0554 -0.8227
  170SOPE   H6S19194   4.255   4.679   6.843 -0.8837  1.4535 -0.7320
  170SOPE   C2719195   4.177   4.715   7.031  0.0599 -0.6536 -0.3028
  170SOPE   H7R19196   4.264   4.656   7.067  0.5667  0.7792  0.8880
  170SOPE   H7S19197   4.204   4.822   7.031 -0.8417 -0.4149  0.3810
  170SOPE   C2819198   4.071   4.687   7.139 -0.1278 -0.5002 -0.7425
  170SOPE   H8R19199   3.972   4.716   7.097 -0.5023 -0.5124  0.1196
  170SOPE   H8S19200   4.059   4.576   7.138  0.0607 -0.5213 -1.0272
  170SOPE   C2919201   4.084   4.755   7.277  0.7517 -0.5842  0.3654
  170SOPE   H9119202   4.096   4.864   7.268 -0.8603 -0.5091 -1.6268
  170SOPE  C21019203   4.075   4.701   7.402  0.2454  0.2190  0.1726
  170SOPE  H10119204   4.077   4.772   7.486  0.7183 -1.6382  1.8375
  170SOPE  C21119205   4.050   4.554   7.427  0.0638 -0.1443 -0.0259
  170SOPE  H11R19206   4.127   4.511   7.495 -0.8343 -0.3743  0.8648
  170SOPE  H11S19207   4.050   4.495   7.334  2.2715 -0.5074  0.1464
  170SOPE  C21219208   3.927   4.519   7.512 -0.9242 -0.3719 -0.4871
  170SOPE  H12R19209   3.921   4.409   7.530  0.2340 -0.8116 -2.4765
  170SOPE  H12S19210   3.829   4.538   7.464 -1.7892 -0.1699  1.2555
  170SOPE  C21319211   3.927   4.588   7.652  0.5014  0.1778 -0.3247
  170SOPE  H13R19212   3.833   4.556   7.702  0.3763 -2.2253 -1.9345
  170SOPE  H13S19213   3.931   4.699   7.641 -0.5330  0.1478 -1.1378
  170SOPE  C21419214   4.037   4.547   7.749  0.3548  0.5208  0.2810
  170SOPE  H14R19215   4.029   4.610   7.840  0.4488 -0.0894  0.7162
  170SOPE  H14S19216   4.138   4.562   7.706  1.7977 -2.5695  2.2584
  170SOPE  C21519217   4.017   4.399   7.792 -1.1522 -0.6336  0.2142
  170SOPE  H15R19218   4.120   4.365   7.817 -1.0619  0.2759  1.1339
  170SOPE  H15S19219   3.971   4.344   7.707  0.2804 -0.6999 -0.5488
  170SOPE  C21619220   3.935   4.383   7.920 -1.2390 -0.0820 -0.1969
  170SOPE  H16R19221   3.858   4.303   7.920  0.3093 -1.6489  1.1384
  170SOPE  H16S19222   3.882   4.481   7.922  3.8145  3.0639 -1.8478
  170SOPE  C21719223   4.031   4.381   8.042  0.9781  0.2857  0.2083
  170SOPE  H17R19224   4.092   4.473   8.026 -0.1118  0.5342 -3.5024
  170SOPE  H17S19225   4.102   4.297   8.032  1.9089  1.0887 -0.0957
  170SOPE  C21819226   3.964   4.384   8.177  0.9668 -0.4089 -0.1302
  170SOPE  H18R19227   3.905   4.478   8.182 -0.5435 -1.2695 -0.9762
  170SOPE  H18S19228   4.044   4.382   8.254 -0.2590 -0.9617  1.1405
  170SOPE  H18T19229   3.886   4.307   8.189 -0.9178  1.5594  0.9250
  170SOPE   C3319230   4.349   5.545   6.989  0.8756 -0.3310 -0.3234
  170SOPE   H3X19231   4.449   5.594   6.994  0.7876 -0.2422  0.7589
  170SOPE   H3Y19232   4.353   5.435   7.008 -3.3962 -0.6179 -0.1751
  170SOPE   C3419233   4.265   5.597   7.108 -0.3440  0.7036  0.1910
  170SOPE   H4X19234   4.159   5.563   7.109 -0.3652  0.6787  2.3606
  170SOPE   H4Y19235   4.260   5.708   7.095 -1.0466  0.8079  1.2079
  170SOPE   C3519236   4.342   5.566   7.239 -0.1978 -0.6623  0.1230
  170SOPE   H5X19237   4.436   5.624   7.237  0.1367 -1.1341  1.1026
  170SOPE   H5Y19238   4.374   5.459   7.234 -1.0656 -0.8594 -2.2293
  170SOPE   C3619239   4.263   5.602   7.364  0.1444 -0.4432  0.2016
  170SOPE   H6X19240   4.176   5.532   7.364  0.4612 -0.8463  0.4412
  170SOPE   H6Y19241   4.223   5.705   7.359  0.1825 -0.3927  0.8602
  170SOPE   C3719242   4.341   5.578   7.490 -0.5096 -0.9263 -0.0991
  170SOPE   H7X19243   4.418   5.658   7.492 -1.0059 -0.4330 -0.2179
  170SOPE   H7Y19244   4.390   5.479   7.482 -1.3401 -1.4289  0.7059
  170SOPE   C3819245   4.265   5.584   7.622  0.1911 -0.1083 -0.5311
  170SOPE   H8X19246   4.184   5.508   7.618 -2.3479  2.3573  0.6497
  170SOPE   H8Y19247   4.216   5.683   7.629 -1.8154 -0.8877 -2.2000
  170SOPE   C3919248   4.357   5.562   7.741  0.1022  0.3577 -1.6432
  170SOPE   H9X19249   4.419   5.654   7.744 -0.8690  1.0273 -1.9224
  170SOPE   H9Y19250   4.423   5.473   7.731 -2.0734 -1.1987 -2.8141
  170SOPE  C31019251   4.283   5.559   7.869 -0.0136 -0.0224 -0.2822
  170SOPE  H10X19252   4.225   5.465   7.883 -0.3316  0.0907 -0.8369
  170SOPE  H10Y19253   4.210   5.642   7.860  0.1867  0.1553 -0.2638
  170SOPE  C31119254   4.377   5.570   7.994  0.1205 -1.0255 -0.2400
  170SOPE  H11X19255   4.442   5.660   7.995  1.2877 -1.7860  2.5270
  170SOPE  H11Y19256   4.443   5.480   7.997  0.8706 -0.4940 -0.5420
  170SOPE  C31219257   4.303   5.583   8.129  0.2604 -0.4904 -0.4636
  170SOPE  H12X19258   4.234   5.498   8.150 -0.4868  0.3665  0.6332
  170SOPE  H12Y19259   4.230   5.665   8.111  0.6153 -0.2072 -0.6425
  170SOPE  C31319260   4.395   5.603   8.252  0.3574  0.2640  0.4449
  170SOPE  H13X19261   4.492   5.551   8.240  0.1783  0.4749 -2.6174
  170SOPE  H13Y19262   4.351   5.555   8.342  0.1900  1.5378  1.0638
  170SOPE  C31419263   4.436   5.753   8.267 -0.5597  0.5931  0.0942
  170SOPE  H14X19264   4.343   5.813   8.273 -0.2338  1.5605 -2.7748
  170SOPE  H14Y19265   4.482   5.794   8.174  0.9466 -2.3525 -0.5861
  170SOPE  C31519266   4.528   5.778   8.389 -0.2049  0.0447  0.5750
  170SOPE  H15X19267   4.623   5.721   8.382  0.5693  1.0657  2.0278
  170SOPE  H15Y19268   4.468   5.759   8.481  1.7795 -0.2724  1.8840
  170SOPE  C31619269   4.558   5.925   8.398 -0.8060 -0.0570  0.2557
  170SOPE  H16X19270   4.470   5.993   8.398 -0.7213  0.0566  0.6334
  170SOPE  H16Y19271   4.630   5.958   8.321 -0.2484  1.4593  1.3637
  170SOPE  C31719272   4.618   5.953   8.543  0.3183  0.1305  0.5566
  170SOPE  H17X19273   4.701   5.880   8.552  0.5579  0.2898 -0.2512
  170SOPE  H17Y19274   4.542   5.925   8.619 -1.6948  2.1434 -0.6092
  170SOPE  C31819275   4.663   6.093   8.570  0.2051 -0.0172  0.2967
  170SOPE  H18X19276   4.716   6.089   8.668  0.3635 -2.3573  0.1609
  170SOPE  H18Y19277   4.590   6.176   8.566  0.6963  0.4415  0.6803
  170SOPE  H18Z19278   4.737   6.116   8.490 -0.6201 -2.2714 -1.1853
  171SOPE     N19279   4.140   2.328   6.434  0.1053  0.4115 -0.0828
  171SOPE   HN119280   4.222   2.384   6.402  0.8166  1.0009  2.5126
  171SOPE   HN219281   4.060   2.338   6.368  0.4522  1.2071 -0.3979
  171SOPE   HN319282   4.110   2.369   6.525 -1.9282  1.3808 -1.1232
  171SOPE   C1219283   4.197   2.196   6.464  0.1046  0.8412 -0.1704
  171SOPE  H12A19284   4.230   2.148   6.369  0.3956 -0.0739  0.3709
  171SOPE  H12B19285   4.115   2.136   6.509  2.0131 -1.3881  0.6052
  171SOPE   C1119286   4.321   2.221   6.544 -0.3904  0.0987 -0.0527
  171SOPE  H11A19287   4.355   2.123   6.585 -1.3160 -0.2711 -0.1267
  171SOPE  H11B19288   4.301   2.286   6.632 -0.7792  1.0170 -0.8033
  171SOPE     P19289   4.569   2.230   6.467 -0.1337  0.0341 -0.0208
  171SOPE   O1319290   4.650   2.324   6.391  0.2356 -0.0878 -0.4160
  171SOPE   O1419291   4.574   2.088   6.420  0.4742 -0.0539 -0.2976
  171SOPE   O1219292   4.415   2.280   6.461  0.3728  0.1169  0.4715
  171SOPE   O1119293   4.601   2.235   6.621 -0.2392 -0.1762  0.2707
  171SOPE    C119294   4.633   2.366   6.674  0.3327 -0.4719 -0.2635
  171SOPE    HA19295   4.548   2.437   6.658 -0.8711 -1.6165  0.7923
  171SOPE    HB19296   4.718   2.415   6.622  0.9646 -0.6997  0.5278
  171SOPE    C219297   4.655   2.358   6.826  0.8358  0.2535 -0.4580
  171SOPE    HS19298   4.692   2.453   6.870 -0.5761 -0.7780  3.3419
  171SOPE   O2119299   4.745   2.249   6.854 -0.3560  0.1704  0.1005
  171SOPE   C2119300   4.865   2.267   6.807  0.0019 -1.1095 -0.0556
  171SOPE   O2219301   4.911   2.375   6.768  0.4063 -0.0145  0.7180
  171SOPE   C2219302   4.951   2.141   6.820  0.2898  0.2483  0.3985
  171SOPE   H2R19303   5.054   2.160   6.785 -0.4076  0.7451 -1.4925
  171SOPE   H2S19304   4.898   2.067   6.756 -0.0134  0.4941  0.3625
  171SOPE    C319305   4.506   2.330   6.881 -0.1833 -0.8401  0.3322
  171SOPE    HX19306   4.461   2.233   6.852 -1.8885  0.3867 -1.4313
  171SOPE    HY19307   4.443   2.407   6.831 -0.9684 -2.2757 -0.9765
  171SOPE   O3119308   4.497   2.361   7.018 -0.6959 -0.7993 -0.6422
  171SOPE   C3119309   4.384   2.325   7.083 -0.0033  0.3576  0.3931
  171SOPE   O3219310   4.293   2.281   7.019  0.0113 -0.2501 -0.0127
  171SOPE   C3219311   4.383   2.349   7.234  0.5429 -0.1772  0.2410
  171SOPE   H2X19312   4.451   2.434   7.257 -0.7470  1.3169 -1.2603
  171SOPE   H2Y19313   4.421   2.254   7.280  1.6984  0.1025 -0.0956
  171SOPE   C2319314   4.957   2.093   6.971 -0.6565 -0.5528  0.4011
  171SOPE   H3R19315   5.023   2.004   6.972 -0.7941 -0.6743 -0.5445
  171SOPE   H3S19316   4.853   2.075   7.006 -0.5482 -0.0849  0.9866
  171SOPE   C2419317   5.038   2.183   7.067 -0.3123 -0.2592 -0.4936
  171SOPE   H4R19318   5.148   2.172   7.052  0.2246  2.3942  0.9359
  171SOPE   H4S19319   5.023   2.289   7.040  1.9511 -0.1711 -1.6813
  171SOPE   C2519320   4.990   2.160   7.207 -0.5673  0.6395 -0.2646
  171SOPE   H5R19321   4.884   2.192   7.214  0.5612  4.5470  2.3832
  171SOPE   H5S19322   4.998   2.052   7.230 -1.9428  0.4090 -0.8029
  171SOPE   C2619323   5.078   2.242   7.304 -1.1573  0.1899  0.2184
  171SOPE   H6R19324   5.187   2.235   7.284 -0.8061  0.3655  1.8863
  171SOPE   H6S19325   5.061   2.351   7.291  0.9308  0.3941 -1.3333
  171SOPE   C2719326   5.053   2.210   7.456 -0.4546 -0.4604  0.1250
  171SOPE   H7R19327   4.956   2.248   7.494 -0.8258 -0.3385 -0.8951
  171SOPE   H7S19328   5.041   2.100   7.458  0.6522 -0.5836  1.7999
  171SOPE   C2819329   5.173   2.248   7.544 -0.3993  0.1581 -0.0992
  171SOPE   H8R19330   5.263   2.207   7.493 -0.5452 -0.3216  0.0268
  171SOPE   H8S19331   5.170   2.358   7.552  1.3131  0.1700  1.0433
  171SOPE   C2919332   5.164   2.188   7.681 -0.0252  0.1236 -1.0115
  171SOPE   H9119333   5.197   2.083   7.679  3.1551  1.0161 -0.8448
  171SOPE  C21019334   5.124   2.235   7.797  0.7073  0.5004 -0.5449
  171SOPE  H10119335   5.149   2.170   7.882 -0.0026  0.8504 -0.0635
  171SOPE  C21119336   5.063   2.367   7.819 -0.2052  0.3536 -0.1209
  171SOPE  H11R19337   5.014   2.399   7.724 -3.1248 -1.1798  0.7431
  171SOPE  H11S19338   5.142   2.442   7.841 -1.4292  1.1479  1.8154
  171SOPE  C21219339   4.961   2.381   7.933  0.2157 -0.3959 -0.2432
  171SOPE  H12R19340   4.983   2.305   8.011  1.2345 -1.2712 -1.3515
  171SOPE  H12S19341   4.857   2.361   7.898 -0.2217 -0.1585  0.8848
  171SOPE  C21319342   4.961   2.519   8.005 -0.3159  0.5446 -0.0667
  171SOPE  H13R19343   5.056   2.535   8.060  0.6115 -0.8345 -1.1751
  171SOPE  H13S19344   4.881   2.507   8.081  0.0616 -1.5741  0.0664
  171SOPE  C21419345   4.925   2.641   7.912 -0.4286  0.2791  0.1480
  171SOPE  H14R19346   4.856   2.604   7.833 -0.8575  1.4779 -0.0636
  171SOPE  H14S19347   5.016   2.675   7.859  0.0298  0.9117  1.2906
  171SOPE  C21519348   4.866   2.743   8.003  0.0615 -0.5029 -0.0431
  171SOPE  H15R19349   4.918   2.749   8.101  1.8600  0.7435 -1.0191
  171SOPE  H15S19350   4.767   2.702   8.036  0.3808 -0.4979  0.9724
  171SOPE  C21619351   4.841   2.880   7.936 -0.2910  0.5987 -0.2642
  171SOPE  H16R19352   4.935   2.934   7.913  0.4344 -0.0690  1.0334
  171SOPE  H16S19353   4.800   2.946   8.016  0.5918  0.7605  0.0611
  171SOPE  C21719354   4.736   2.858   7.825 -0.5820  0.3689  0.1180
  171SOPE  H17R19355   4.666   2.784   7.869 -0.1114 -2.0866 -2.8934
  171SOPE  H17S19356   4.780   2.813   7.733 -0.8877  0.3273 -0.0059
  171SOPE  C21819357   4.648   2.981   7.792  0.0165 -0.8579  0.5489
  171SOPE  H18R19358   4.706   3.055   7.733  0.7951 -1.0710  1.0320
  171SOPE  H18S19359   4.611   3.039   7.879 -0.0855  0.7961 -0.5397
  171SOPE  H18T19360   4.557   2.951   7.735 -1.8191  3.3813  0.8411
  171SOPE   C3319361   4.241   2.381   7.295 -0.2927  0.9389 -0.4470
  171SOPE   H3X19362   4.231   2.342   7.399 -0.7111  0.7880 -0.5402
  171SOPE   H3Y19363   4.163   2.318   7.246  1.2402 -0.2174 -1.4914
  171SOPE   C3419364   4.190   2.522   7.275 -0.1161 -0.1449 -0.0372
  171SOPE   H4X19365   4.139   2.550   7.180 -1.1723  0.4141  0.6844
  171SOPE   H4Y19366   4.285   2.579   7.279  0.4242 -0.9951 -0.3643
  171SOPE   C3519367   4.100   2.558   7.391 -0.8245  1.2641 -0.2019
  171SOPE   H5X19368   4.163   2.532   7.478 -0.2607 -0.4184 -1.0745
  171SOPE   H5Y19369   4.009   2.495   7.393  1.3661 -2.1417  0.9554
  171SOPE   C3619370   4.075   2.708   7.405 -0.3760  0.3325  0.1488
  171SOPE   H6X19371   3.980   2.721   7.461 -2.6337 -3.8037 -2.2474
  171SOPE   H6Y19372   4.046   2.734   7.301 -2.2310  0.2989  0.6143
  171SOPE   C3719373   4.199   2.791   7.448 -0.7209 -0.5162 -0.2626
  171SOPE   H7X19374   4.252   2.835   7.361 -0.1791  0.5200  0.5587
  171SOPE   H7Y19375   4.274   2.724   7.496 -1.0024  0.0743  1.0481
  171SOPE   C3819376   4.156   2.903   7.548  0.2717  0.1870 -0.2718
  171SOPE   H8X19377   4.083   2.854   7.616  3.7482 -1.5580  2.5719
  171SOPE   H8Y19378   4.119   2.992   7.493  4.1882  1.6779 -0.7928
  171SOPE   C3919379   4.274   2.950   7.634 -0.3762 -0.1706  0.4196
  171SOPE   H9X19380   4.365   2.983   7.579 -1.4410  0.6728 -0.9044
  171SOPE   H9Y19381   4.311   2.861   7.689  2.1577  0.8102  0.4125
  171SOPE  C31019382   4.242   3.059   7.737 -0.7998 -0.1767 -0.5202
  171SOPE  H10X19383   4.191   3.147   7.694  0.0422  1.6934  2.0506
  171SOPE  H10Y19384   4.339   3.103   7.769 -1.4359  0.8713 -0.0001
  171SOPE  C31119385   4.163   3.009   7.859  0.0790 -0.7383 -0.5949
  171SOPE  H11X19386   4.071   2.955   7.831 -0.5870 -0.5371  1.1067
  171SOPE  H11Y19387   4.123   3.102   7.905  0.9224 -0.0889 -1.1173
  171SOPE  C31219388   4.247   2.945   7.961 -0.3712  0.0660  0.2441
  171SOPE  H12X19389   4.339   3.006   7.975  0.1007 -1.2624  4.4732
  171SOPE  H12Y19390   4.280   2.848   7.918 -0.1862 -0.4386  1.4956
  171SOPE  C31319391   4.177   2.915   8.096  0.2243  0.0177 -0.9603
  171SOPE  H13X19392   4.080   2.861   8.083 -0.1031  1.0978 -3.4697
  171SOPE  H13Y19393   4.149   3.013   8.139  0.2432  0.0972 -1.1323
  171SOPE  C31419394   4.255   2.843   8.199 -0.2205  0.1390 -0.4103
  171SOPE  H14X19395   4.302   2.750   8.158 -0.4613  0.0449 -0.4735
  171SOPE  H14Y19396   4.186   2.804   8.277  0.3229  1.4289  0.7536
  171SOPE  C31519397   4.369   2.932   8.249 -0.1139 -0.0380 -0.6456
  171SOPE  H15X19398   4.319   3.005   8.316 -3.5580 -1.2007 -1.6985
  171SOPE  H15Y19399   4.414   2.984   8.162 -0.4247  0.9682 -0.2182
  171SOPE  C31619400   4.473   2.853   8.334  0.3032 -0.0230  0.5347
  171SOPE  H16X19401   4.534   2.785   8.270 -0.0054  1.0400 -0.9629
  171SOPE  H16Y19402   4.416   2.777   8.391 -3.3109  0.8790 -1.5514
  171SOPE  C31719403   4.561   2.945   8.421 -0.3546  0.0685  0.1040
  171SOPE  H17X19404   4.510   3.026   8.476 -0.7468 -0.5831  0.7224
  171SOPE  H17Y19405   4.639   2.988   8.354 -0.5423 -0.5343 -0.5175
  171SOPE  C31819406   4.632   2.865   8.530 -0.1208  0.0971  0.0240
  171SOPE  H18X19407   4.706   2.933   8.578 -0.7248  0.6279  0.2140
  171SOPE  H18Y19408   4.687   2.785   8.476  1.8634  0.6139  1.1832
  171SOPE  H18Z19409   4.554   2.820   8.595 -0.0397 -3.1612 -1.9112
  172SOPE     N19410   3.579   4.048   6.200  0.4526  0.2058 -0.2101
  172SOPE   HN119411   3.575   3.959   6.147  0.1713  0.3618 -0.4546
  172SOPE   HN219412   3.583   4.025   6.301 -0.6446 -1.3755 -0.4921
  172SOPE   HN319413   3.491   4.101   6.185  0.8356  0.6481 -0.9546
  172SOPE   C1219414   3.683   4.145   6.142 -0.5774  0.0763  0.3122
  172SOPE  H12A19415   3.696   4.141   6.032  0.8205  1.1805  0.4153
  172SOPE  H12B19416   3.776   4.128   6.200 -0.1254 -0.5275 -0.5686
  172SOPE   C1119417   3.620   4.287   6.150  0.4273  0.5873 -0.4632
  172SOPE  H11A19418   3.692   4.358   6.104  2.4398  0.3194  2.0152
  172SOPE  H11B19419   3.605   4.313   6.257 -3.1087  3.4478 -1.4497
  172SOPE     P19420   3.359   4.310   6.140  0.2932 -0.0782  0.1060
  172SOPE   O1319421   3.335   4.187   6.218 -0.0259  0.0129 -0.7311
  172SOPE   O1419422   3.264   4.336   6.031  0.1861 -0.5667 -0.1166
  172SOPE   O1219423   3.498   4.297   6.075  0.7560  0.3985 -0.0197
  172SOPE   O1119424   3.373   4.427   6.239  1.0674  0.4428 -0.0516
  172SOPE    C119425   3.275   4.448   6.346  0.0168 -0.5210 -0.0376
  172SOPE    HA19426   3.174   4.408   6.323 -1.0635  1.9197  0.1777
  172SOPE    HB19427   3.250   4.556   6.345  0.6924 -0.3683 -1.0764
  172SOPE    C219428   3.315   4.411   6.490 -0.0769  0.5563 -0.4736
  172SOPE    HS19429   3.282   4.492   6.558 -1.3194 -0.0405 -0.3451
  172SOPE   O2119430   3.461   4.392   6.497 -0.1543 -0.1216 -0.4926
  172SOPE   C2119431   3.521   4.510   6.515  0.4349 -0.5579 -0.1880
  172SOPE   O2219432   3.474   4.624   6.517  0.7771 -0.5318 -0.5580
  172SOPE   C2219433   3.671   4.488   6.519 -0.8344  0.3035  0.0119
  172SOPE   H2R19434   3.729   4.566   6.465 -0.9889  1.1424  1.0305
  172SOPE   H2S19435   3.704   4.383   6.504  1.8287  1.0785 -0.1699
  172SOPE    C319436   3.236   4.278   6.532 -0.0302  0.8105 -0.9488
  172SOPE    HX19437   3.250   4.207   6.449  2.2790 -0.3772  0.3558
  172SOPE    HY19438   3.126   4.283   6.544 -0.0858 -2.4979  1.1571
  172SOPE   O3119439   3.273   4.222   6.661 -0.4289 -0.3106 -0.1155
  172SOPE   C3119440   3.321   4.099   6.667  0.1606 -0.1867  0.4009
  172SOPE   O3219441   3.347   4.026   6.572  0.5567 -0.6805  0.1928
  172SOPE   C3219442   3.355   4.065   6.814  0.3166 -0.3062  0.7267
  172SOPE   H2X19443   3.263   4.091   6.872 -0.7491 -0.0019 -1.0299
  172SOPE   H2Y19444   3.440   4.132   6.838  0.4774 -0.3435  0.2733
  172SOPE   C2319445   3.728   4.522   6.666 -0.1417  0.1782  0.4666
  172SOPE   H3R19446   3.706   4.625   6.698  0.8226  0.5706 -0.0928
  172SOPE   H3S19447   3.834   4.494   6.646 -0.4565 -0.9259  0.2386
  172SOPE   C2419448   3.676   4.421   6.780 -0.9799 -0.2366  0.0726
  172SOPE   H4R19449   3.567   4.434   6.791 -1.1098 -0.3804 -0.9311
  172SOPE   H4S19450   3.685   4.321   6.732 -1.7363  0.1701 -0.9594
  172SOPE   C2519451   3.759   4.446   6.907  0.9446  0.0372  0.5370
  172SOPE   H5R19452   3.865   4.440   6.875  0.8398  1.2500 -0.0921
  172SOPE   H5S19453   3.745   4.550   6.944  1.5588  0.9092 -1.5516
  172SOPE   C2619454   3.737   4.337   7.015 -0.5762 -0.3858  0.3765
  172SOPE   H6R19455   3.629   4.311   7.013 -0.3340 -1.4228 -0.4251
  172SOPE   H6S19456   3.795   4.246   6.991 -2.2874 -1.4371  0.0081
  172SOPE   C2719457   3.768   4.400   7.150 -0.5546  0.3577  0.0380
  172SOPE   H7R19458   3.866   4.453   7.146 -0.2937 -0.1962 -1.8781
  172SOPE   H7S19459   3.702   4.485   7.175 -0.2108  1.6449 -2.9832
  172SOPE   C2819460   3.761   4.293   7.260  0.2609 -0.1496  0.6896
  172SOPE   H8R19461   3.787   4.338   7.358  1.0985 -0.2384  0.5152
  172SOPE   H8S19462   3.654   4.265   7.269 -0.0120  1.1701  1.8617
  172SOPE   C2919463   3.850   4.172   7.247 -0.5212 -0.2684 -1.1031
  172SOPE   H9119464   3.896   4.168   7.147 -0.0659 -0.9812 -0.8784
  172SOPE  C21019465   3.867   4.075   7.346 -0.2577  0.0639 -0.4611
  172SOPE  H10119466   3.939   3.993   7.335  1.8124  1.3900  2.2416
  172SOPE  C21119467   3.786   4.064   7.472 -0.3566  0.3138 -0.0726
  172SOPE  H11R19468   3.747   3.960   7.483 -2.0131  0.8863 -0.2893
  172SOPE  H11S19469   3.696   4.129   7.472 -1.5837 -1.3055 -0.4695
  172SOPE  C21219470   3.876   4.083   7.599 -0.7454 -0.1133 -0.3902
  172SOPE  H12R19471   3.931   4.179   7.590 -1.6319  0.5424  0.9222
  172SOPE  H12S19472   3.951   4.001   7.603  2.0309  2.2212 -0.9207
  172SOPE  C21319473   3.792   4.102   7.725  1.4145  0.2867 -0.0137
  172SOPE  H13R19474   3.691   4.059   7.706  0.2437  2.9714 -0.2636
  172SOPE  H13S19475   3.784   4.212   7.735  0.0932  0.7091 -3.8355
  172SOPE  C21419476   3.834   4.020   7.849  0.0103 -0.2685 -0.1818
  172SOPE  H14R19477   3.929   4.068   7.882  0.8661 -1.1716 -1.2267
  172SOPE  H14S19478   3.851   3.917   7.811  1.5902 -0.4414  0.8919
  172SOPE  C21519479   3.747   4.014   7.970 -0.4334 -0.1345 -0.0527
  172SOPE  H15R19480   3.642   3.980   7.955  0.1395 -2.2649  0.4575
  172SOPE  H15S19481   3.733   4.119   8.005  1.0625  0.2686 -0.5932
  172SOPE  C21619482   3.805   3.929   8.083  0.0827  0.0883  0.3632
  172SOPE  H16R19483   3.888   3.987   8.129 -2.3410  1.4911  3.2801
  172SOPE  H16S19484   3.845   3.833   8.045 -1.4413  0.5923 -2.8419
  172SOPE  C21719485   3.722   3.915   8.205 -0.0118  0.0123 -0.1601
  172SOPE  H17R19486   3.653   4.002   8.219 -0.3150 -0.5377  2.0353
  172SOPE  H17S19487   3.784   3.904   8.296  1.1680  2.0938 -0.6453
  172SOPE  C21819488   3.620   3.801   8.200 -0.5075 -0.4138  0.0524
  172SOPE  H18R19489   3.591   3.783   8.306  3.0784 -0.5757  1.1480
  172SOPE  H18S19490   3.666   3.708   8.160 -0.4466 -1.2306  1.9304
  172SOPE  H18T19491   3.533   3.833   8.139 -0.0934 -0.3178 -0.4951
  172SOPE   C3319492   3.398   3.920   6.855 -0.0807 -0.7301  0.0818
  172SOPE   H3X19493   3.507   3.897   6.846  0.1633  0.5344 -0.5579
  172SOPE   H3Y19494   3.342   3.844   6.797 -1.0106 -0.9982  1.3033
  172SOPE   C3419495   3.375   3.894   7.007 -0.2445 -0.7710  0.2206
  172SOPE   H4X19496   3.387   3.787   7.033  0.2360 -0.9731 -0.7689
  172SOPE   H4Y19497   3.274   3.931   7.032  0.4247  0.8364  0.6776
  172SOPE   C3519498   3.474   3.976   7.095  0.2774  0.0828 -0.2025
  172SOPE   H5X19499   3.449   4.083   7.107 -0.1525  0.0303 -0.6111
  172SOPE   H5Y19500   3.575   3.981   7.048 -0.5472  2.6387 -1.8904
  172SOPE   C3619501   3.490   3.929   7.241  0.0863 -0.1417  0.5601
  172SOPE   H6X19502   3.552   4.002   7.298 -2.3095  2.6909 -0.2064
  172SOPE   H6Y19503   3.537   3.829   7.246  3.8257  1.3490 -1.4265
  172SOPE   C3719504   3.358   3.924   7.320  0.1295 -0.2359  0.2230
  172SOPE   H7X19505   3.290   3.849   7.274 -1.0745  2.5838 -2.9671
  172SOPE   H7Y19506   3.315   4.025   7.304  0.4400  0.0632  1.1751
  172SOPE   C3819507   3.373   3.892   7.471  0.1321 -0.7603  0.2791
  172SOPE   H8X19508   3.459   3.940   7.523 -0.2522 -0.9925  1.1475
  172SOPE   H8Y19509   3.385   3.782   7.485 -2.1814 -1.0806  0.0443
  172SOPE   C3919510   3.245   3.942   7.539 -0.1170  1.2288  0.3863
  172SOPE   H9X19511   3.156   3.901   7.486 -0.8923  0.2126  2.3554
  172SOPE   H9Y19512   3.253   4.052   7.531  0.6079  1.0435 -2.3810
  172SOPE  C31019513   3.235   3.896   7.690  0.1592 -0.8276  0.3130
  172SOPE  H10X19514   3.280   3.795   7.704  0.5430 -0.6604  0.2876
  172SOPE  H10Y19515   3.126   3.902   7.710 -0.0404  1.7808 -1.1475
  172SOPE  C31119516   3.308   3.994   7.783 -0.2354 -0.3541 -0.0844
  172SOPE  H11X19517   3.263   4.095   7.775 -0.4905 -0.4025  0.6287
  172SOPE  H11Y19518   3.418   3.984   7.773 -0.1017  0.2119  0.7096
  172SOPE  C31219519   3.304   3.943   7.934 -0.0098  0.2786 -0.2460
  172SOPE  H12X19520   3.379   4.007   7.986  1.5519 -1.7165  0.0741
  172SOPE  H12Y19521   3.336   3.837   7.926  0.4227  0.2986  0.9691
  172SOPE  C31319522   3.166   3.938   7.998  0.1411  0.5466 -0.4028
  172SOPE  H13X19523   3.102   3.871   7.937 -0.2522 -1.1808  1.8020
  172SOPE  H13Y19524   3.121   4.038   7.981  1.7325  0.9300 -2.8718
  172SOPE  C31419525   3.160   3.880   8.147 -0.6897 -0.1786  0.5641
  172SOPE  H14X19526   3.242   3.806   8.141  0.9045  1.5906 -0.9176
  172SOPE  H14Y19527   3.064   3.834   8.179 -0.8886  0.4083  0.8359
  172SOPE  C31519528   3.191   3.980   8.258 -0.1285 -0.4623 -0.6601
  172SOPE  H15X19529   3.115   4.060   8.247 -0.3585 -0.6670 -0.5424
  172SOPE  H15Y19530   3.289   4.030   8.240 -0.7258  1.1731  0.4250
  172SOPE  C31619531   3.194   3.909   8.391 -0.1876 -0.9401 -0.3403
  172SOPE  H16X19532   3.252   3.817   8.367 -0.7501 -1.4058  0.0392
  172SOPE  H16Y19533   3.090   3.886   8.422  0.0657 -3.4871 -1.1819
  172SOPE  C31719534   3.253   4.009   8.499  0.4734  0.4038 -0.3973
  172SOPE  H17X19535   3.196   4.104   8.498 -0.8446 -0.3332 -2.1945
  172SOPE  H17Y19536   3.355   4.039   8.467  1.1503 -0.2291  1.0892
  172SOPE  C31819537   3.285   3.947   8.636 -0.1177 -0.0877  0.5321
  172SOPE  H18X19538   3.188   3.913   8.677 -0.7551  2.2075  1.1218
  172SOPE  H18Y19539   3.320   4.031   8.700  1.2485  1.1220 -1.6660
  172SOPE  H18Z19540   3.362   3.868   8.639 -1.5341 -1.4928  0.9464
  173SAPI   C1219541   4.316   1.180  10.664 -0.2261  0.0100  0.6164
  173SAPI    H219542   4.249   1.147  10.581  0.0786 -0.4207  0.5331
  173SAPI    O219543   4.341   1.050  10.723  0.0060 -0.5294 -0.0674
  173SAPI   HO219544   4.432   1.020  10.718  0.4053  0.5784  0.2532
  173SAPI   C1319545   4.445   1.241  10.610 -0.4037  0.1738  0.6638
  173SAPI    H319546   4.417   1.325  10.543  0.2862  0.1201  0.2990
  173SAPI    O319547   4.514   1.162  10.514  0.2227  0.5046 -1.0426
  173SAPI   HO319548   4.549   1.086  10.561  2.9030  1.5332 -1.1844
  173SAPI   C1419549   4.540   1.281  10.722 -0.4913  0.0832 -0.1172
  173SAPI    H419550   4.593   1.186  10.746  0.3973  0.6813  0.3647
  173SAPI    O419551   4.647   1.365  10.676  0.4500 -0.2896  0.0333
  173SAPI   HO419552   4.614   1.442  10.630  1.0651 -0.0087  0.0508
  173SAPI   C1519553   4.474   1.337  10.853  0.3741 -0.1761 -0.0970
  173SAPI    H519554   4.487   1.447  10.843 -0.2983 -0.1475 -0.7512
  173SAPI    O519555   4.545   1.307  10.974 -0.0879  1.1540  0.4449
  173SAPI   HO519556   4.566   1.214  10.981  0.1425  1.2857  1.6215
  173SAPI   C1619557   4.314   1.320  10.876  0.1680 -0.1818 -0.3648
  173SAPI    H619558   4.292   1.243  10.953 -1.0723  0.8353  0.3323
  173SAPI    O619559   4.242   1.434  10.938  0.5597  0.0846 -0.2508
  173SAPI   HO619560   4.228   1.499  10.869 -1.6701 -1.0315 -0.9684
  173SAPI   C1119561   4.244   1.274  10.750 -0.1554  0.3825 -0.7434
  173SAPI    H119562   4.236   1.366  10.689  1.6388  0.1324 -1.4132
  173SAPI     P19563   3.972   1.294  10.730  0.0623 -0.0213  0.2061
  173SAPI   O1319564   3.992   1.437  10.696  0.0639 -0.4625 -0.1730
  173SAPI   O1419565   3.866   1.257  10.825 -0.1438  0.6496  0.0008
  173SAPI   O1219566   4.112   1.228  10.784 -0.2290 -0.3066 -0.2331
  173SAPI   O1119567   3.954   1.203  10.594  0.1589  0.4132 -0.4198
  173SAPI    C119568   3.955   1.274  10.474 -0.0757 -0.5566 -0.2576
  173SAPI    HA19569   3.853   1.315  10.461  0.9866  2.0208 -1.1202
  173SAPI    HB19570   4.039   1.347  10.472 -0.2523 -0.3458 -2.4541
  173SAPI    C219571   3.976   1.171  10.361  0.3943  0.6759 -0.2288
  173SAPI    HS19572   3.909   1.086  10.386  1.0739  0.8326  2.4103
  173SAPI   O2119573   4.105   1.111  10.377  0.4666 -0.2223 -0.5240
  173SAPI   C2119574   4.138   1.003  10.317  0.4552 -0.4293 -0.0806
  173SAPI   O2219575   4.066   0.936  10.249  0.9578  0.4405 -0.1085
  173SAPI   C2219576   4.274   0.961  10.366 -0.6051  0.3784  0.2152
  173SAPI   H2R19577   4.344   1.047  10.367 -2.2974  1.8950 -1.7994
  173SAPI   H2S19578   4.254   0.932  10.471 -1.2799  0.6431  0.1688
  173SAPI    C319579   3.947   1.225  10.223 -0.0204  0.9009  0.6734
  173SAPI    HX19580   4.001   1.322  10.210 -0.1184  0.8682  0.0085
  173SAPI    HY19581   3.840   1.254  10.225 -0.3980 -0.1551  4.6092
  173SAPI   O3119582   3.959   1.139  10.115  0.9369  0.0091 -0.2072
  173SAPI   C3119583   3.959   1.200   9.997  0.0682  0.0084 -0.7495
  173SAPI   O3219584   3.951   1.319   9.974  0.4597 -0.2531  0.0492
  173SAPI   C3219585   3.973   1.088   9.895 -0.2801  0.5940  0.2018
  173SAPI   H2X19586   3.916   1.002   9.937  0.2186  0.4600  0.6161
  173SAPI   H2Y19587   4.084   1.073   9.893 -0.3708 -0.7184  1.9404
  173SAPI   C2319588   4.340   0.863  10.269 -0.0824  0.1924 -0.1032
  173SAPI   H3R19589   4.319   0.893  10.164  0.5780 -0.3251 -0.3922
  173SAPI   H3S19590   4.292   0.765  10.288  0.0517  0.5104  2.2183
  173SAPI   C2419591   4.494   0.862  10.286  0.6976 -0.6440  0.1046
  173SAPI   H4R19592   4.509   0.864  10.396  1.4802 -1.3260  0.0201
  173SAPI   H4S19593   4.536   0.952  10.237 -0.0396 -1.1305 -1.4867
  173SAPI   C2519594   4.559   0.741  10.224 -0.1599  0.7789 -0.0794
  173SAPI   H5R19595   4.561   0.656  10.294  1.6142  0.1789 -0.7819
  173SAPI   C2619596   4.618   0.727  10.106  0.7854 -0.6182  0.4161
  173SAPI   H6R19597   4.682   0.639  10.085  0.8546 -0.5259  0.2376
  173SAPI   C2719598   4.628   0.831   9.996 -0.7826 -0.2493 -0.2526
  173SAPI   H7R19599   4.732   0.835   9.958 -1.0938 -0.3708 -1.1388
  173SAPI   H7S19600   4.611   0.929  10.046 -0.8876 -0.5841  0.3807
  173SAPI   C2819601   4.537   0.814   9.876 -0.4449  0.2636 -0.4180
  173SAPI   H8R19602   4.435   0.785   9.906 -0.0082  0.0535  0.9288
  173SAPI   C2919603   4.571   0.827   9.740 -0.4659  0.1155  0.0975
  173SAPI   H9R19604   4.487   0.811   9.671 -1.6411  0.7897  1.3297
  173SAPI  C21019605   4.709   0.862   9.698 -0.2952  0.4108  0.4631
  173SAPI  H10R19606   4.768   0.768   9.690  0.5261  0.9453  0.1163
  173SAPI  H10S19607   4.758   0.921   9.778  1.5194  1.4703 -1.3569
  173SAPI  C21119608   4.723   0.941   9.567  0.1188  0.5679 -0.0196
  173SAPI  H11R19609   4.763   1.042   9.586 -0.4906  0.5609  1.3913
  173SAPI  C21219610   4.701   0.896   9.440 -0.5858  0.1018 -0.8751
  173SAPI  H12R19611   4.707   0.970   9.359 -1.1804  0.9080 -0.1981
  173SAPI  C21319612   4.655   0.758   9.401 -0.6184 -0.6156  0.3093
  173SAPI  H13R19613   4.618   0.707   9.493 -3.7529  0.8147 -0.0336
  173SAPI  H13S19614   4.749   0.713   9.366 -0.2686 -0.1632  0.6535
  173SAPI  C21419615   4.546   0.756   9.289 -0.3303 -0.7595  0.7183
  173SAPI  H14R19616   4.442   0.749   9.323 -0.0974  0.7386  1.8348
  173SAPI  C21519617   4.576   0.758   9.164 -0.5133  0.2088 -0.2616
  173SAPI  H15R19618   4.499   0.765   9.086 -0.2196 -2.6182 -0.8826
  173SAPI  C21619619   4.710   0.774   9.102 -0.0577  0.0794 -0.1371
  173SAPI  H16R19620   4.794   0.800   9.168  0.2954  1.6862 -1.1715
  173SAPI  H16S19621   4.714   0.855   9.027  2.0624  0.7647  0.6542
  173SAPI  C21719622   4.741   0.635   9.038 -0.4090  0.8492  0.5103
  173SAPI  H17R19623   4.676   0.622   8.949  0.7701  1.2467 -0.4343
  173SAPI  H17S19624   4.726   0.555   9.114  0.3552  1.3615  1.2195
  173SAPI  C21819625   4.889   0.610   8.992  0.2859 -0.1894 -0.2184
  173SAPI  H18R19626   4.953   0.612   9.082  0.9332 -0.7285 -0.6554
  173SAPI  H18S19627   4.911   0.689   8.916 -1.9982 -0.7290 -1.5335
  173SAPI  C21919628   4.923   0.469   8.930 -0.2538 -0.0365  0.1969
  173SAPI  H19R19629   4.925   0.398   9.015  2.8874 -0.1677  0.1278
  173SAPI  H19S19630   5.030   0.473   8.899 -0.2817 -0.8574 -0.0394
  173SAPI  C22019631   4.827   0.420   8.829 -0.1608  0.1660  0.0091
  173SAPI  H20R19632   4.848   0.312   8.815 -3.3858 -0.8717  1.9887
  173SAPI  H20S19633   4.832   0.483   8.738  2.1524  0.3170  0.1907
  173SAPI  H20T19634   4.725   0.414   8.873  0.3562  1.4067  1.4427
  173SAPI   C3319635   3.900   1.124   9.766 -0.3110  0.6831  0.7752
  173SAPI   H3X19636   3.944   1.219   9.727  2.1367 -1.3369 -1.8244
  173SAPI   H3Y19637   3.791   1.136   9.781 -0.4209  1.2153 -0.3871
  173SAPI   C3419638   3.918   1.024   9.651 -0.0259 -0.3284  0.7828
  173SAPI   H4X19639   3.880   0.927   9.690  1.4243 -1.9110 -1.4961
  173SAPI   H4Y19640   4.025   1.025   9.619  0.1895 -0.3607  1.4797
  173SAPI   C3519641   3.840   1.061   9.519 -0.4419  0.5091  0.0145
  173SAPI   H5X19642   3.870   1.165   9.497  1.6960  0.4041  2.0151
  173SAPI   H5Y19643   3.732   1.059   9.545 -0.2537  1.5285  0.9390
  173SAPI   C3619644   3.872   0.962   9.406 -0.1037  0.3385 -0.0317
  173SAPI   H6X19645   3.823   0.865   9.428 -1.0879  0.8718  0.1904
  173SAPI   H6Y19646   3.981   0.939   9.406 -0.0970  0.3693  0.0161
  173SAPI   C3719647   3.825   1.021   9.269  0.5094 -0.9827  0.7783
  173SAPI   H7X19648   3.880   1.115   9.247 -1.6481  0.5381  1.5469
  173SAPI   H7Y19649   3.722   1.060   9.283  0.4579  0.8793 -3.2087
  173SAPI   C3819650   3.840   0.913   9.156 -0.1643 -0.0440  0.4730
  173SAPI   H8X19651   3.792   0.819   9.191 -0.3137  0.4004  1.5102
  173SAPI   H8Y19652   3.948   0.896   9.137 -0.4818 -0.6337 -0.9095
  173SAPI   C3919653   3.768   0.945   9.018  0.3018 -0.2771 -0.0381
  173SAPI   H9X19654   3.799   1.041   8.972 -3.8606  0.8001 -1.0148
  173SAPI   H9Y19655   3.660   0.962   9.034  0.4496  0.3441  0.3460
  173SAPI  C31019656   3.778   0.834   8.910 -0.4153 -0.3105 -0.7904
  173SAPI  H10X19657   3.706   0.853   8.827 -0.7028 -1.8532 -0.9199
  173SAPI  H10Y19658   3.763   0.728   8.941 -1.3181  0.1869  0.5294
  173SAPI  C31119659   3.922   0.835   8.846  0.5291 -0.1313  0.4103
  173SAPI  H11X19660   3.994   0.817   8.928  2.5696 -0.4797 -1.3743
  173SAPI  H11Y19661   3.935   0.941   8.818  2.2943 -0.4111  0.0953
  173SAPI  C31219662   3.948   0.739   8.725  0.1674 -0.4326 -0.7403
  173SAPI  H12X19663   3.921   0.633   8.741 -4.2298  0.6404  0.3967
  173SAPI  H12Y19664   4.057   0.738   8.703 -0.2737  0.1065 -3.3115
  173SAPI  C31319665   3.883   0.785   8.589  0.0974 -0.0961 -0.6426
  173SAPI  H13X19666   3.894   0.895   8.587  0.2934 -0.0619  0.8785
  173SAPI  H13Y19667   3.774   0.767   8.588 -0.1946  1.5537 -0.6823
  173SAPI  C31419668   3.953   0.721   8.469 -0.4793  0.5335 -0.5567
  173SAPI  H14X19669   3.934   0.612   8.468 -1.5476  0.6396  1.5795
  173SAPI  H14Y19670   4.062   0.741   8.475 -0.8532  2.4527  2.0252
  173SAPI  C31519671   3.894   0.756   8.335 -0.2897  0.8066 -0.8345
  173SAPI  H15X19672   3.963   0.715   8.259 -1.6616  0.7492 -2.1016
  173SAPI  H15Y19673   3.889   0.867   8.333 -2.3892  0.8647  2.0998
  173SAPI  C31619674   3.756   0.696   8.304  0.2676  0.5474  0.4277
  173SAPI  H16X19675   3.682   0.745   8.371  1.3508 -0.2883  2.3256
  173SAPI  H16Y19676   3.756   0.589   8.332  2.3122  1.0526  2.8128
  173SAPI  C31719677   3.718   0.706   8.155 -0.1550  0.5492 -0.5517
  173SAPI  H17X19678   3.635   0.638   8.127 -0.6397  1.4258 -1.3078
  173SAPI  H17Y19679   3.803   0.655   8.103 -2.5338 -0.4416 -3.7879
  173SAPI  C31819680   3.691   0.836   8.092  0.0569  0.3604  0.2956
  173SAPI  H18X19681   3.760   0.923   8.099  1.9606 -0.7595 -2.6076
  173SAPI  H18Y19682   3.596   0.870   8.138 -0.6855  0.3288 -1.1536
  173SAPI  H18Z19683   3.681   0.822   7.982 -1.3857 -1.4259  0.5982
  174SAPI   C1219684   0.274   1.572  10.666 -0.5425 -0.4614  0.2298
  174SAPI    H219685   0.233   1.557  10.563 -0.3547 -1.2160  0.2586
  174SAPI    O219686   0.319   1.704  10.668 -0.0642 -0.2719  0.0189
  174SAPI   HO219687   0.408   1.702  10.632  0.4742 -0.7279  1.3156
  174SAPI   C1319688   0.159   1.541  10.766 -0.2612 -0.3818 -0.0333
  174SAPI    H319689   0.142   1.431  10.765  1.5381 -0.7615  2.2775
  174SAPI    O319690   0.039   1.610  10.742  0.5147  0.0579  0.1137
  174SAPI   HO319691   0.021   1.595  10.649  0.1070 -1.2424  0.3798
  174SAPI   C1419692   0.203   1.576  10.912 -0.0817  0.5988  0.5060
  174SAPI    H419693   0.203   1.687  10.918  0.2271  0.5670  1.1389
  174SAPI    O419694   0.100   1.545  11.007  0.2562  0.3336  0.3220
  174SAPI   HO419695   0.086   1.628  11.053  0.2228 -0.1325  1.1771
  174SAPI   C1519696   0.342   1.528  10.947 -0.3756 -0.0682  0.1699
  174SAPI    H519697   0.324   1.434  11.004 -0.4697 -0.5084 -0.5813
  174SAPI    O519698   0.411   1.606  11.041  0.1215 -0.1658 -0.4636
  174SAPI   HO519699   0.462   1.670  10.991 -0.5039  1.0521  0.4115
  174SAPI   C1619700   0.441   1.486  10.831  0.9193  0.5818 -0.4455
  174SAPI    H619701   0.520   1.563  10.827  1.7959 -0.3165 -0.8609
  174SAPI    O619702   0.516   1.369  10.869  0.1068 -0.4419 -0.3647
  174SAPI   HO619703   0.538   1.327  10.786  3.6648 -1.7054  1.0031
  174SAPI   C1119704   0.393   1.480  10.691  0.1746  0.0978 -0.0025
  174SAPI    H119705   0.341   1.383  10.672  0.3476  0.1508 -0.7759
  174SAPI     P19706   0.574   1.370  10.519 -0.0141 -0.5170 -0.2205
  174SAPI   O1319707   0.589   1.255  10.619 -0.1751  0.1656 -0.5633
  174SAPI   O1419708   0.693   1.422  10.447  0.0142  0.2301  0.0310
  174SAPI   O1219709   0.496   1.496  10.590 -0.1751 -0.1754  0.5252
  174SAPI   O1119710   0.464   1.335  10.408 -0.1103  0.1693 -0.1683
  174SAPI    C119711   0.402   1.204  10.415 -0.0148  0.0178 -0.0598
  174SAPI    HA19712   0.481   1.126  10.406 -0.2707 -0.2034 -0.4069
  174SAPI    HB19713   0.337   1.184  10.503  0.1371  0.8911  0.2575
  174SAPI    C219714   0.308   1.177  10.289 -0.3332 -0.1605 -0.4635
  174SAPI    HS19715   0.274   1.071  10.297  0.5960 -0.5132 -1.0515
  174SAPI   O2119716   0.384   1.192  10.162 -0.0016  0.7017 -0.2822
  174SAPI   C2119717   0.411   1.078  10.097  0.0276 -0.1896  0.2257
  174SAPI   O2219718   0.429   0.968  10.150  0.3640 -0.1074 -0.5117
  174SAPI   C2219719   0.405   1.106   9.942 -0.5928 -0.4785 -0.3412
  174SAPI   H2R19720   0.477   1.183   9.908 -2.3613  1.1269 -0.6505
  174SAPI   H2S19721   0.423   1.014   9.883  0.2540  0.4121 -1.5371
  174SAPI    C319722   0.186   1.274  10.282  0.3985  0.0935  0.4748
  174SAPI    HX19723   0.225   1.373  10.249  1.5612  0.0893  1.7303
  174SAPI    HY19724   0.151   1.277  10.387 -0.6497 -2.3389  0.2603
  174SAPI   O3119725   0.084   1.216  10.200 -0.0225 -0.3223 -0.0946
  174SAPI   C3119726  -0.027   1.288  10.186 -0.2741  0.1372 -0.5920
  174SAPI   O3219727  -0.046   1.401  10.229  0.1276 -0.3567 -0.4013
  174SAPI   C3219728  -0.137   1.220  10.109 -0.6922  0.6939  0.2813
  174SAPI   H2X19729  -0.182   1.147  10.179  1.8513 -1.2370  0.0542
  174SAPI   H2Y19730  -0.079   1.169  10.029  1.8943  1.6760  1.4413
  174SAPI   C2319731   0.273   1.167   9.896  0.1060 -0.6596  0.5074
  174SAPI   H3R19732   0.247   1.254   9.960  2.0012  0.6380 -0.4140
  174SAPI   H3S19733   0.194   1.089   9.905 -0.5871  0.0801  0.9314
  174SAPI   C2419734   0.282   1.218   9.750 -0.3101  0.2371  0.0284
  174SAPI   H4R19735   0.311   1.132   9.686 -0.7034  0.2123 -0.1188
  174SAPI   H4S19736   0.358   1.298   9.739 -0.4864  0.2563 -1.2482
  174SAPI   C2519737   0.143   1.267   9.726 -0.2385  0.6278 -0.6954
  174SAPI   H5R19738   0.068   1.198   9.684  0.2218  0.2496 -0.9068
  174SAPI   C2619739   0.093   1.383   9.757 -0.0338 -1.0249  0.3373
  174SAPI   H6R19740  -0.014   1.402   9.740  0.1648  1.8075  1.6253
  174SAPI   C2719741   0.164   1.507   9.805  0.1182 -0.3721  0.0336
  174SAPI   H7R19742   0.271   1.477   9.803  0.4081  0.6696 -1.7538
  174SAPI   H7S19743   0.138   1.539   9.908  1.2971  0.4438  0.1022
  174SAPI   C2819744   0.145   1.636   9.736  0.0531 -0.4378  0.0958
  174SAPI   H8R19745   0.075   1.703   9.787  1.1147  0.9413 -0.1967
  174SAPI   C2919746   0.196   1.682   9.616  0.1734  1.0316  0.3842
  174SAPI   H9R19747   0.148   1.770   9.570 -1.7142 -0.0129  0.2501
  174SAPI  C21019748   0.291   1.603   9.530 -0.3464 -0.2833  0.0014
  174SAPI  H10R19749   0.289   1.494   9.551  0.4029 -0.0662  1.3169
  174SAPI  H10S19750   0.389   1.645   9.562 -0.8599  0.3148  0.8573
  174SAPI  C21119751   0.268   1.614   9.375  0.3870 -0.5780  0.0746
  174SAPI  H11R19752   0.339   1.671   9.314 -0.1392  1.6873  1.4763
  174SAPI  C21219753   0.157   1.562   9.321 -0.0463  0.1634 -0.1917
  174SAPI  H12R19754   0.146   1.579   9.213 -0.7619 -1.2861 -0.3794
  174SAPI  C21319755   0.040   1.483   9.378 -0.1203 -0.3289  0.7202
  174SAPI  H13R19756  -0.045   1.555   9.379  2.7241  3.3390  0.5082
  174SAPI  H13S19757   0.070   1.440   9.476  1.4182  0.6049  0.7001
  174SAPI  C21419758  -0.017   1.370   9.289 -0.0959  0.3936  0.6384
  174SAPI  H14R19759   0.039   1.357   9.195 -1.4396 -0.1498 -0.1280
  174SAPI  C21519760  -0.110   1.281   9.325  0.6946  0.2032 -0.1365
  174SAPI  H15R19761  -0.137   1.203   9.253  0.2091  1.8015 -1.7540
  174SAPI  C21619762  -0.198   1.291   9.446 -0.2335  0.7292  0.4429
  174SAPI  H16R19763  -0.207   1.397   9.479 -0.2193  0.1904  2.3157
  174SAPI  H16S19764  -0.150   1.245   9.536  1.8704  2.5919  0.3482
  174SAPI  C21719765  -0.339   1.231   9.428  0.8163 -0.2659  0.1696
  174SAPI  H17R19766  -0.344   1.148   9.354  2.0154  0.2829 -0.5562
  174SAPI  H17S19767  -0.402   1.303   9.372  1.3541  0.3282  0.3140
  174SAPI  C21819768  -0.414   1.214   9.569  0.2077  0.0211  0.2972
  174SAPI  H18R19769  -0.368   1.138   9.635 -1.6201 -0.7804  0.6989
  174SAPI  H18S19770  -0.517   1.175   9.557  0.6764 -0.9398 -0.7930
  174SAPI  C21919771  -0.421   1.349   9.639 -0.3270  0.3095  0.1036
  174SAPI  H19R19772  -0.467   1.426   9.573 -2.4577 -0.4254  0.6536
  174SAPI  H19S19773  -0.321   1.385   9.670 -0.2550  0.4440 -0.2842
  174SAPI  C22019774  -0.487   1.336   9.774  0.4186 -0.7908 -0.2457
  174SAPI  H20R19775  -0.439   1.255   9.833 -2.0843 -1.8057  0.5187
  174SAPI  H20S19776  -0.591   1.303   9.753  0.3582  0.6998 -2.7306
  174SAPI  H20T19777  -0.492   1.437   9.821  0.0715 -0.9786  0.1217
  174SAPI   C3319778  -0.242   1.298  10.027  0.1932 -0.2234 -0.2100
  174SAPI   H3X19779  -0.257   1.257   9.925 -1.7270 -1.5465  0.5570
  174SAPI   H3Y19780  -0.213   1.403  10.005 -0.2298 -0.1230 -0.2943
  174SAPI   C3419781  -0.380   1.303  10.101  0.1779  0.0052  1.5782
  174SAPI   H4X19782  -0.402   1.202  10.142 -0.1573  0.2923  2.1170
  174SAPI   H4Y19783  -0.460   1.341  10.035 -0.1500  0.1843  2.0773
  174SAPI   C3519784  -0.382   1.390  10.230 -0.4966 -0.1752 -0.1436
  174SAPI   H5X19785  -0.321   1.478  10.200 -1.9456  1.1423  0.6507
  174SAPI   H5Y19786  -0.324   1.345  10.313  0.1159  0.7479 -0.0656
  174SAPI   C3619787  -0.525   1.417  10.291 -0.1583 -0.1727  0.0588
  174SAPI   H6X19788  -0.499   1.495  10.366 -0.6548  2.3679 -2.2429
  174SAPI   H6Y19789  -0.575   1.327  10.333 -0.6341 -0.4800 -1.1305
  174SAPI   C3719790  -0.613   1.485  10.189  1.1740 -0.4197  0.2060
  174SAPI   H7X19791  -0.693   1.543  10.240  3.0255  3.1567 -0.7005
  174SAPI   H7Y19792  -0.665   1.409  10.126  2.1070 -0.6997 -0.2413
  174SAPI   C3819793  -0.551   1.594  10.095  0.2513 -0.4375  0.3235
  174SAPI   H8X19794  -0.466   1.555  10.035 -0.0650  1.1476 -1.2252
  174SAPI   H8Y19795  -0.523   1.676  10.164 -0.3879 -1.0572  1.3419
  174SAPI   C3919796  -0.645   1.656   9.996  0.4572  0.2742 -0.5043
  174SAPI   H9X19797  -0.720   1.704  10.063  1.0654 -0.1007  0.4526
  174SAPI   H9Y19798  -0.679   1.565   9.943  1.2496 -1.0128  1.1288
  174SAPI  C31019799  -0.592   1.750   9.887 -0.3741  0.3837  0.4245
  174SAPI  H10X19800  -0.514   1.691   9.834 -0.8921 -0.5049  0.6363
  174SAPI  H10Y19801  -0.539   1.842   9.922  1.1136  0.3654 -1.6026
  174SAPI  C31119802  -0.706   1.781   9.788  0.3401  0.4820  0.0547
  174SAPI  H11X19803  -0.780   1.817   9.863  1.7863 -1.4680  2.6043
  174SAPI  H11Y19804  -0.733   1.683   9.743 -0.0796 -0.0599  1.4103
  174SAPI  C31219805  -0.651   1.871   9.685 -0.0067  0.0353  0.2957
  174SAPI  H12X19806  -0.550   1.839   9.651  0.0579  0.4638  0.0755
  174SAPI  H12Y19807  -0.642   1.968   9.738  1.9077 -0.8355  1.6558
  174SAPI  C31319808  -0.736   1.877   9.558  0.0894  0.6154 -0.2641
  174SAPI  H13X19809  -0.827   1.938   9.575 -0.6475 -0.4045 -0.4416
  174SAPI  H13Y19810  -0.772   1.773   9.541 -0.3227  0.4944  1.2359
  174SAPI  C31419811  -0.677   1.930   9.432 -0.0090 -0.1610 -0.5987
  174SAPI  H14X19812  -0.582   1.877   9.409  0.6476 -1.2023  3.6326
  174SAPI  H14Y19813  -0.642   2.035   9.441  0.4008 -0.2363 -1.2308
  174SAPI  C31519814  -0.762   1.916   9.306 -0.1535  0.1538 -0.0704
  174SAPI  H15X19815  -0.839   1.995   9.321  1.1135  1.1148  1.7337
  174SAPI  H15Y19816  -0.807   1.815   9.293  0.9588 -0.5666  1.3370
  174SAPI  C31619817  -0.679   1.949   9.182  0.5063  0.5082 -0.1206
  174SAPI  H16X19818  -0.608   1.871   9.147  1.2954  1.9090 -1.7527
  174SAPI  H16Y19819  -0.610   2.034   9.198  1.0416 -0.3640  2.9142
  174SAPI  C31719820  -0.771   1.957   9.056  0.2237 -0.0576 -0.0001
  174SAPI  H17X19821  -0.835   2.046   9.074 -0.3707 -0.8003  1.7676
  174SAPI  H17Y19822  -0.827   1.861   9.060  1.7986 -1.0096  0.0260
  174SAPI  C31819823  -0.698   1.976   8.922 -0.1862 -0.6996  0.0949
  174SAPI  H18X19824  -0.634   2.066   8.929 -0.7483 -0.3131  0.3291
  174SAPI  H18Y19825  -0.761   1.973   8.831  0.4318  1.2764 -0.4354
  174SAPI  H18Z19826  -0.628   1.892   8.903  1.7763  0.6307  1.1537
  175SAPI   C1219827   5.620   1.472   5.678 -0.7559 -0.4483  0.9111
  175SAPI    H219828   5.664   1.563   5.632  0.4697 -0.8383  1.2717
  175SAPI    O219829   5.569   1.512   5.803 -0.4982  0.0805  0.1874
  175SAPI   HO219830   5.643   1.529   5.862  0.8627  1.1630 -1.7074
  175SAPI   C1319831   5.511   1.417   5.577 -0.6561  1.4907 -0.2111
  175SAPI    H319832   5.565   1.382   5.487  1.8444 -0.0875  1.7552
  175SAPI    O319833   5.415   1.516   5.550  0.3151  0.1499  0.1736
  175SAPI   HO319834   5.373   1.507   5.465 -0.7865  0.8216  0.6163
  175SAPI   C1419835   5.443   1.298   5.641 -0.4576 -0.1527  0.0004
  175SAPI    H419836   5.371   1.337   5.717  0.3695  0.2981  0.5754
  175SAPI    O419837   5.366   1.228   5.550 -0.2129 -0.2467  0.0111
  175SAPI   HO419838   5.285   1.277   5.538  0.8569  1.5095 -0.4183
  175SAPI   C1519839   5.538   1.202   5.719  0.1826 -0.2408  0.6897
  175SAPI    H519840   5.562   1.119   5.650  1.7487 -0.8266  1.8606
  175SAPI    O519841   5.460   1.137   5.824  0.8079 -0.1115 -0.1975
  175SAPI   HO519842   5.504   1.056   5.849  0.1150 -0.5231 -0.2918
  175SAPI   C1619843   5.678   1.247   5.769  0.3473  0.3313  0.6507
  175SAPI    H619844   5.665   1.273   5.876 -0.0468 -2.7986  1.4440
  175SAPI    O619845   5.761   1.135   5.761  0.7595  0.1177 -0.2401
  175SAPI   HO619846   5.802   1.120   5.846 -1.1650 -0.6920  0.6213
  175SAPI   C1119847   5.732   1.372   5.694  0.0354  0.5168  0.2042
  175SAPI    H119848   5.770   1.339   5.595 -1.0630 -1.5578  0.4201
  175SAPI     P19849   5.994   1.427   5.741  0.4166 -0.1971  0.2032
  175SAPI   O1319850   6.031   1.555   5.685 -0.1243 -0.8349 -0.1885
  175SAPI   O1419851   6.040   1.306   5.667  0.0983 -0.0751  0.7553
  175SAPI   O1219852   5.832   1.437   5.772  0.2745 -0.4361 -0.2398
  175SAPI   O1119853   6.055   1.415   5.891 -0.1895  0.1063 -0.0530
  175SAPI    C119854   6.019   1.511   5.987 -0.3416 -0.2674 -0.1111
  175SAPI    HA19855   5.950   1.592   5.954  0.1512  0.6686  1.0878
  175SAPI    HB19856   5.960   1.461   6.066  0.2963 -2.3385 -0.8628
  175SAPI    C219857   6.143   1.574   6.046 -0.0911  0.1924 -0.6025
  175SAPI    HS19858   6.216   1.490   6.048 -1.4001 -0.9945 -0.8704
  175SAPI   O2119859   6.110   1.616   6.180  0.0589 -0.2220  0.4410
  175SAPI   C2119860   6.224   1.637   6.248  0.8362  0.6256  0.1739
  175SAPI   O2219861   6.333   1.623   6.206  0.0013 -0.1805  0.8299
  175SAPI   C2219862   6.183   1.674   6.389  0.1794 -0.2360 -0.0535
  175SAPI   H2R19863   6.111   1.759   6.381  1.0792  0.4906 -0.6545
  175SAPI   H2S19864   6.133   1.584   6.430  1.6525 -1.1141 -0.1039
  175SAPI    C319865   6.197   1.688   5.958  0.1728  0.7399  0.3249
  175SAPI    HX19866   6.209   1.649   5.855  0.3112 -1.5979  1.1714
  175SAPI    HY19867   6.301   1.713   5.987 -0.1697  0.0262  2.3954
  175SAPI   O3119868   6.100   1.799   5.953 -0.2335 -0.5340  0.4910
  175SAPI   C3119869   6.138   1.909   6.011 -0.6626 -0.4777 -0.5807
  175SAPI   O3219870   6.246   1.931   6.071 -0.2564 -0.1657  0.1844
  175SAPI   C3219871   6.020   2.010   6.010  0.8908  0.4358 -0.6278
  175SAPI   H2X19872   5.925   1.971   6.051  1.9478 -2.6313 -0.8212
  175SAPI   H2Y19873   6.003   2.042   5.905 -0.0537 -0.2286 -0.6946
  175SAPI   C2319874   6.290   1.713   6.495  0.2520 -0.4466  0.1351
  175SAPI   H3R19875   6.241   1.752   6.586  3.0580  0.5769  1.3196
  175SAPI   H3S19876   6.363   1.793   6.470  0.1155 -0.4019 -0.1250
  175SAPI   C2419877   6.376   1.590   6.541 -0.9997  1.4458  0.4438
  175SAPI   H4R19878   6.419   1.545   6.450 -0.7281  3.3857 -0.4268
  175SAPI   H4S19879   6.311   1.514   6.592  1.1113  1.4750  3.4552
  175SAPI   C2519880   6.499   1.619   6.629 -0.0241  0.6283 -0.3285
  175SAPI   H5R19881   6.579   1.674   6.578 -1.0600  0.3984 -2.3233
  175SAPI   C2619882   6.513   1.575   6.761  0.5187  0.3164 -0.0200
  175SAPI   H6R19883   6.605   1.608   6.812  0.2612  1.9853 -0.5625
  175SAPI   C2719884   6.414   1.512   6.856 -0.4138  0.2558 -0.2957
  175SAPI   H7R19885   6.344   1.458   6.788  1.8114 -2.2418 -0.7661
  175SAPI   H7S19886   6.360   1.599   6.899  1.4648  2.4563 -2.1520
  175SAPI   C2819887   6.479   1.420   6.957  0.3878 -0.1061  0.5918
  175SAPI   H8R19888   6.560   1.360   6.913 -1.2680 -0.8470 -1.6583
  175SAPI   C2919889   6.460   1.409   7.091 -0.4447  0.2119 -0.1389
  175SAPI   H9R19890   6.527   1.345   7.150 -1.7571 -1.9424 -0.8619
  175SAPI  C21019891   6.354   1.493   7.157 -0.1830  0.0367 -0.0900
  175SAPI  H10R19892   6.261   1.471   7.100 -0.5230  1.1446  0.0243
  175SAPI  H10S19893   6.376   1.600   7.136  0.8907 -0.5279 -2.0925
  175SAPI  C21119894   6.339   1.461   7.306  0.4923  0.0134 -0.9514
  175SAPI  H11R19895   6.417   1.496   7.374 -1.7869 -0.8694  2.3464
  175SAPI  C21219896   6.234   1.398   7.364  0.0761 -0.3528 -0.3559
  175SAPI  H12R19897   6.233   1.379   7.472 -2.3529 -0.4340 -0.3430
  175SAPI  C21319898   6.123   1.338   7.288  0.3214 -0.5639 -0.1013
  175SAPI  H13R19899   6.149   1.232   7.265  0.2973 -0.6066  0.0697
  175SAPI  H13S19900   6.094   1.389   7.193  0.7679  0.2072  0.1753
  175SAPI  C21419901   5.995   1.352   7.374  0.0461  0.0659 -0.1314
  175SAPI  H14R19902   6.016   1.317   7.477 -2.1524  1.2923  0.7876
  175SAPI  C21519903   5.870   1.383   7.325  0.1007  0.3387 -0.0193
  175SAPI  H15R19904   5.788   1.386   7.398  0.5355  0.8903  0.4662
  175SAPI  C21619905   5.819   1.428   7.192 -0.3433  0.2160  0.3782
  175SAPI  H16R19906   5.816   1.539   7.188  1.6055  0.2714 -1.7770
  175SAPI  H16S19907   5.714   1.395   7.175 -0.6755  1.6671 -0.5790
  175SAPI  C21719908   5.888   1.377   7.068 -0.1975  0.2481  0.5929
  175SAPI  H17R19909   5.928   1.275   7.083  1.5532  0.4399 -2.0863
  175SAPI  H17S19910   5.978   1.437   7.044  1.6835 -2.0931  1.4913
  175SAPI  C21819911   5.797   1.359   6.940 -0.6757 -0.5727 -0.5977
  175SAPI  H18R19912   5.761   1.460   6.911  1.6434  0.8975  1.2420
  175SAPI  H18S19913   5.721   1.281   6.962 -0.4485 -1.0067 -1.3202
  175SAPI  C21919914   5.885   1.299   6.828  0.7260  0.0319 -0.1293
  175SAPI  H19R19915   5.960   1.231   6.875  1.5228  1.3052  0.4925
  175SAPI  H19S19916   5.940   1.383   6.780 -0.6749  0.8549 -0.3378
  175SAPI  C22019917   5.787   1.234   6.729 -0.1878  0.9389 -0.0291
  175SAPI  H20R19918   5.843   1.176   6.652 -2.0445 -1.5158  0.3676
  175SAPI  H20S19919   5.722   1.305   6.674 -1.8141 -0.6742 -0.2730
  175SAPI  H20T19920   5.725   1.155   6.774  1.3091  0.5446  1.4432
  175SAPI   C3319921   6.062   2.142   6.072 -0.6589 -0.1410 -0.3118
  175SAPI   H3X19922   6.014   2.230   6.024 -1.8230 -0.6286 -0.0535
  175SAPI   H3Y19923   6.172   2.162   6.066 -0.5757 -0.4415  0.1829
  175SAPI   C3419924   6.012   2.165   6.216  0.3718  0.5544  0.7623
  175SAPI   H4X19925   5.905   2.136   6.222 -0.1629  2.2280  0.0278
  175SAPI   H4Y19926   6.015   2.273   6.240  0.0030  0.3365  1.8112
  175SAPI   C3519927   6.094   2.086   6.314  0.3848 -0.1661  0.7240
  175SAPI   H5X19928   6.197   2.083   6.274 -0.0325  0.5490 -0.4756
  175SAPI   H5Y19929   6.058   1.982   6.295  1.1504 -0.1192 -1.2110
  175SAPI   C3619930   6.081   2.142   6.451  0.4724  0.3818 -0.5177
  175SAPI   H6X19931   5.974   2.144   6.481  0.5888  2.0064 -0.1307
  175SAPI   H6Y19932   6.126   2.244   6.452 -0.9160  1.0208  0.2572
  175SAPI   C3719933   6.172   2.050   6.551 -0.4023  0.3464  0.1208
  175SAPI   H7X19934   6.241   1.998   6.481  1.7842  1.0699  1.6488
  175SAPI   H7Y19935   6.098   1.976   6.589 -0.9208  0.7074 -0.1664
  175SAPI   C3819936   6.229   2.107   6.672  0.5027 -0.2230 -0.1261
  175SAPI   H8X19937   6.317   2.174   6.656  1.1071 -1.3478 -1.7115
  175SAPI   H8Y19938   6.276   2.030   6.736  0.5388 -0.0193  0.0947
  175SAPI   C3919939   6.141   2.178   6.774  0.2833 -0.0727 -0.4915
  175SAPI   H9X19940   6.046   2.126   6.796  0.2717 -1.2264 -2.9721
  175SAPI   H9Y19941   6.121   2.275   6.722  3.1369  1.6138  1.2634
  175SAPI  C31019942   6.210   2.225   6.905  0.2098 -0.1678 -0.2817
  175SAPI  H10X19943   6.300   2.277   6.868  1.4695 -2.9950 -1.5238
  175SAPI  H10Y19944   6.235   2.140   6.973 -3.4906 -1.2028  0.0173
  175SAPI  C31119945   6.126   2.331   6.983  0.7944 -0.5376  0.8241
  175SAPI  H11X19946   6.022   2.291   6.982  0.2485  0.8262  0.3320
  175SAPI  H11Y19947   6.129   2.430   6.934  1.2017 -1.1931 -0.5336
  175SAPI  C31219948   6.181   2.347   7.119 -0.1519  0.3464  0.4236
  175SAPI  H12X19949   6.148   2.444   7.161 -0.5113  0.4595 -0.1083
  175SAPI  H12Y19950   6.292   2.349   7.110 -0.2729 -0.5752 -2.4742
  175SAPI  C31319951   6.143   2.246   7.222 -0.0174  0.0957  0.3094
  175SAPI  H13X19952   6.176   2.148   7.181 -1.2359 -0.7391  1.2401
  175SAPI  H13Y19953   6.032   2.244   7.220 -0.0827  0.1764 -3.3251
  175SAPI  C31419954   6.207   2.269   7.358 -0.1818  0.0343 -0.3189
  175SAPI  H14X19955   6.160   2.365   7.391 -0.0745 -0.3470  0.9985
  175SAPI  H14Y19956   6.316   2.282   7.345  0.3613 -2.2562  1.3748
  175SAPI  C31519957   6.175   2.151   7.453  0.1774 -0.2159  0.8045
  175SAPI  H15X19958   6.251   2.078   7.417  1.9247  1.8435  0.0570
  175SAPI  H15Y19959   6.070   2.121   7.437  0.7773 -1.5404 -1.0707
  175SAPI  C31619960   6.197   2.186   7.601  0.9249 -0.1229  0.2106
  175SAPI  H16X19961   6.286   2.251   7.612  0.4004  0.4067  1.4899
  175SAPI  H16Y19962   6.223   2.090   7.651  1.1585  0.9252  2.1935
  175SAPI  C31719963   6.080   2.271   7.660 -0.8020 -0.5606 -0.4074
  175SAPI  H17X19964   5.984   2.216   7.649 -1.1024 -0.6491  2.1182
  175SAPI  H17Y19965   6.061   2.368   7.608 -2.2840  0.2990  1.6377
  175SAPI  C31819966   6.104   2.301   7.806 -0.3831  0.3936  0.1299
  175SAPI  H18X19967   6.038   2.381   7.846  0.8301  0.5830  1.8701
  175SAPI  H18Y19968   6.207   2.338   7.825 -1.0556  1.5701  1.6943
  175SAPI  H18Z19969   6.089   2.210   7.869 -3.9900  1.3947  0.9948
  176SAPI   C1219970   4.862   4.910   6.142  0.1858 -0.8361 -0.8258
  176SAPI    H219971   4.929   4.883   6.227  0.5537  0.8651 -0.5419
  176SAPI    O219972   4.928   4.878   6.024 -0.4169  0.5052 -0.0178
  176SAPI   HO219973   5.015   4.918   6.029 -0.8109  1.2729  1.2111
  176SAPI   C1319974   4.732   4.831   6.155 -0.9358 -0.8629  0.4306
  176SAPI    H319975   4.693   4.850   6.257 -1.8961 -2.7894  0.4584
  176SAPI    O319976   4.754   4.696   6.138  0.2464  0.8669  0.2030
  176SAPI   HO319977   4.793   4.684   6.051 -0.8218 -0.9744 -0.0692
  176SAPI   C1419978   4.623   4.881   6.059 -0.6796 -0.0828  0.0470
  176SAPI    H419979   4.621   4.821   5.965  2.3757  1.2946 -1.0341
  176SAPI    O419980   4.499   4.854   6.124  0.3862  0.3471  0.0224
  176SAPI   HO419981   4.458   4.780   6.079 -1.2990  0.3403  1.4801
  176SAPI   C1519982   4.626   5.024   6.009 -0.0852  0.4577  0.9644
  176SAPI    H519983   4.544   5.080   6.060 -1.1337  0.0368 -0.2097
  176SAPI    O519984   4.582   5.029   5.875 -0.4912  0.5316 -0.3748
  176SAPI   HO519985   4.496   4.986   5.882 -0.4353  0.6678  2.2336
  176SAPI   C1619986   4.752   5.106   6.031 -0.5167  0.1875 -0.2802
  176SAPI    H619987   4.814   5.094   5.939  0.3817  2.5024 -0.0471
  176SAPI    O619988   4.726   5.245   6.023 -0.0499 -0.2210 -0.1404
  176SAPI   HO619989   4.798   5.287   6.072 -0.8473  1.9726 -0.7182
  176SAPI   C1119990   4.826   5.058   6.156  0.0640  0.9454 -0.3095
  176SAPI    H119991   4.768   5.066   6.251  0.2463 -0.6456 -0.0478
  176SAPI     P19992   4.954   5.256   6.282 -0.4354 -0.2008 -0.4501
  176SAPI   O1319993   4.932   5.202   6.419 -0.7468  0.1566 -0.4527
  176SAPI   O1419994   4.857   5.360   6.234 -0.1843 -0.4413  0.7281
  176SAPI   O1219995   4.949   5.137   6.174 -0.5016 -0.0160 -0.0237
  176SAPI   O1119996   5.097   5.310   6.274 -0.2654  0.4711 -0.0003
  176SAPI    C119997   5.203   5.263   6.359  0.5503  0.5295 -0.8808
  176SAPI    HA19998   5.183   5.165   6.407  1.0495 -0.6480 -2.9454
  176SAPI    HB19999   5.297   5.251   6.302  0.0659  0.6266 -1.7210
  176SAPI    C220000   5.235   5.375   6.468 -0.1775  0.4664  0.6122
  176SAPI    HS20001   5.324   5.331   6.517  0.8186  0.6887 -0.9024
  176SAPI   O2120002   5.121   5.406   6.552  0.1553 -0.4457 -0.6588
  176SAPI   C2120003   5.102   5.318   6.650 -0.1097 -0.1781  0.3303
  176SAPI   O2220004   5.166   5.215   6.674 -0.1851  0.1179  0.2719
  176SAPI   C2220005   4.983   5.362   6.732  0.4800 -0.0856 -0.1111
  176SAPI   H2R20006   4.922   5.420   6.659 -0.7724 -0.3153  0.7344
  176SAPI   H2S20007   4.914   5.278   6.753 -0.0398  0.6576  1.2631
  176SAPI    C320008   5.282   5.511   6.407 -1.2554  0.4486 -0.0247
  176SAPI    HX20009   5.193   5.571   6.378 -1.9466 -0.0287  1.0419
  176SAPI    HY20010   5.341   5.494   6.315 -1.4659 -2.5445  0.3027
  176SAPI   O3120011   5.355   5.578   6.504 -0.2029  0.3350 -0.0383
  176SAPI   C3120012   5.479   5.544   6.528  0.4223  0.5188 -0.5634
  176SAPI   O3220013   5.542   5.466   6.459  0.0437 -0.8229  0.4744
  176SAPI   C3220014   5.513   5.593   6.668  0.0463 -0.2585 -0.5220
  176SAPI   H2X20015   5.468   5.689   6.702  1.0040  0.2250 -0.5994
  176SAPI   H2Y20016   5.620   5.589   6.696 -0.0902 -2.2389 -0.1130
  176SAPI   C2320017   5.011   5.444   6.852 -0.8031  0.5188 -0.3214
  176SAPI   H3R20018   5.075   5.533   6.833 -0.5728  0.3926 -0.1377
  176SAPI   H3S20019   5.065   5.380   6.925 -1.5794 -1.3274 -1.2768
  176SAPI   C2420020   4.881   5.496   6.922  0.0376 -0.4059 -0.4194
  176SAPI   H4R20021   4.822   5.548   6.844  1.3344 -1.2324 -2.0155
  176SAPI   H4S20022   4.914   5.572   6.996 -2.6835  0.6650 -0.1785
  176SAPI   C2520023   4.800   5.391   6.997 -0.1494  0.8808  0.2817
  176SAPI   H5R20024   4.747   5.324   6.928 -0.6664  0.9069  0.6444
  176SAPI   C2620025   4.788   5.362   7.126  0.7924  0.0352 -0.3764
  176SAPI   H6R20026   4.727   5.276   7.155  1.7000 -0.5563 -0.1783
  176SAPI   C2720027   4.852   5.436   7.242 -0.9931  0.5220  0.0522
  176SAPI   H7R20028   4.914   5.523   7.210 -1.5440  0.9099  0.0304
  176SAPI   H7S20029   4.931   5.375   7.291 -2.1977  1.2485  3.0894
  176SAPI   C2820030   4.774   5.499   7.352  0.0691  0.5367  0.0960
  176SAPI   H8R20031   4.749   5.604   7.331 -1.6284  0.3169  0.8462
  176SAPI   C2920032   4.716   5.447   7.464  0.0936  0.6281 -0.5603
  176SAPI   H9R20033   4.646   5.510   7.521 -0.6212 -1.9490  1.6160
  176SAPI  C21020034   4.744   5.305   7.517 -0.1062  0.2809 -0.1689
  176SAPI  H10R20035   4.830   5.302   7.587  0.0857  0.5781 -0.3878
  176SAPI  H10S20036   4.757   5.237   7.430 -2.8346 -0.6723  0.0629
  176SAPI  C21120037   4.608   5.261   7.591 -0.1461 -0.9879 -0.3474
  176SAPI  H11R20038   4.530   5.228   7.521 -0.3452 -0.1661 -0.5261
  176SAPI  C21220039   4.588   5.230   7.725 -0.3242 -0.2382  0.2881
  176SAPI  H12R20040   4.485   5.204   7.752 -0.8602 -0.8220 -2.0704
  176SAPI  C21320041   4.688   5.237   7.838 -0.2206 -0.3180 -0.2014
  176SAPI  H13R20042   4.652   5.290   7.928 -0.2529  0.9099 -0.9120
  176SAPI  H13S20043   4.773   5.296   7.799 -0.5062 -0.8138 -1.6600
  176SAPI  C21420044   4.741   5.099   7.877  0.3403 -0.3379  0.1114
  176SAPI  H14R20045   4.808   5.050   7.805 -0.1941  2.0548 -2.1769
  176SAPI  C21520046   4.684   5.038   7.981  0.0140  0.4592  0.1472
  176SAPI  H15R20047   4.722   4.937   8.006 -1.4628 -0.8525 -2.4256
  176SAPI  C21620048   4.568   5.081   8.071  0.1979 -0.0401 -0.1125
  176SAPI  H16R20049   4.508   4.995   8.108 -2.2840  1.0169 -1.4553
  176SAPI  H16S20050   4.492   5.130   8.006 -1.9811 -2.1605  0.6824
  176SAPI  C21720051   4.618   5.164   8.188 -0.4960  0.2180  0.1187
  176SAPI  H17R20052   4.707   5.220   8.153 -1.5507  1.5252 -0.5978
  176SAPI  H17S20053   4.646   5.089   8.265  0.4111 -0.1536 -0.5572
  176SAPI  C21820054   4.502   5.250   8.256 -0.1899 -0.1453 -0.5846
  176SAPI  H18R20055   4.455   5.300   8.168 -1.6588 -2.2290 -1.0627
  176SAPI  H18S20056   4.548   5.321   8.328 -0.6300 -0.5074  0.0657
  176SAPI  C21920057   4.385   5.175   8.322 -0.6816  0.3667 -0.1977
  176SAPI  H19R20058   4.341   5.098   8.255 -2.8583  1.0627  0.3660
  176SAPI  H19S20059   4.302   5.244   8.346 -0.2616  0.5089  0.9039
  176SAPI  C22020060   4.419   5.104   8.450 -0.3860  0.6823  0.4285
  176SAPI  H20R20061   4.497   5.028   8.426  0.7200  0.9193  2.9629
  176SAPI  H20S20062   4.328   5.062   8.497  0.3264 -0.4170  0.8929
  176SAPI  H20T20063   4.464   5.173   8.525  1.1040 -0.4203  0.6095
  176SAPI   C3320064   5.468   5.479   6.765 -0.1866 -0.1223 -0.7207
  176SAPI   H3X20065   5.518   5.382   6.743 -1.3893 -0.6818 -1.0988
  176SAPI   H3Y20066   5.360   5.456   6.750 -0.8249  1.9138  0.3710
  176SAPI   C3420067   5.478   5.519   6.915  0.5152  0.2866 -0.7138
  176SAPI   H4X20068   5.411   5.604   6.941 -0.3605 -0.0348 -1.8023
  176SAPI   H4Y20069   5.579   5.559   6.938  0.8403 -0.1716 -1.3079
  176SAPI   C3520070   5.460   5.390   7.001  0.1196 -0.8538  0.6197
  176SAPI   H5X20071   5.544   5.322   6.972  0.2782 -0.6099  0.5067
  176SAPI   H5Y20072   5.366   5.336   6.980 -2.2191  3.1959 -0.2693
  176SAPI   C3620073   5.475   5.432   7.148 -0.0292  0.3670 -0.6215
  176SAPI   H6X20074   5.543   5.518   7.166 -1.0525  1.4535 -1.7501
  176SAPI   H6Y20075   5.512   5.349   7.212  0.7770  2.0940  1.2695
  176SAPI   C3720076   5.338   5.461   7.208  0.1015  0.3451  0.1708
  176SAPI   H7X20077   5.269   5.376   7.189 -0.9144  1.0861  0.4131
  176SAPI   H7Y20078   5.292   5.542   7.148  0.9899  0.7390  0.0144
  176SAPI   C3820079   5.329   5.490   7.360 -1.2056 -0.0435  0.6896
  176SAPI   H8X20080   5.356   5.595   7.384  0.1684 -0.2812  0.2329
  176SAPI   H8Y20081   5.396   5.420   7.415  0.4685  2.0441  1.4180
  176SAPI   C3920082   5.197   5.477   7.432 -0.2105  0.5100  0.3663
  176SAPI   H9X20083   5.157   5.373   7.433 -1.5306  0.9939  1.2855
  176SAPI   H9Y20084   5.130   5.551   7.383 -0.9512 -0.2063  0.2786
  176SAPI  C31020085   5.197   5.519   7.585 -0.4201 -0.2764 -0.7580
  176SAPI  H10X20086   5.095   5.503   7.628 -0.0808 -0.3392  0.0387
  176SAPI  H10Y20087   5.215   5.628   7.591  0.6541 -0.4775 -0.1584
  176SAPI  C31120088   5.305   5.440   7.661  0.6487 -0.0780 -0.4831
  176SAPI  H11X20089   5.406   5.482   7.645  1.4924 -1.5548  0.7435
  176SAPI  H11Y20090   5.296   5.334   7.629 -0.1554 -0.7335  1.7411
  176SAPI  C31220091   5.288   5.442   7.815  0.8485 -0.2831  0.3225
  176SAPI  H12X20092   5.298   5.549   7.845 -0.4325 -0.3138  0.9676
  176SAPI  H12Y20093   5.371   5.398   7.873  0.9897  1.4978  1.5710
  176SAPI  C31320094   5.156   5.383   7.865  0.0962  0.1097  0.3227
  176SAPI  H13X20095   5.140   5.279   7.829  0.6511  0.2980 -0.5181
  176SAPI  H13Y20096   5.073   5.444   7.825 -1.5861 -2.2662  0.0084
  176SAPI  C31420097   5.150   5.373   8.022  0.1705 -0.0735 -0.4699
  176SAPI  H14X20098   5.047   5.412   8.041 -0.1820 -1.3243  0.2436
  176SAPI  H14Y20099   5.220   5.444   8.071 -0.9547 -0.2151  1.4184
  176SAPI  C31520100   5.179   5.224   8.067  0.3247 -0.1094 -0.1399
  176SAPI  H15X20101   5.287   5.203   8.056  0.0477 -0.6021 -2.3268
  176SAPI  H15Y20102   5.123   5.157   7.998  0.5052  0.4117 -0.8032
  176SAPI  C31620103   5.134   5.195   8.207 -0.0300  0.1911 -0.3365
  176SAPI  H16X20104   5.023   5.192   8.220  0.1730  1.1903  2.3568
  176SAPI  H16Y20105   5.151   5.273   8.284 -0.0959 -0.3088  0.1942
  176SAPI  C31720106   5.170   5.050   8.247 -0.3699  0.2040  0.7071
  176SAPI  H17X20107   5.272   5.057   8.291 -0.7308  0.0848  1.6016
  176SAPI  H17Y20108   5.169   4.986   8.157  0.0558  1.9243 -0.5766
  176SAPI  C31820109   5.081   4.992   8.355 -1.2004  0.0199  0.4616
  176SAPI  H18X20110   5.100   5.048   8.448  0.1047 -0.8544  0.7404
  176SAPI  H18Y20111   5.108   4.884   8.366  0.6883 -0.2823 -4.6037
  176SAPI  H18Z20112   4.974   4.988   8.323 -1.9398  0.0890  2.7787
  177SLPC     N20113   1.252   3.419  10.552 -0.4126 -0.3911  0.1205
  177SLPC   C1320114   1.196   3.419  10.693 -0.2688 -0.3189  0.2584
  177SLPC  H13A20115   1.167   3.518  10.728 -2.6366 -1.4252  1.6557
  177SLPC  H13B20116   1.105   3.362  10.697  0.1186 -1.1755 -2.0609
  177SLPC  H13C20117   1.264   3.372  10.762  1.0188 -0.8730 -1.3371
  177SLPC   C1420118   1.152   3.484  10.467 -0.0654 -0.1097 -0.3309
  177SLPC  H14A20119   1.189   3.489  10.366 -1.2414 -0.8921 -0.8313
  177SLPC  H14B20120   1.063   3.423  10.459  0.5700 -0.9854 -0.9690
  177SLPC  H14C20121   1.130   3.588  10.484 -0.0419 -0.1735  0.1067
  177SLPC   C1520122   1.277   3.274  10.522  0.7488  0.3791 -0.4696
  177SLPC  H15A20123   1.188   3.224  10.487  0.2955  0.0429  1.0827
  177SLPC  H15B20124   1.358   3.270  10.450  1.0064  0.2630 -0.1779
  177SLPC  H15C20125   1.307   3.210  10.604 -0.7638  0.0944 -0.1144
  177SLPC   C1220126   1.376   3.509  10.562 -0.2131  0.1532 -0.1273
  177SLPC  H12A20127   1.435   3.465  10.641 -0.9218 -2.3531 -0.9176
  177SLPC  H12B20128   1.344   3.606  10.598 -1.0926  1.3294 -3.7221
  177SLPC   C1120129   1.454   3.531  10.431  0.0482 -0.4204  0.4143
  177SLPC  H11A20130   1.530   3.611  10.447  0.0535 -0.1353 -0.8741
  177SLPC  H11B20131   1.382   3.575  10.358  2.3133  2.3980 -0.2773
  177SLPC     P20132   1.649   3.363  10.444 -0.3521  0.3015  0.1986
  177SLPC   O1320133   1.744   3.477  10.463  0.0476 -0.1956  0.3036
  177SLPC   O1420134   1.615   3.279  10.564  0.1250  0.3938  0.1947
  177SLPC   O1220135   1.515   3.410  10.385 -0.7081  0.2081  0.2047
  177SLPC   O1120136   1.721   3.274  10.331  0.2636  0.0738 -0.2342
  177SLPC    C120137   1.690   3.295  10.195  0.2810  0.4035  0.0199
  177SLPC    HA20138   1.688   3.192  10.153  1.6705  1.0020 -1.6711
  177SLPC    HB20139   1.596   3.351  10.174 -0.4480 -0.9647 -0.4915
  177SLPC    C220140   1.805   3.371  10.122 -0.3379 -0.2072 -1.1920
  177SLPC    HS20141   1.769   3.475  10.111 -1.6003 -0.2862  1.4626
  177SLPC   O2120142   1.839   3.315   9.993 -0.4802  0.4632  0.0269
  177SLPC   C2120143   1.745   3.333   9.900 -0.6283  0.1542  0.5657
  177SLPC   O2220144   1.644   3.394   9.919 -0.6426  0.0106 -0.4391
  177SLPC   C2220145   1.795   3.279   9.765 -0.1578  0.1255  0.3464
  177SLPC   H2R20146   1.900   3.311   9.749 -0.8139  1.5318 -1.4126
  177SLPC   H2S20147   1.791   3.168   9.760 -1.6793  0.1884 -0.2742
  177SLPC    C320148   1.942   3.368  10.206 -0.1827  0.2420  0.5391
  177SLPC    HX20149   1.967   3.259  10.214  0.5789  0.2570 -1.0727
  177SLPC    HY20150   1.932   3.407  10.309  0.5070 -1.0762  1.1425
  177SLPC   O3120151   2.053   3.427  10.132  0.0232  1.0299 -0.3701
  177SLPC   C3120152   2.051   3.559  10.128  0.6762  0.4830 -0.5703
  177SLPC   O3220153   1.970   3.633  10.177  0.2215 -0.2036  0.1667
  177SLPC   C3220154   2.171   3.607  10.050 -0.0238 -0.7196  0.2928
  177SLPC   H2X20155   2.212   3.524   9.989  0.2298 -0.3678 -0.0188
  177SLPC   H2Y20156   2.243   3.639  10.128 -2.0739  2.1598  1.1764
  177SLPC   C2320157   1.707   3.327   9.649 -0.0698  0.0128 -0.4608
  177SLPC   H3R20158   1.730   3.432   9.619  0.7017 -0.1945 -0.6332
  177SLPC   H3S20159   1.602   3.312   9.679 -0.3416 -0.1407 -1.4332
  177SLPC   C2420160   1.723   3.244   9.517 -0.5469  0.1509  0.4057
  177SLPC   H4R20161   1.634   3.265   9.454 -1.4079 -1.0795  1.1581
  177SLPC   H4S20162   1.717   3.139   9.551 -0.7688 -1.0285 -2.9273
  177SLPC   C2520163   1.853   3.287   9.448 -0.2354 -0.7217  0.0357
  177SLPC   H5R20164   1.945   3.244   9.493  0.0444  0.9044  1.0849
  177SLPC   H5S20165   1.858   3.397   9.452  2.4251 -0.6441 -2.5820
  177SLPC   C2620166   1.855   3.237   9.299  0.0904 -0.1086 -0.0636
  177SLPC   H6R20167   1.810   3.317   9.237 -0.1562 -1.8639 -2.2979
  177SLPC   H6S20168   1.780   3.155   9.297  3.3387 -3.3480 -0.8204
  177SLPC   C2720169   1.987   3.179   9.256 -0.4829  0.6949 -0.0794
  177SLPC   H7R20170   1.999   3.165   9.147 -1.6466  2.3528 -0.4632
  177SLPC   H7S20171   1.995   3.086   9.317  1.9101 -0.4832 -2.0529
  177SLPC   C2820172   2.101   3.268   9.289 -0.6142 -0.2703 -0.6476
  177SLPC   H8R20173   2.131   3.261   9.396  0.6141 -1.8666 -1.0543
  177SLPC   H8S20174   2.072   3.374   9.274 -1.5882 -0.2043  1.3195
  177SLPC   C2920175   2.221   3.244   9.208 -0.0010 -0.2930  0.4506
  177SLPC   H9R20176   2.272   3.155   9.247 -0.9720 -0.4864  1.3536
  177SLPC  C21020177   2.251   3.297   9.086 -0.0792 -0.1267 -0.4333
  177SLPC  H10R20178   2.353   3.269   9.056 -0.3102  0.5174 -1.8990
  177SLPC  C21120179   2.185   3.422   9.030  0.4298 -0.0075 -0.5376
  177SLPC  H11R20180   2.082   3.406   8.991  0.2855  2.3684 -1.2417
  177SLPC  H11S20181   2.183   3.508   9.099  0.7011  2.2396 -3.1800
  177SLPC  C21220182   2.250   3.482   8.905 -0.4391 -0.0907  0.1307
  177SLPC  H12R20183   2.273   3.409   8.826 -3.0180 -1.1305  0.2522
  177SLPC  C21320184   2.287   3.614   8.885 -0.4864 -0.5548 -0.4687
  177SLPC  H13R20185   2.330   3.646   8.789  0.1282 -1.6456 -0.5751
  177SLPC  C21420186   2.285   3.723   8.990  0.0901 -0.4398 -0.1850
  177SLPC  H14R20187   2.181   3.740   9.026  0.4554 -0.7333  1.0511
  177SLPC  H14S20188   2.325   3.815   8.943  0.3255 -1.0015 -1.0992
  177SLPC  C21520189   2.383   3.687   9.109 -0.2515  0.0193 -0.1379
  177SLPC  H15R20190   2.481   3.666   9.061 -0.0106 -0.1646  0.4273
  177SLPC  H15S20191   2.347   3.605   9.175 -1.2187  1.3029  0.9793
  177SLPC  C21620192   2.407   3.806   9.204  0.5274 -0.0880 -0.2313
  177SLPC  H16R20193   2.409   3.895   9.138 -0.5747 -1.3180 -2.0045
  177SLPC  H16S20194   2.508   3.807   9.253  0.1121  1.8325  0.6758
  177SLPC  C21720195   2.298   3.815   9.317  0.2709  0.0721 -0.6885
  177SLPC  H17R20196   2.199   3.798   9.270 -0.0082  2.9798 -1.3400
  177SLPC  H17S20197   2.298   3.921   9.349 -1.6549 -0.3665  1.0279
  177SLPC  C21820198   2.317   3.729   9.449 -0.0646 -0.3657  0.2584
  177SLPC  H18R20199   2.239   3.761   9.521  0.9419 -1.1132  1.7280
  177SLPC  H18S20200   2.421   3.738   9.488 -0.2147  0.8225  0.4108
  177SLPC  H18T20201   2.300   3.621   9.427 -2.1163  0.1611 -0.9359
  177SLPC   C3320202   2.146   3.723   9.960  0.5053 -1.3053  0.6731
  177SLPC   H3X20203   2.142   3.820  10.014  0.3711 -0.5348 -0.6726
  177SLPC   H3Y20204   2.050   3.715   9.905  0.7494 -2.2604  0.3661
  177SLPC   C3420205   2.248   3.736   9.844  0.2282  0.3090  0.1728
  177SLPC   H4X20206   2.214   3.810   9.768 -0.8845 -1.6756 -1.3429
  177SLPC   H4Y20207   2.247   3.639   9.791 -0.4982  0.6923 -0.5450
  177SLPC   C3520208   2.383   3.765   9.909  0.0303 -0.2045 -0.1891
  177SLPC   H5X20209   2.405   3.691   9.990 -0.8212 -0.4448 -0.1600
  177SLPC   H5Y20210   2.387   3.867   9.952 -0.1942 -0.0261 -0.5868
  177SLPC   C3620211   2.495   3.753   9.806 -0.1856  0.3083  0.3244
  177SLPC   H6X20212   2.457   3.689   9.724  0.6019  0.8999 -0.5172
  177SLPC   H6Y20213   2.586   3.711   9.853  0.5967  0.5362 -0.9513
  177SLPC   C3720214   2.525   3.894   9.758 -0.0254  0.4794 -0.1427
  177SLPC   H7X20215   2.542   3.967   9.840 -2.2955 -0.0656  0.8804
  177SLPC   H7Y20216   2.427   3.929   9.719 -1.1134 -1.0829  1.0403
  177SLPC   C3820217   2.636   3.904   9.656 -0.1065 -0.0289  0.2875
  177SLPC   H8X20218   2.598   3.850   9.566 -1.2747  1.7337 -0.3312
  177SLPC   H8Y20219   2.730   3.866   9.700  0.1428  0.7737  0.4667
  177SLPC   C3920220   2.650   4.050   9.616 -0.7817  0.6971  0.2663
  177SLPC   H9X20221   2.725   4.101   9.681 -1.4686  0.5191  1.2199
  177SLPC   H9Y20222   2.553   4.104   9.609  0.4283  3.4006  2.2097
  177SLPC  C31020223   2.696   4.064   9.470 -0.5436 -0.1276 -0.3908
  177SLPC  H10X20224   2.636   3.999   9.403 -0.5164 -0.2878 -0.2619
  177SLPC  H10Y20225   2.803   4.033   9.464 -1.0839 -2.0495 -1.0027
  177SLPC  C31120226   2.688   4.214   9.416  0.1529  0.0828 -0.2558
  177SLPC  H11X20227   2.751   4.285   9.473 -1.0110  0.4164  0.6460
  177SLPC  H11Y20228   2.581   4.237   9.432  0.2058  1.3133 -1.5014
  177SLPC  C31220229   2.721   4.223   9.263  0.4331  0.3267  0.9153
  177SLPC  H12X20230   2.695   4.329   9.244  1.2159  0.2981 -0.4723
  177SLPC  H12Y20231   2.644   4.169   9.202 -0.9112  2.7909  0.2947
  177SLPC  C31320232   2.870   4.189   9.225 -0.0925  0.7080  0.1910
  177SLPC  H13X20233   2.887   4.079   9.221  0.7567  0.6778  2.9651
  177SLPC  H13Y20234   2.948   4.220   9.297  1.8997 -0.3945 -1.3648
  177SLPC  C31420235   2.883   4.241   9.078  0.0867  0.4957  0.3024
  177SLPC  H14X20236   2.859   4.349   9.065  1.2358  0.3852 -4.7664
  177SLPC  H14Y20237   2.803   4.196   9.016 -1.4707  1.1266  1.7610
  177SLPC  C31520238   3.028   4.234   9.021  0.3241 -0.0711  0.5630
  177SLPC  H15X20239   3.059   4.130   8.997 -0.0235  0.3806 -2.0938
  177SLPC  H15Y20240   3.102   4.268   9.096  1.6046  0.8804 -1.0673
  177SLPC  C31620241   3.039   4.316   8.888  0.5018 -0.2851 -0.7301
  177SLPC  H16X20242   3.144   4.343   8.865 -0.3756  4.2410 -0.2753
  177SLPC  H16Y20243   2.990   4.411   8.917 -0.2135 -0.3890 -1.5346
  177SLPC  C31720244   2.981   4.235   8.770  0.0947  0.1624  0.5728
  177SLPC  H17X20245   2.879   4.206   8.804 -0.2886  0.9869  0.1414
  177SLPC  H17Y20246   3.040   4.141   8.763  0.9132  0.4674  2.6081
  177SLPC  C31820247   2.982   4.309   8.639  0.6765  1.3982  0.4881
  177SLPC  H18X20248   2.927   4.403   8.657 -0.6549  0.6905  0.2895
  177SLPC  H18Y20249   2.929   4.254   8.557  1.4165  0.9970  0.2680
  177SLPC  H18Z20250   3.087   4.332   8.612  0.5120  1.0214 -0.5225
  178SLPC     N20251   4.777   4.107  11.045  0.2688 -0.3212 -0.2722
  178SLPC   C1320252   4.761   4.250  11.090 -0.4378 -0.1613 -0.2854
  178SLPC  H13A20253   4.856   4.302  11.083  0.1518 -1.0034  1.0642
  178SLPC  H13B20254   4.683   4.306  11.040  1.4503  3.9902  0.9484
  178SLPC  H13C20255   4.729   4.263  11.192 -0.3287  0.7005 -0.3478
  178SLPC   C1420256   4.651   4.044  11.083  0.5514 -0.3256  0.0667
  178SLPC  H14A20257   4.561   4.077  11.034 -0.0612 -0.2588  1.1968
  178SLPC  H14B20258   4.653   3.938  11.061 -1.8702 -0.3086 -0.4887
  178SLPC  H14C20259   4.639   4.065  11.189  1.9759  1.3677 -0.0566
  178SLPC   C1520260   4.885   4.050  11.128  0.0014  1.0458  0.4825
  178SLPC  H15A20261   4.979   4.079  11.083 -1.2288  0.3334 -2.8289
  178SLPC  H15B20262   4.891   4.071  11.233  1.7642 -1.3455  0.9315
  178SLPC  H15C20263   4.886   3.942  11.132  1.5341  0.7831 -2.8933
  178SLPC   C1220264   4.801   4.096  10.899 -0.2430 -0.1096  0.7078
  178SLPC  H12A20265   4.713   4.116  10.840  0.1551 -3.6334 -1.3732
  178SLPC  H12B20266   4.822   3.992  10.880  1.6382 -0.3462  3.4662
  178SLPC   C1120267   4.913   4.185  10.839 -0.5201 -0.2865 -0.0233
  178SLPC  H11A20268   4.893   4.292  10.864 -2.1371 -0.4821 -0.3283
  178SLPC  H11B20269   4.894   4.191  10.730  0.0376  2.7338 -0.0481
  178SLPC     P20270   5.147   4.046  10.820  0.2763  0.5540 -0.1412
  178SLPC   O1320271   5.276   4.074  10.890 -0.2420 -0.1022 -0.7054
  178SLPC   O1420272   5.091   3.909  10.835 -0.0611  0.0637  0.6882
  178SLPC   O1220273   5.042   4.144  10.886 -0.0060 -0.5648 -0.7070
  178SLPC   O1120274   5.151   4.079  10.667 -0.9578 -0.1227  0.0719
  178SLPC    C120275   5.189   4.207  10.615 -0.0446  0.2043  0.5588
  178SLPC    HA20276   5.210   4.275  10.701  1.9698 -1.7928  1.7369
  178SLPC    HB20277   5.283   4.192  10.557 -0.3953  1.5458 -0.4154
  178SLPC    C220278   5.084   4.273  10.522  1.1574 -0.0678 -0.0769
  178SLPC    HS20279   4.988   4.293  10.575  0.9885  0.9754 -0.7557
  178SLPC   O2120280   5.070   4.199  10.406  0.3368  0.2917 -0.5165
  178SLPC   C2120281   4.946   4.141  10.402 -0.3353 -0.0916 -0.1917
  178SLPC   O2220282   4.853   4.163  10.476  0.8406 -0.0250 -0.1890
  178SLPC   C2220283   4.939   4.046  10.279  0.7926 -0.3656 -0.5904
  178SLPC   H2R20284   5.020   4.068  10.206  0.8058  0.4649 -0.3269
  178SLPC   H2S20285   4.960   3.943  10.314 -1.9207 -1.0224 -0.6354
  178SLPC    C320286   5.122   4.420  10.494 -0.6949  0.3538 -0.2835
  178SLPC    HX20287   5.221   4.425  10.443 -1.2584  2.7316 -1.2412
  178SLPC    HY20288   5.132   4.461  10.597  1.0461 -1.7351  0.4755
  178SLPC   O3120289   5.018   4.482  10.415 -0.6422 -0.0813  0.5315
  178SLPC   C3120290   5.056   4.559  10.315 -0.2088  0.4323  0.2100
  178SLPC   O3220291   5.168   4.593  10.287 -0.7503  0.4152 -0.6405
  178SLPC   C3220292   4.934   4.594  10.237 -0.3176 -0.4467  1.0238
  178SLPC   H2X20293   4.898   4.697  10.261  2.7825  0.7054  1.1553
  178SLPC   H2Y20294   4.847   4.527  10.255 -1.7201  1.0955  0.3338
  178SLPC   C2320295   4.792   4.043  10.224 -0.2433 -0.2320 -0.5958
  178SLPC   H3R20296   4.765   4.145  10.189  3.2512  0.1151 -2.6859
  178SLPC   H3S20297   4.730   4.019  10.313  1.7595  0.4155  1.0324
  178SLPC   C2420298   4.764   3.952  10.105 -0.0944 -0.1746  0.1428
  178SLPC   H4R20299   4.659   3.917  10.094 -0.3905  0.8002 -0.2359
  178SLPC   H4S20300   4.818   3.857  10.124  2.5011  0.6983 -2.2638
  178SLPC   C2520301   4.818   4.011   9.978  0.8010 -0.1103  0.5395
  178SLPC   H5R20302   4.927   4.034   9.971  0.5140  1.0424 -0.4122
  178SLPC   H5S20303   4.769   4.110   9.965  1.6049  0.7285  3.2353
  178SLPC   C2620304   4.780   3.924   9.858 -0.1305 -0.1389 -0.6979
  178SLPC   H6R20305   4.670   3.926   9.849 -0.1875  2.4669 -0.2169
  178SLPC   H6S20306   4.820   3.824   9.886 -0.3009  0.4355  1.8576
  178SLPC   C2720307   4.838   3.972   9.721  0.1619  0.3977 -0.4152
  178SLPC   H7R20308   4.948   3.985   9.727  0.5884 -1.1217 -3.0534
  178SLPC   H7S20309   4.788   4.070   9.705 -0.4925 -0.1638 -2.0308
  178SLPC   C2820310   4.803   3.878   9.607 -0.3111 -0.7412 -0.2969
  178SLPC   H8R20311   4.866   3.786   9.612  0.2770 -0.3299 -0.0474
  178SLPC   H8S20312   4.840   3.937   9.521 -0.8479  1.9258  1.2092
  178SLPC   C2920313   4.653   3.847   9.602 -0.3138  0.6982  0.2613
  178SLPC   H9R20314   4.623   3.771   9.676  2.4344  0.6257  1.4361
  178SLPC  C21020315   4.553   3.901   9.524 -0.7689  0.5036 -0.3801
  178SLPC  H10R20316   4.453   3.856   9.532 -0.4557 -0.1105  0.1368
  178SLPC  C21120317   4.569   4.004   9.417 -0.0730 -0.1153 -0.0362
  178SLPC  H11R20318   4.573   3.953   9.319  3.4561  0.0321 -0.0979
  178SLPC  H11S20319   4.663   4.062   9.423 -1.9864  3.3115 -0.7766
  178SLPC  C21220320   4.461   4.110   9.436  0.2707  0.8236 -0.5243
  178SLPC  H12R20321   4.448   4.152   9.537  0.2544  0.4409 -0.3665
  178SLPC  C21320322   4.374   4.152   9.345  0.9150  0.3758  0.0927
  178SLPC  H13R20323   4.303   4.234   9.366  0.3298 -0.3543  1.0262
  178SLPC  C21420324   4.351   4.110   9.201  0.2159 -0.1979 -0.1788
  178SLPC  H14R20325   4.252   4.060   9.201  0.1332 -0.2194 -3.3388
  178SLPC  H14S20326   4.424   4.032   9.169  0.2209 -1.1814  2.0254
  178SLPC  C21520327   4.355   4.219   9.094  0.6144 -0.4929  0.1095
  178SLPC  H15R20328   4.461   4.240   9.070  0.7136  1.5713  1.9550
  178SLPC  H15S20329   4.303   4.314   9.121 -0.4831  0.0265 -3.2582
  178SLPC  C21620330   4.288   4.178   8.963 -1.5034 -0.3233  0.6600
  178SLPC  H16R20331   4.221   4.090   8.973 -2.0664  0.0744  0.4348
  178SLPC  H16S20332   4.364   4.152   8.886 -1.3171  0.2453  0.6434
  178SLPC  C21720333   4.206   4.292   8.902  0.0143 -0.1389 -0.6047
  178SLPC  H17R20334   4.123   4.319   8.971  1.3907  0.0476  1.0462
  178SLPC  H17S20335   4.155   4.256   8.810 -0.7520  0.2731 -0.3519
  178SLPC  C21820336   4.277   4.422   8.869 -0.0374  0.2001 -0.3945
  178SLPC  H18R20337   4.324   4.419   8.769  2.8979 -1.9848  0.9096
  178SLPC  H18S20338   4.363   4.441   8.938 -0.4692  0.0471  0.1912
  178SLPC  H18T20339   4.211   4.511   8.874  0.4344  0.5457 -0.1258
  178SLPC   C3320340   4.965   4.583  10.085 -0.2458  0.2372 -0.6955
  178SLPC   H3X20341   4.991   4.479  10.057  2.7018  0.8642 -0.6271
  178SLPC   H3Y20342   5.055   4.642  10.057 -0.2275  0.4283 -0.2339
  178SLPC   C3420343   4.843   4.629   9.997  0.0366 -0.0886  0.0414
  178SLPC   H4X20344   4.832   4.734  10.032  0.1779 -0.5414  1.5077
  178SLPC   H4Y20345   4.756   4.572  10.037 -0.7540  1.4742  0.6617
  178SLPC   C3520346   4.867   4.622   9.850  0.1049  0.7427 -0.2558
  178SLPC   H5X20347   4.884   4.515   9.824  3.7083  1.4067 -1.2446
  178SLPC   H5Y20348   4.963   4.675   9.835  0.0595  1.2853  1.1956
  178SLPC   C3620349   4.772   4.692   9.759  1.0321  0.1934  0.4966
  178SLPC   H6X20350   4.770   4.803   9.765 -0.2242  0.2352 -0.3428
  178SLPC   H6Y20351   4.667   4.665   9.785  1.4663 -1.3063  0.8035
  178SLPC   C3720352   4.799   4.654   9.615 -0.6455 -0.3933  0.3048
  178SLPC   H7X20353   4.710   4.686   9.557 -1.0575  1.0545  1.6684
  178SLPC   H7Y20354   4.803   4.544   9.600  0.3284 -0.1915 -1.0814
  178SLPC   C3820355   4.922   4.727   9.560 -0.2267 -0.2783 -0.1070
  178SLPC   H8X20356   5.012   4.679   9.604  0.5052 -0.1046 -1.3813
  178SLPC   H8Y20357   4.920   4.834   9.590 -0.4159 -0.2274 -0.2950
  178SLPC   C3920358   4.939   4.719   9.403 -0.6872 -0.8814  0.0084
  178SLPC   H9X20359   4.872   4.794   9.355 -0.5885 -0.3983  0.6080
  178SLPC   H9Y20360   4.895   4.621   9.375  0.2568 -1.3907  0.2692
  178SLPC  C31020361   5.084   4.732   9.364 -0.3174 -0.5256  0.2305
  178SLPC  H10X20362   5.139   4.639   9.391  1.2187  0.4717  0.6750
  178SLPC  H10Y20363   5.134   4.812   9.423 -2.7768  1.2980 -0.0339
  178SLPC  C31120364   5.101   4.771   9.217  0.0794  0.1015  0.1282
  178SLPC  H11X20365   5.210   4.776   9.196  0.3541  0.3598  1.5108
  178SLPC  H11Y20366   5.051   4.867   9.194  1.5036  1.0165  0.7490
  178SLPC  C31220367   5.042   4.664   9.121 -0.4379  0.3126 -0.7982
  178SLPC  H12X20368   4.933   4.645   9.117  0.0746 -3.1049 -2.8843
  178SLPC  H12Y20369   5.069   4.564   9.161 -3.4965 -0.6621 -0.9603
  178SLPC  C31320370   5.085   4.670   8.971 -0.1050  0.1815 -0.3348
  178SLPC  H13X20371   5.027   4.589   8.923 -0.0113 -0.3347  0.4030
  178SLPC  H13Y20372   5.195   4.653   8.960 -0.1895 -0.2247 -0.5834
  178SLPC  C31420373   5.062   4.803   8.903  0.1180 -0.7088  0.4027
  178SLPC  H14X20374   5.074   4.883   8.979  1.8403 -0.9460  0.4269
  178SLPC  H14Y20375   4.957   4.791   8.867  0.0686  1.8221 -0.4661
  178SLPC  C31520376   5.127   4.845   8.771  0.7291 -0.3070 -0.3452
  178SLPC  H15X20377   5.071   4.932   8.730  0.1178 -1.2587 -1.6430
  178SLPC  H15Y20378   5.228   4.885   8.793  0.4028  0.8733 -0.8970
  178SLPC  C31620379   5.128   4.736   8.669  0.3000 -0.8112  0.5993
  178SLPC  H16X20380   5.188   4.659   8.721  0.5321 -1.0441  0.0039
  178SLPC  H16Y20381   5.184   4.780   8.583  0.2931 -2.2259 -0.1564
  178SLPC  C31720382   4.993   4.688   8.601  0.1764  0.1221 -0.5326
  178SLPC  H17X20383   4.938   4.773   8.557 -0.0723 -1.1322 -2.8220
  178SLPC  H17Y20384   4.924   4.637   8.672 -1.8570  3.1090 -0.1846
  178SLPC  C31820385   5.022   4.587   8.487 -0.9465 -0.1938  0.2907
  178SLPC  H18X20386   5.065   4.490   8.519 -1.4913 -0.6174 -0.2297
  178SLPC  H18Y20387   5.081   4.633   8.406  0.3519  1.2201  1.9621
  178SLPC  H18Z20388   4.931   4.549   8.435 -1.7479  1.3050  0.5364
  179SLPC     N20389   4.824   2.860  10.698  0.7665  0.7394  0.0831
  179SLPC   C1320390   4.866   2.775  10.813  0.4022 -0.2066 -0.1875
  179SLPC  H13A20391   4.971   2.751  10.809  0.3968 -0.2187 -0.2560
  179SLPC  H13B20392   4.843   2.831  10.903 -2.1275 -0.4963 -0.5558
  179SLPC  H13C20393   4.812   2.681  10.813  2.8068 -1.6683  0.4316
  179SLPC   C1420394   4.880   2.797  10.568  0.4053 -0.0189 -0.8222
  179SLPC  H14A20395   4.986   2.813  10.559  0.1726  1.5133 -1.2262
  179SLPC  H14B20396   4.854   2.693  10.561  2.4378 -0.9375  2.9891
  179SLPC  H14C20397   4.832   2.851  10.487 -0.0964  2.3647  0.9378
  179SLPC   C1520398   4.870   2.992  10.723  0.3833 -0.6047 -0.4779
  179SLPC  H15A20399   4.820   3.070  10.667 -1.7014 -0.4141  1.5097
  179SLPC  H15B20400   4.856   3.015  10.827  1.5263 -2.2865  0.0978
  179SLPC  H15C20401   4.977   3.007  10.718  0.4222 -0.6422  0.2045
  179SLPC   C1220402   4.672   2.878  10.688  0.1369  1.0655 -0.5065
  179SLPC  H12A20403   4.636   2.922  10.780 -0.7281 -1.1397  0.2693
  179SLPC  H12B20404   4.636   2.777  10.672  2.1027  0.5226 -1.8532
  179SLPC   C1120405   4.611   2.967  10.576  0.0494 -0.3948  0.1463
  179SLPC  H11A20406   4.502   2.944  10.575  0.3503 -1.9506  0.2745
  179SLPC  H11B20407   4.660   2.931  10.483  1.0242  0.0665  0.4717
  179SLPC     P20408   4.557   3.210  10.509 -0.1027  0.0567 -0.3135
  179SLPC   O1320409   4.414   3.208  10.557  0.0371  0.0609 -0.6236
  179SLPC   O1420410   4.630   3.333  10.509 -0.1692  0.2719 -0.1268
  179SLPC   O1220411   4.631   3.106  10.604  0.4287 -0.5892  0.2157
  179SLPC   O1120412   4.556   3.147  10.368  0.4168  0.4070 -0.0119
  179SLPC    C120413   4.445   3.165  10.275  0.2844  0.0891 -0.2707
  179SLPC    HA20414   4.408   3.270  10.283 -0.4709 -0.1770 -0.1876
  179SLPC    HB20415   4.468   3.147  10.168 -0.5266  0.0799 -0.4495
  179SLPC    C220416   4.321   3.065  10.303  0.2341 -0.1444  0.2253
  179SLPC    HS20417   4.289   3.064  10.409 -1.0106  0.2045 -0.1377
  179SLPC   O2120418   4.369   2.936  10.274  0.0208 -0.0531  0.0588
  179SLPC   C2120419   4.301   2.828  10.304 -0.3389  0.2015  0.1143
  179SLPC   O2220420   4.206   2.821  10.380 -0.2683  0.4522  0.1634
  179SLPC   C2220421   4.350   2.706  10.231  0.4459  0.2591  0.2499
  179SLPC   H2R20422   4.363   2.625  10.306 -0.9360  0.9762  1.3083
  179SLPC   H2S20423   4.275   2.671  10.158  0.9707 -1.5751  0.5333
  179SLPC    C320424   4.205   3.108  10.208  0.1533 -0.0064 -0.2686
  179SLPC    HX20425   4.180   3.207  10.251 -3.6058 -1.8713  2.5188
  179SLPC    HY20426   4.117   3.042  10.225  0.0552  0.3810  0.7769
  179SLPC   O3120427   4.254   3.125  10.073  0.4142  0.5169 -0.2386
  179SLPC   C3120428   4.230   3.020   9.996  0.6489  0.2430  0.2951
  179SLPC   O3220429   4.148   2.930  10.014 -0.4700  0.1939  0.0096
  179SLPC   C3220430   4.308   3.033   9.864 -0.1170  0.6278 -0.0638
  179SLPC   H2X20431   4.404   2.977   9.867  0.7375  1.9068 -1.4782
  179SLPC   H2Y20432   4.331   3.141   9.851 -1.4254  0.8815 -0.4471
  179SLPC   C2320433   4.491   2.717  10.159  0.1317  0.5429  0.0255
  179SLPC   H3R20434   4.493   2.797  10.081  1.4368  1.3704  0.8707
  179SLPC   H3S20435   4.500   2.623  10.100 -0.0646  1.4597 -1.5517
  179SLPC   C2420436   4.609   2.720  10.256 -0.0413  0.2590  0.0225
  179SLPC   H4R20437   4.572   2.668  10.346  0.3575 -0.4820 -0.2342
  179SLPC   H4S20438   4.615   2.826  10.287  0.0549  0.3024 -0.1412
  179SLPC   C2520439   4.745   2.679  10.204 -0.3626 -0.0426  0.7386
  179SLPC   H5R20440   4.746   2.569  10.192  0.2128  0.0934 -0.7012
  179SLPC   H5S20441   4.827   2.702  10.275  1.8293 -0.2731 -1.5526
  179SLPC   C2620442   4.784   2.755  10.069  0.0350 -0.5602 -0.6012
  179SLPC   H6R20443   4.700   2.742   9.999  1.0708  0.7212 -2.1724
  179SLPC   H6S20444   4.882   2.721  10.028 -0.3040  0.0112 -1.9357
  179SLPC   C2720445   4.787   2.909  10.085 -0.1274  0.4813 -0.1302
  179SLPC   H7R20446   4.874   2.920  10.152  0.2123 -0.7794 -0.3312
  179SLPC   H7S20447   4.705   2.954  10.144  0.6656  1.2944  0.3735
  179SLPC   C2820448   4.815   2.987   9.955  0.3099 -0.7084 -0.0329
  179SLPC   H8R20449   4.915   2.961   9.916 -0.0795 -1.8758 -0.3063
  179SLPC   H8S20450   4.828   3.093   9.988  0.9265 -0.7131 -0.2554
  179SLPC   C2920451   4.705   2.993   9.850 -0.4586  0.2130  0.0803
  179SLPC   H9R20452   4.606   2.989   9.899  0.7266  1.5858  2.8609
  179SLPC  C21020453   4.711   2.969   9.720 -0.5682  0.2781  0.1314
  179SLPC  H10R20454   4.616   3.000   9.673 -1.6638 -0.4837  1.7739
  179SLPC  C21120455   4.830   2.937   9.633  1.0842  0.4240 -0.2694
  179SLPC  H11R20456   4.827   2.826   9.625  1.2755  0.4349 -0.5092
  179SLPC  H11S20457   4.926   2.969   9.677  0.7671  0.2772  0.5426
  179SLPC  C21220458   4.823   3.004   9.499  0.6094  0.6369  0.6984
  179SLPC  H12R20459   4.830   3.114   9.507 -0.5066  0.8842 -1.1052
  179SLPC  C21320460   4.812   2.945   9.379  0.2820  0.0199 -0.2204
  179SLPC  H13R20461   4.802   3.011   9.291 -0.9709  2.1209  1.3967
  179SLPC  C21420462   4.789   2.798   9.351 -0.2207 -0.8217  0.5721
  179SLPC  H14R20463   4.682   2.771   9.362 -0.2237 -0.8942  0.3709
  179SLPC  H14S20464   4.851   2.727   9.411  2.4797 -0.2035 -1.2853
  179SLPC  C21520465   4.837   2.768   9.208 -0.2933  0.1398 -0.5282
  179SLPC  H15R20466   4.875   2.664   9.201  1.0959  0.6504 -0.8150
  179SLPC  H15S20467   4.917   2.835   9.169 -0.0146  0.4662  0.5766
  179SLPC  C21620468   4.715   2.792   9.114  0.0198  0.0068 -0.3715
  179SLPC  H16R20469   4.683   2.898   9.123 -0.8857 -0.3930  1.9286
  179SLPC  H16S20470   4.633   2.728   9.154  1.2650 -1.9003 -0.7801
  179SLPC  C21720471   4.743   2.750   8.970  0.3760 -0.0449  0.6803
  179SLPC  H17R20472   4.651   2.765   8.910 -0.4415 -0.6777  1.7351
  179SLPC  H17S20473   4.766   2.642   8.955  0.5300  0.3082 -2.2371
  179SLPC  C21820474   4.873   2.814   8.912  0.1657 -0.0105  0.1716
  179SLPC  H18R20475   4.867   2.924   8.926 -1.3960 -0.0535 -0.0492
  179SLPC  H18S20476   4.882   2.780   8.807 -2.4449 -1.4256  0.3226
  179SLPC  H18T20477   4.957   2.769   8.971 -1.6816 -0.9917  2.1987
  179SLPC   C3320478   4.231   2.989   9.740  0.4940 -0.4465 -0.3591
  179SLPC   H3X20479   4.137   3.046   9.725  0.3694 -1.0794 -2.1014
  179SLPC   H3Y20480   4.201   2.883   9.734 -2.3487  0.2909 -0.8202
  179SLPC   C3420481   4.321   3.011   9.615 -0.6860  0.0775 -0.1405
  179SLPC   H4X20482   4.413   2.949   9.608 -0.5185  0.1909  0.9501
  179SLPC   H4Y20483   4.365   3.112   9.627 -1.8317  0.3668  2.1173
  179SLPC   C3520484   4.242   2.983   9.490 -0.1354  0.3142 -0.0082
  179SLPC   H5X20485   4.187   3.074   9.456  0.5616  0.7340 -0.0409
  179SLPC   H5Y20486   4.164   2.908   9.517  1.5232 -2.1277 -1.5898
  179SLPC   C3620487   4.328   2.936   9.366  0.1272 -0.1097  0.8796
  179SLPC   H6X20488   4.370   2.836   9.387  0.0717 -0.7047 -1.5479
  179SLPC   H6Y20489   4.419   3.000   9.358 -1.6326  2.3495 -1.4133
  179SLPC   C3720490   4.250   2.935   9.234  0.9570  1.0864 -0.1687
  179SLPC   H7X20491   4.234   3.042   9.206  0.6666  1.3207  0.8669
  179SLPC   H7Y20492   4.150   2.889   9.243  1.5195  0.0988  1.3980
  179SLPC   C3820493   4.329   2.863   9.123 -0.3163  0.2330 -0.1072
  179SLPC   H8X20494   4.362   2.760   9.148  2.4803  0.4884 -2.3404
  179SLPC   H8Y20495   4.419   2.927   9.115 -0.5533  0.4826 -0.9177
  179SLPC   C3920496   4.251   2.850   8.991  0.7285  0.3833 -0.3867
  179SLPC   H9X20497   4.203   2.946   8.964 -1.3264 -0.2130  0.8642
  179SLPC   H9Y20498   4.172   2.773   9.007  2.4681 -1.2745  0.7502
  179SLPC  C31020499   4.344   2.804   8.874  0.0144  0.3357  0.4433
  179SLPC  H10X20500   4.390   2.707   8.904  3.1670  0.8856 -2.0765
  179SLPC  H10Y20501   4.419   2.884   8.858 -1.7629  1.7312 -1.4490
  179SLPC  C31120502   4.266   2.789   8.735 -0.4348 -0.6820 -0.0998
  179SLPC  H11X20503   4.167   2.744   8.758 -0.4377 -0.8023 -0.3462
  179SLPC  H11Y20504   4.306   2.705   8.674 -1.1606  0.4661 -2.2339
  179SLPC  C31220505   4.245   2.914   8.656 -0.6728  0.1130 -0.6236
  179SLPC  H12X20506   4.328   2.926   8.584  0.9869 -1.3961  0.9334
  179SLPC  H12Y20507   4.254   3.004   8.721 -0.6051 -0.8525  0.7510
  179SLPC  C31320508   4.125   2.898   8.573  0.0990 -0.1426  0.0222
  179SLPC  H13X20509   4.099   2.794   8.545 -0.4834 -0.3821  1.3850
  179SLPC  H13Y20510   4.143   2.962   8.484 -1.2380 -0.1323 -0.2651
  179SLPC  C31420511   4.007   2.952   8.645  0.5952 -0.5113 -0.6707
  179SLPC  H14X20512   4.030   3.053   8.685 -0.1944 -0.8654  0.7580
  179SLPC  H14Y20513   3.967   2.889   8.728 -0.8287 -0.2357 -1.1238
  179SLPC  C31520514   3.878   2.969   8.555 -0.0921 -0.3047 -0.1104
  179SLPC  H15X20515   3.915   3.001   8.455  0.2055 -2.4850 -0.7658
  179SLPC  H15Y20516   3.811   3.044   8.600  0.1326 -0.8845  1.2563
  179SLPC  C31620517   3.791   2.840   8.534  0.3392  0.6781  0.2186
  179SLPC  H16X20518   3.747   2.804   8.629 -1.2613  0.7162 -0.4822
  179SLPC  H16Y20519   3.850   2.750   8.506  0.2251  0.4914  0.5714
  179SLPC  C31720520   3.681   2.861   8.423  0.3075 -0.1845  0.2345
  179SLPC  H17X20521   3.717   2.865   8.318  0.2067 -1.7054  0.1230
  179SLPC  H17Y20522   3.642   2.964   8.436  0.3593  0.1361 -1.8193
  179SLPC  C31820523   3.564   2.766   8.443 -0.1630  0.6346  0.1727
  179SLPC  H18X20524   3.518   2.769   8.544  1.1662  0.8196  0.7939
  179SLPC  H18Y20525   3.598   2.662   8.426  1.3698  0.4528  3.5810
  179SLPC  H18Z20526   3.486   2.791   8.368 -0.9072 -2.1289 -0.0682
  180SLPC     N20527   1.154   4.540  10.607  0.5585  0.1860 -0.5470
  180SLPC   C1320528   1.218   4.413  10.647 -0.0332  0.7416 -0.2545
  180SLPC  H13A20529   1.303   4.393  10.584  0.0464  1.2539 -0.3094
  180SLPC  H13B20530   1.256   4.413  10.748 -0.7054  1.1135  0.0073
  180SLPC  H13C20531   1.154   4.330  10.619  2.3309 -0.6980 -1.6903
  180SLPC   C1420532   1.266   4.641  10.618  0.2588 -0.5155 -0.4102
  180SLPC  H14A20533   1.345   4.621  10.547 -1.1523 -0.6011 -2.0058
  180SLPC  H14B20534   1.231   4.738  10.586  1.3877 -0.0835 -0.4102
  180SLPC  H14C20535   1.306   4.648  10.719 -0.1279 -1.0268 -0.2184
  180SLPC   C1520536   1.051   4.573  10.709 -0.4864  0.7260  0.8077
  180SLPC  H15A20537   0.994   4.659  10.678 -0.7245 -0.0348 -0.9814
  180SLPC  H15B20538   0.973   4.497  10.715 -0.5259  0.6767 -0.1221
  180SLPC  H15C20539   1.096   4.581  10.806  1.2510 -1.5031  0.2666
  180SLPC   C1220540   1.085   4.537  10.471 -0.2473 -0.4017  0.1907
  180SLPC  H12A20541   1.019   4.623  10.472  0.7616  0.3979  1.2680
  180SLPC  H12B20542   1.025   4.448  10.456 -0.5501 -0.2349  0.3890
  180SLPC   C1120543   1.181   4.555  10.346  0.1586 -0.5417  0.2517
  180SLPC  H11A20544   1.111   4.563  10.260 -1.1206  0.2575  1.3178
  180SLPC  H11B20545   1.228   4.456  10.328  0.7092 -0.0417 -1.1514
  180SLPC     P20546   1.209   4.808  10.325  0.0399  0.1778 -0.4986
  180SLPC   O1320547   1.087   4.835  10.404 -0.5957 -0.4008 -0.0331
  180SLPC   O1420548   1.322   4.903  10.350  0.1494  0.3257 -0.5965
  180SLPC   O1220549   1.263   4.666  10.344 -0.4757 -0.0442 -0.0517
  180SLPC   O1120550   1.172   4.808  10.173 -0.0822 -0.2553  0.4203
  180SLPC    C120551   1.037   4.803  10.124 -0.3238  0.4202 -0.5653
  180SLPC    HA20552   1.040   4.715  10.057  1.2070 -2.2120  2.6510
  180SLPC    HB20553   0.967   4.777  10.207  0.4228  0.7936  0.1963
  180SLPC    C220554   0.993   4.943  10.066  0.5604  0.6704  0.4726
  180SLPC    HS20555   0.884   4.938  10.044  0.9509 -0.1494 -1.4315
  180SLPC   O2120556   1.066   4.999   9.955  0.7439  0.2433  0.2525
  180SLPC   C2120557   1.031   4.932   9.844  0.2547 -0.0983  0.6159
  180SLPC   O2220558   0.939   4.851   9.833 -0.0328  0.0148 -0.2888
  180SLPC   C2220559   1.108   4.997   9.729  0.3356  0.1477  0.0348
  180SLPC   H2R20560   1.124   5.105   9.746  1.0320 -0.3433  2.9343
  180SLPC   H2S20561   1.204   4.947   9.754 -0.6147 -1.0311  1.4526
  180SLPC    C320562   1.000   5.047  10.180  0.3485 -0.2507 -1.2549
  180SLPC    HX20563   1.110   5.059  10.190  0.1491  0.5860  0.2097
  180SLPC    HY20564   0.964   5.001  10.275 -0.3126  0.8229 -0.9670
  180SLPC   O3120565   0.950   5.180  10.153  0.1959 -0.2632 -0.4332
  180SLPC   C3120566   0.831   5.202  10.203  0.1842 -0.1042  0.7087
  180SLPC   O3220567   0.756   5.116  10.246 -0.9230  0.1709 -0.4044
  180SLPC   C3220568   0.788   5.345  10.193 -0.5788 -0.2615 -0.1064
  180SLPC   H2X20569   0.877   5.402  10.159 -0.9059 -1.4621 -3.3291
  180SLPC   H2Y20570   0.759   5.382  10.294  1.4945 -2.0169  1.2380
  180SLPC   C2320571   1.039   4.962   9.594 -0.1046 -0.2062 -0.3056
  180SLPC   H3R20572   0.936   5.003   9.594  0.4748  1.3654  0.8238
  180SLPC   H3S20573   1.025   4.852   9.598  3.7291 -0.7987  2.3079
  180SLPC   C2420574   1.123   4.995   9.469  0.3388  0.2568  0.1712
  180SLPC   H4R20575   1.142   5.103   9.489 -1.4454  0.2257  2.4830
  180SLPC   H4S20576   1.062   4.991   9.376 -0.3815 -0.3689  0.6573
  180SLPC   C2520577   1.255   4.922   9.454 -0.1286 -0.5627 -0.5943
  180SLPC   H5R20578   1.256   4.828   9.513  0.2104  0.5747  1.2889
  180SLPC   H5S20579   1.333   4.987   9.499 -0.3100 -0.8249  0.1174
  180SLPC   C2620580   1.289   4.889   9.310 -0.0788 -0.2139 -0.5702
  180SLPC   H6R20581   1.399   4.901   9.301 -0.0676  2.4245  1.8650
  180SLPC   H6S20582   1.238   4.972   9.255 -0.3614  0.7517  1.0805
  180SLPC   C2720583   1.256   4.755   9.258 -0.2368  0.2591 -0.7573
  180SLPC   H7R20584   1.146   4.749   9.242 -0.3880  0.4683  0.1244
  180SLPC   H7S20585   1.286   4.676   9.330  0.9325  0.4288 -1.0452
  180SLPC   C2820586   1.325   4.718   9.120 -0.3096 -0.0265  0.2107
  180SLPC   H8R20587   1.434   4.735   9.138 -0.3705  1.1694 -0.4224
  180SLPC   H8S20588   1.295   4.797   9.048 -2.5355 -0.9031  0.0976
  180SLPC   C2920589   1.288   4.579   9.070 -0.4350 -0.4536 -0.2959
  180SLPC   H9R20590   1.314   4.494   9.135  0.3940 -1.3575 -1.7622
  180SLPC  C21020591   1.242   4.536   8.952  0.0484 -0.0070 -0.1211
  180SLPC  H10R20592   1.229   4.427   8.944  1.0865 -0.1595  0.2196
  180SLPC  C21120593   1.206   4.625   8.838 -0.0180 -0.8506  1.0330
  180SLPC  H11R20594   1.213   4.571   8.741 -0.8369  1.3142 -0.3015
  180SLPC  H11S20595   1.294   4.693   8.832 -1.3203  0.7659 -0.9927
  180SLPC  C21220596   1.089   4.718   8.854  0.8101 -0.6391 -0.2906
  180SLPC  H12R20597   1.070   4.766   8.951  0.2905 -0.9399 -0.2432
  180SLPC  C21320598   0.995   4.735   8.762  0.6395 -0.2217 -0.3530
  180SLPC  H13R20599   0.912   4.800   8.793  1.9857 -0.0047  3.3049
  180SLPC  C21420600   0.991   4.678   8.622 -0.0848  0.2893  0.2066
  180SLPC  H14R20601   1.089   4.636   8.589  0.9827  1.9422  1.1285
  180SLPC  H14S20602   0.962   4.756   8.548 -0.0050 -0.7624 -0.9901
  180SLPC  C21520603   0.878   4.571   8.588 -0.0474  0.1776  0.0811
  180SLPC  H15R20604   0.875   4.563   8.478 -0.7929  1.9970 -0.0681
  180SLPC  H15S20605   0.780   4.607   8.627  0.3170 -1.7847  3.1752
  180SLPC  C21620606   0.911   4.433   8.661 -0.5143  0.0803  0.7469
  180SLPC  H16R20607   0.883   4.449   8.767  0.8271  1.2357  0.9534
  180SLPC  H16S20608   1.021   4.419   8.653 -0.5275 -0.7456  1.8480
  180SLPC  C21720609   0.853   4.301   8.592 -0.1799 -0.6709  0.0062
  180SLPC  H17R20610   0.743   4.294   8.604 -0.3582  0.2336 -0.9561
  180SLPC  H17S20611   0.905   4.218   8.645  0.1014  0.6160  1.8156
  180SLPC  C21820612   0.876   4.293   8.440 -0.7613 -0.2683  0.1876
  180SLPC  H18R20613   0.984   4.315   8.421  0.1970 -3.3582  1.4465
  180SLPC  H18S20614   0.815   4.357   8.374 -0.8001  0.2333  0.6981
  180SLPC  H18T20615   0.856   4.188   8.410  1.2189 -0.2351 -1.4590
  180SLPC   C3320616   0.675   5.374  10.094  0.5284  0.3621  0.3453
  180SLPC   H3X20617   0.624   5.468  10.122  2.3986  1.5971 -0.1750
  180SLPC   H3Y20618   0.599   5.296  10.119 -1.6725  1.8942 -1.1658
  180SLPC   C3420619   0.717   5.360   9.949 -0.8118  0.2125  0.0792
  180SLPC   H4X20620   0.628   5.346   9.885 -0.3599 -2.6407 -0.0511
  180SLPC   H4Y20621   0.776   5.266   9.948 -0.4021  0.2486  4.0690
  180SLPC   C3520622   0.808   5.471   9.890  0.0264  0.1634  0.7718
  180SLPC   H5X20623   0.908   5.433   9.919  0.0374  2.5649  4.4873
  180SLPC   H5Y20624   0.794   5.573   9.931  1.0905 -0.2346  2.2217
  180SLPC   C3620625   0.792   5.487   9.732 -0.3340  0.7092 -0.2352
  180SLPC   H6X20626   0.848   5.577   9.701 -2.7601  2.6328  0.6580
  180SLPC   H6Y20627   0.688   5.519   9.711 -1.2377  0.2399  2.9971
  180SLPC   C3720628   0.845   5.365   9.644 -1.2873  0.1751 -0.4227
  180SLPC   H7X20629   0.770   5.285   9.662 -1.9067  0.5581 -1.2247
  180SLPC   H7Y20630   0.940   5.329   9.687 -0.5002  1.4643 -1.0081
  180SLPC   C3820631   0.853   5.393   9.494 -0.2878  0.8397  0.2466
  180SLPC   H8X20632   0.918   5.478   9.466 -0.5274  0.7130 -0.7225
  180SLPC   H8Y20633   0.752   5.421   9.457 -0.9656 -1.8365 -0.2018
  180SLPC   C3920634   0.886   5.259   9.416 -0.4318 -0.1255 -0.2361
  180SLPC   H9X20635   0.813   5.178   9.439 -0.0768 -0.8090 -1.4264
  180SLPC   H9Y20636   0.988   5.226   9.445  0.2858  0.2601 -2.2038
  180SLPC  C31020637   0.885   5.274   9.265 -0.5332 -0.3502 -0.1193
  180SLPC  H10X20638   0.972   5.343   9.265 -1.4797  0.8690  0.1420
  180SLPC  H10Y20639   0.795   5.326   9.225  0.3040  1.5148  0.3138
  180SLPC  C31120640   0.916   5.154   9.171  0.4752 -0.0465  0.3629
  180SLPC  H11X20641   0.835   5.079   9.183 -0.7791  1.1285 -0.4134
  180SLPC  H11Y20642   1.013   5.114   9.205  0.5475  0.3117  0.5832
  180SLPC  C31220643   0.924   5.195   9.021 -0.4340 -1.2349  0.3362
  180SLPC  H12X20644   0.972   5.295   9.015 -1.0960 -0.9375 -0.0219
  180SLPC  H12Y20645   0.822   5.216   8.985  0.1821  0.3813 -0.5395
  180SLPC  C31320646   0.978   5.083   8.932 -0.4590  0.6458  0.5101
  180SLPC  H13X20647   0.899   5.031   8.874  1.8436 -0.4699 -1.8766
  180SLPC  H13Y20648   1.025   5.008   8.999 -0.6792  0.8652  0.9141
  180SLPC  C31420649   1.093   5.122   8.844  0.4175 -0.6237  0.1667
  180SLPC  H14X20650   1.140   5.030   8.803  1.9273 -0.3353  1.1665
  180SLPC  H14Y20651   1.171   5.173   8.905 -1.1170  1.8421  0.2289
  180SLPC  C31520652   1.047   5.236   8.747 -0.5614 -0.1873  0.4576
  180SLPC  H15X20653   1.028   5.329   8.804 -0.3978 -0.9834  1.8725
  180SLPC  H15Y20654   0.947   5.207   8.706  0.4537 -0.0669 -2.3475
  180SLPC  C31620655   1.151   5.262   8.635 -0.0697 -0.2089 -0.6292
  180SLPC  H16X20656   1.170   5.166   8.583 -0.0532 -1.9706  2.4341
  180SLPC  H16Y20657   1.249   5.289   8.680  0.5484 -1.6449 -1.0518
  180SLPC  C31720658   1.114   5.376   8.542  0.3337 -0.0331  0.1984
  180SLPC  H17X20659   1.100   5.467   8.605 -0.2092 -0.2913  0.4590
  180SLPC  H17Y20660   1.023   5.347   8.486  1.0065  1.8177 -2.0210
  180SLPC  C31820661   1.222   5.408   8.443 -0.8750  0.6711  0.0082
  180SLPC  H18X20662   1.245   5.315   8.386  0.2220  1.2270 -0.4973
  180SLPC  H18Y20663   1.313   5.452   8.490 -0.2678 -0.2131 -0.3058
  180SLPC  H18Z20664   1.173   5.482   8.376 -1.0149 -0.8508 -1.6451
  181SLPC     N20665   2.503   3.644  11.222  0.6420 -0.1304 -0.1404
  181SLPC   C1320666   2.641   3.608  11.255 -0.8124 -0.6768  0.0467
  181SLPC  H13A20667   2.708   3.665  11.192  0.2559 -0.7013  1.1229
  181SLPC  H13B20668   2.663   3.622  11.360 -2.6474  1.8828  0.1800
  181SLPC  H13C20669   2.660   3.504  11.230 -1.1573 -0.7944  0.2638
  181SLPC   C1420670   2.463   3.775  11.290  0.3918  0.2603 -0.2538
  181SLPC  H14A20671   2.368   3.809  11.251  0.8726  1.2464 -0.5964
  181SLPC  H14B20672   2.452   3.754  11.396  0.6824 -0.0809 -0.2894
  181SLPC  H14C20673   2.545   3.845  11.282  1.4368 -0.4391  2.9288
  181SLPC   C1520674   2.405   3.534  11.265 -0.2141 -0.1203  0.5121
  181SLPC  H15A20675   2.385   3.523  11.370 -0.6313  0.1790  0.4668
  181SLPC  H15B20676   2.310   3.546  11.215  1.1733 -0.1078 -2.2954
  181SLPC  H15C20677   2.438   3.438  11.230 -1.0516  0.2617 -1.5023
  181SLPC   C1220678   2.491   3.650  11.066  0.1556 -1.8625  0.2801
  181SLPC  H12A20679   2.393   3.684  11.036  0.8573  1.1493  1.0234
  181SLPC  H12B20680   2.485   3.551  11.025 -2.0755 -1.6065 -0.1387
  181SLPC   C1120681   2.604   3.728  10.991 -0.0036 -1.4680  0.3182
  181SLPC  H11A20682   2.572   3.752  10.888  2.1056  1.4010  0.2130
  181SLPC  H11B20683   2.702   3.677  10.981  1.1118  0.8578 -1.4956
  181SLPC     P20684   2.560   3.991  11.014  0.1324 -0.4227  0.2631
  181SLPC   O1320685   2.424   3.974  10.964 -0.0944  0.5628 -0.1852
  181SLPC   O1420686   2.585   4.087  11.125  0.0386 -0.0988  0.3173
  181SLPC   O1220687   2.631   3.854  11.054  0.4783 -0.6298  0.2699
  181SLPC   O1120688   2.647   4.051  10.892  0.0835 -0.0391 -0.7370
  181SLPC    C120689   2.760   3.963  10.849  0.6965 -0.0700 -0.3669
  181SLPC    HA20690   2.820   3.916  10.929  1.4759 -1.6363 -1.8167
  181SLPC    HB20691   2.712   3.888  10.782 -2.4424  0.0688  1.5200
  181SLPC    C220692   2.865   4.043  10.772 -0.3888 -0.0025 -0.0157
  181SLPC    HS20693   2.903   4.120  10.843 -2.9650  1.5476 -0.1767
  181SLPC   O2120694   2.796   4.099  10.658  0.1627  0.3671 -0.2193
  181SLPC   C2120695   2.851   4.199  10.605 -0.9764  0.2287 -0.0538
  181SLPC   O2220696   2.955   4.251  10.639 -0.0821  0.3714  0.0636
  181SLPC   C2220697   2.771   4.252  10.483 -0.0912 -0.0907 -0.3400
  181SLPC   H2R20698   2.689   4.180  10.466 -0.1501 -0.9103  2.8403
  181SLPC   H2S20699   2.743   4.357  10.508 -1.2970 -0.4921  0.0546
  181SLPC    C320700   2.988   3.955  10.731 -0.7871  0.2454 -0.2647
  181SLPC    HX20701   3.034   3.936  10.831 -1.8040  1.9919  0.5831
  181SLPC    HY20702   3.058   4.017  10.670 -2.3497  0.8942 -1.4684
  181SLPC   O3120703   2.945   3.832  10.669 -0.3292 -0.4518  0.1502
  181SLPC   C3120704   3.019   3.798  10.562 -0.1383  0.7375  0.2664
  181SLPC   O3220705   3.108   3.851  10.506 -0.4950  0.5120 -0.3679
  181SLPC   C3220706   2.958   3.661  10.523  0.0437  0.4955 -0.5474
  181SLPC   H2X20707   2.860   3.690  10.479  0.7179 -1.3017 -3.5423
  181SLPC   H2Y20708   2.937   3.602  10.615  0.4438  1.9029  0.4855
  181SLPC   C2320709   2.857   4.256  10.359 -0.1898 -0.1894  0.3084
  181SLPC   H3R20710   2.966   4.235  10.370  0.0337  1.1513  0.7784
  181SLPC   H3S20711   2.841   4.357  10.315  1.0020  0.2427  0.8400
  181SLPC   C2420712   2.813   4.161  10.249  0.0896 -0.1175  0.2426
  181SLPC   H4R20713   2.854   4.203  10.155 -0.9765  2.0827  0.6872
  181SLPC   H4S20714   2.703   4.148  10.242 -0.0919 -0.4689  2.6796
  181SLPC   C2520715   2.854   4.010  10.259 -0.4825  0.2678  0.8490
  181SLPC   H5R20716   2.808   3.962  10.348 -4.3127 -3.7739 -2.8351
  181SLPC   H5S20717   2.965   4.012  10.263 -0.4397 -1.8786  1.9242
  181SLPC   C2620718   2.808   3.935  10.133  0.3085  0.0929 -0.0463
  181SLPC   H6R20719   2.713   3.976  10.092  1.3149  1.3955 -1.1925
  181SLPC   H6S20720   2.793   3.828  10.156  0.3374  0.2888  0.9021
  181SLPC   C2720721   2.908   3.953  10.017 -0.1683  0.7720 -0.4247
  181SLPC   H7R20722   2.956   4.052  10.033  2.1226 -0.3037 -0.1697
  181SLPC   H7S20723   2.847   3.948   9.924 -0.6861  1.1652 -0.1120
  181SLPC   C2820724   3.028   3.849  10.014  0.0830 -0.4565  0.0674
  181SLPC   H8R20725   3.081   3.863  10.110 -1.3880 -0.8051  0.9768
  181SLPC   H8S20726   3.087   3.884   9.927 -0.9759 -2.0344 -1.3712
  181SLPC   C2920727   2.972   3.712   9.981  0.2913 -0.0948  0.3884
  181SLPC   H9R20728   2.919   3.658  10.061  1.2781 -2.0258 -0.1892
  181SLPC  C21020729   3.000   3.643   9.867  0.6734  0.3372  0.8099
  181SLPC  H10R20730   2.965   3.539   9.863 -1.0157  0.8375  1.7902
  181SLPC  C21120731   3.090   3.686   9.754 -0.0941 -0.2676 -0.2546
  181SLPC  H11R20732   3.132   3.598   9.702 -2.5843 -1.7775  0.1318
  181SLPC  H11S20733   3.175   3.737   9.805  0.6639 -0.5934 -1.1576
  181SLPC  C21220734   3.030   3.791   9.667  0.3981 -0.2535 -0.2613
  181SLPC  H12R20735   2.977   3.870   9.723  0.9562 -0.7179  0.9732
  181SLPC  C21320736   3.030   3.806   9.534 -1.1337 -0.5732  0.2730
  181SLPC  H13R20737   2.976   3.892   9.492  0.1205 -0.6734 -1.6933
  181SLPC  C21420738   3.097   3.704   9.437  1.1003  0.2325 -0.4440
  181SLPC  H14R20739   3.152   3.621   9.486 -0.0096  0.2975  0.9807
  181SLPC  H14S20740   3.169   3.769   9.382  0.0952  2.0975  0.3493
  181SLPC  C21520741   2.993   3.639   9.340  0.3407  0.3783 -0.3542
  181SLPC  H15R20742   2.906   3.609   9.402 -1.1073  1.2581 -1.8469
  181SLPC  H15S20743   3.038   3.547   9.296  4.2253  0.7275  2.4561
  181SLPC  C21620744   2.932   3.730   9.231  0.3328  0.1031 -0.2628
  181SLPC  H16R20745   2.906   3.828   9.276  0.3442  0.3284 -0.7462
  181SLPC  H16S20746   2.835   3.695   9.191  0.4224  2.2415 -2.6562
  181SLPC  C21720747   3.029   3.746   9.115  0.3587  0.2086  0.3738
  181SLPC  H17R20748   3.088   3.653   9.096 -1.3889 -0.8001 -0.3284
  181SLPC  H17S20749   3.114   3.806   9.155 -0.5990  0.7775  1.6360
  181SLPC  C21820750   2.975   3.809   8.989  0.0620 -0.1563  0.0611
  181SLPC  H18R20751   2.888   3.751   8.950  1.2807 -1.7760 -0.3709
  181SLPC  H18S20752   3.051   3.808   8.908 -0.6716 -0.9680 -0.6415
  181SLPC  H18T20753   2.949   3.913   9.015  1.0458 -0.1970  1.2615
  181SLPC   C3320754   3.050   3.581  10.431  0.2853 -0.4217 -0.0279
  181SLPC   H3X20755   3.155   3.574  10.464 -0.8125 -2.7737  3.4730
  181SLPC   H3Y20756   3.047   3.637  10.335 -0.5993  1.6528  1.1378
  181SLPC   C3420757   2.992   3.443  10.396  0.4805 -0.4261 -0.4623
  181SLPC   H4X20758   2.881   3.445  10.383  0.4239 -1.2744 -0.1869
  181SLPC   H4Y20759   3.028   3.362  10.463 -0.8860 -0.9281 -0.2880
  181SLPC   C3520760   3.039   3.405  10.254 -0.3526 -0.8663  0.2579
  181SLPC   H5X20761   3.002   3.472  10.173 -1.6909 -2.6825 -0.6981
  181SLPC   H5Y20762   3.006   3.301  10.232  0.2905 -1.1119  0.4214
  181SLPC   C3620763   3.195   3.390  10.244 -0.0340 -0.2540 -0.9237
  181SLPC   H6X20764   3.225   3.328  10.331  0.7800 -1.0064 -1.7176
  181SLPC   H6Y20765   3.245   3.489  10.250 -0.0299 -0.1577 -2.1951
  181SLPC   C3720766   3.255   3.305  10.129 -0.0798 -0.2391  0.1452
  181SLPC   H7X20767   3.207   3.208  10.152 -0.7984  0.5873  2.5383
  181SLPC   H7Y20768   3.363   3.284  10.140  0.5278  0.0954 -3.7610
  181SLPC   C3820769   3.223   3.353   9.993  0.4574  0.2002 -0.2373
  181SLPC   H8X20770   3.267   3.452   9.966  2.2529 -0.4873 -0.0005
  181SLPC   H8Y20771   3.113   3.362   9.985  0.3548  1.9917  2.1013
  181SLPC   C3920772   3.264   3.252   9.891 -0.0986 -0.4837 -0.0169
  181SLPC   H9X20773   3.231   3.149   9.916 -1.0947  0.3418  2.3585
  181SLPC   H9Y20774   3.375   3.249   9.891 -0.0281  0.8150 -1.2529
  181SLPC  C31020775   3.219   3.297   9.750 -0.3887 -0.5217 -0.5478
  181SLPC  H10X20776   3.279   3.389   9.732  1.6607 -1.8056 -0.6918
  181SLPC  H10Y20777   3.109   3.312   9.748 -0.5465 -0.6503  2.7303
  181SLPC  C31120778   3.257   3.206   9.629  0.0732  0.2045 -0.1308
  181SLPC  H11X20779   3.210   3.106   9.638  0.2078  0.3316  2.6690
  181SLPC  H11Y20780   3.367   3.192   9.623  0.3403  1.2964  1.6923
  181SLPC  C31220781   3.212   3.276   9.493  0.1302 -0.6546  0.4248
  181SLPC  H12X20782   3.252   3.380   9.488 -0.2745 -0.5042  0.1284
  181SLPC  H12Y20783   3.101   3.281   9.496  0.1604  0.3529  0.2436
  181SLPC  C31320784   3.262   3.185   9.372  0.3193  0.0110  0.2358
  181SLPC  H13X20785   3.185   3.104   9.373  1.5383 -1.1841  0.5551
  181SLPC  H13Y20786   3.364   3.141   9.383  0.7968  0.5405 -1.6451
  181SLPC  C31420787   3.255   3.252   9.237  0.5513 -0.0642  0.6641
  181SLPC  H14X20788   3.322   3.340   9.226  2.1682 -1.2683  0.5069
  181SLPC  H14Y20789   3.152   3.292   9.228 -0.1775 -1.0851  3.4399
  181SLPC  C31520790   3.294   3.150   9.127  0.5343 -1.1727  0.1131
  181SLPC  H15X20791   3.211   3.076   9.120  0.7734 -1.3671 -0.8255
  181SLPC  H15Y20792   3.386   3.092   9.151  0.2000 -1.4401  0.7996
  181SLPC  C31620793   3.310   3.229   8.994 -1.0216  0.7067 -0.3474
  181SLPC  H16X20794   3.413   3.214   8.954 -0.2927  0.5246  1.5098
  181SLPC  H16Y20795   3.292   3.337   9.013  2.8804  1.9730 -2.4674
  181SLPC  C31720796   3.218   3.178   8.890  0.3292 -0.6000 -0.1666
  181SLPC  H17X20797   3.115   3.181   8.930  0.3981  0.2286 -0.0445
  181SLPC  H17Y20798   3.231   3.068   8.880  2.5194 -0.4724  0.6652
  181SLPC  C31820799   3.222   3.236   8.748 -0.5637  0.6754  0.8744
  181SLPC  H18X20800   3.155   3.167   8.692  3.9811 -1.5829 -2.4168
  181SLPC  H18Y20801   3.328   3.234   8.715 -0.8908 -1.7502 -0.2276
  181SLPC  H18Z20802   3.189   3.341   8.734  1.1022  1.1424  0.1982
  182SLPC     N20803   6.696   3.108  10.924 -0.0409 -0.2594  0.1201
  182SLPC   C1320804   6.640   3.042  11.044  0.2181  0.0557 -0.2113
  182SLPC  H13A20805   6.603   2.942  11.024 -0.3490  0.3254 -0.5276
  182SLPC  H13B20806   6.707   3.036  11.128 -1.1753 -1.3539  0.8655
  182SLPC  H13C20807   6.547   3.091  11.069 -0.2989 -1.4699  1.0396
  182SLPC   C1420808   6.806   3.021  10.883  0.5461  0.9622  0.3541
  182SLPC  H14A20809   6.785   2.916  10.881  1.2276  0.8013 -2.3761
  182SLPC  H14B20810   6.828   3.035  10.778  1.4685 -3.2052 -0.1506
  182SLPC  H14C20811   6.905   3.029  10.925  1.0764 -1.1976 -0.3821
  182SLPC   C1520812   6.752   3.235  10.962  0.5868 -0.2244 -0.1020
  182SLPC  H15A20813   6.679   3.314  10.971 -0.3451 -1.1824  1.3783
  182SLPC  H15B20814   6.794   3.232  11.062  1.9802 -1.0121 -0.6927
  182SLPC  H15C20815   6.837   3.260  10.901  1.1426  2.6168  1.6602
  182SLPC   C1220816   6.594   3.112  10.819  0.5137  0.0502  0.4848
  182SLPC  H12A20817   6.501   3.138  10.867  1.3464  1.8280  1.2034
  182SLPC  H12B20818   6.576   3.008  10.793  0.4547  0.4583 -1.2125
  182SLPC   C1120819   6.633   3.174  10.687  0.3140  0.1794 -0.1204
  182SLPC  H11A20820   6.675   3.274  10.710  1.0707 -0.7583  3.1122
  182SLPC  H11B20821   6.550   3.206  10.620 -0.3343 -1.6711 -0.2692
  182SLPC     P20822   6.669   2.959  10.528 -0.2894 -0.1280 -0.1120
  182SLPC   O1320823   6.789   2.873  10.512  0.3510 -0.0391 -0.2515
  182SLPC   O1420824   6.543   2.910  10.591  0.9710 -0.3297 -0.4625
  182SLPC   O1220825   6.721   3.082  10.614  0.4507 -0.4855 -0.3078
  182SLPC   O1120826   6.621   3.028  10.391 -0.2428 -0.0254  0.6355
  182SLPC    C120827   6.696   3.136  10.336 -0.0122 -0.9391  0.2460
  182SLPC    HA20828   6.651   3.235  10.357  0.9733 -0.1490 -1.1804
  182SLPC    HB20829   6.798   3.153  10.377  0.1912  0.8684 -0.8821
  182SLPC    C220830   6.723   3.119  10.179 -0.3008 -0.0647 -0.2924
  182SLPC    HS20831   6.816   3.175  10.153  0.8590 -1.3088  0.9927
  182SLPC   O2120832   6.624   3.147  10.086  0.2496  0.8510  1.4247
  182SLPC   C2120833   6.600   3.268  10.051  0.3273 -0.4000 -0.2262
  182SLPC   O2220834   6.628   3.365  10.118  0.1003  0.0233 -0.2559
  182SLPC   C2220835   6.549   3.280   9.904  0.2799 -0.5070  0.6536
  182SLPC   H2R20836   6.447   3.239   9.894 -0.2710  0.6414  1.4069
  182SLPC   H2S20837   6.548   3.388   9.878 -2.2864 -0.5008  0.5932
  182SLPC    C320838   6.749   2.964  10.154  0.0167  0.1153 -0.0907
  182SLPC    HX20839   6.665   2.900  10.189  1.3272 -2.1623 -0.9160
  182SLPC    HY20840   6.842   2.939  10.209  0.7717 -0.5730 -1.6219
  182SLPC   O3120841   6.772   2.945  10.008  0.4621  1.1662 -0.2819
  182SLPC   C3120842   6.786   2.810   9.984  0.5436 -0.3478  0.0662
  182SLPC   O3220843   6.777   2.726  10.069  0.0082 -0.0483  0.5936
  182SLPC   C3220844   6.793   2.785   9.835  0.4372  0.0251  0.0954
  182SLPC   H2X20845   6.884   2.837   9.799  0.5413  0.4271  0.9207
  182SLPC   H2Y20846   6.698   2.817   9.789  1.2436  1.3398 -0.7319
  182SLPC   C2320847   6.644   3.208   9.800 -0.5253  0.0911  0.3753
  182SLPC   H3R20848   6.643   3.101   9.829  1.2258 -0.3573 -1.0058
  182SLPC   H3S20849   6.752   3.229   9.821 -0.1956  0.7346 -1.7246
  182SLPC   C2420850   6.626   3.241   9.651  0.2543  0.6134  0.3107
  182SLPC   H4R20851   6.529   3.203   9.613  0.7842 -0.2641 -0.1985
  182SLPC   H4S20852   6.710   3.187   9.601  0.2428  0.0659  0.8663
  182SLPC   C2520853   6.667   3.391   9.631  0.0916 -0.3599 -0.2104
  182SLPC   H5R20854   6.761   3.409   9.687  0.2481 -0.4612 -0.4401
  182SLPC   H5S20855   6.589   3.453   9.680  0.7243 -0.0856  0.4697
  182SLPC   C2620856   6.693   3.416   9.487  0.3497 -0.4773  0.4753
  182SLPC   H6R20857   6.771   3.349   9.446 -0.9228 -1.2782 -0.7346
  182SLPC   H6S20858   6.736   3.517   9.470  2.4650 -1.7829 -2.7917
  182SLPC   C2720859   6.562   3.396   9.411  0.0291  0.7203  0.3339
  182SLPC   H7R20860   6.473   3.408   9.476  0.5959  1.5807  0.9697
  182SLPC   H7S20861   6.567   3.304   9.349  1.6617  0.8761  0.1900
  182SLPC   C2820862   6.531   3.505   9.305 -0.0978 -0.1632 -1.0082
  182SLPC   H8R20863   6.525   3.602   9.359  2.3397 -0.8206  0.6037
  182SLPC   H8S20864   6.433   3.476   9.262 -0.9537 -1.0480  1.4017
  182SLPC   C2920865   6.653   3.523   9.214  0.6440 -0.0674  0.3655
  182SLPC   H9R20866   6.753   3.533   9.259  0.7566 -0.3566  0.1818
  182SLPC  C21020867   6.644   3.526   9.074 -0.1818  0.4335  0.2544
  182SLPC  H10R20868   6.741   3.535   9.024  1.2498 -0.9047  2.6474
  182SLPC  C21120869   6.530   3.531   8.984 -0.2824  0.0508  0.3404
  182SLPC  H11R20870   6.576   3.577   8.894 -0.6098  2.4414  1.3201
  182SLPC  H11S20871   6.464   3.609   9.027  0.4501  0.9702 -0.1796
  182SLPC  C21220872   6.457   3.403   8.955 -0.2915 -0.0707 -0.8283
  182SLPC  H12R20873   6.509   3.317   9.000  1.9711  0.8490 -1.5420
  182SLPC  C21320874   6.366   3.401   8.859  0.5431  0.0580  0.2114
  182SLPC  H13R20875   6.320   3.302   8.840 -0.0200  0.3730 -0.1059
  182SLPC  C21420876   6.309   3.515   8.781  0.4244 -0.2293  0.3998
  182SLPC  H14R20877   6.330   3.607   8.840  1.1560  0.2961 -0.6427
  182SLPC  H14S20878   6.199   3.511   8.771  0.1493  0.5842  2.6323
  182SLPC  C21520879   6.356   3.538   8.630  0.3956 -0.3143  0.3880
  182SLPC  H15R20880   6.290   3.616   8.587  0.0151 -0.7282  0.2137
  182SLPC  H15S20881   6.335   3.442   8.578 -1.8354 -0.3719  1.2830
  182SLPC  C21620882   6.495   3.600   8.613  0.1074 -0.2661 -0.1016
  182SLPC  H16R20883   6.512   3.603   8.503 -2.5635 -0.1176 -0.5751
  182SLPC  H16S20884   6.581   3.542   8.652  2.2934  1.8322 -1.5511
  182SLPC  C21720885   6.511   3.750   8.659  0.3760 -0.6452 -0.4479
  182SLPC  H17R20886   6.455   3.766   8.754  1.0387 -0.0323 -0.1552
  182SLPC  H17S20887   6.463   3.824   8.592 -1.9782 -0.9353  0.8052
  182SLPC  C21820888   6.653   3.791   8.696 -0.2117 -0.3411 -0.2689
  182SLPC  H18R20889   6.691   3.717   8.770  3.0824  1.0760 -0.3415
  182SLPC  H18S20890   6.672   3.893   8.735  1.9630 -0.6371 -0.4305
  182SLPC  H18T20891   6.712   3.773   8.603  0.3095  0.1261 -0.0301
  182SLPC   C3320892   6.828   2.639   9.803  0.1415  0.1030 -0.0831
  182SLPC   H3X20893   6.742   2.569   9.807  0.3239 -0.0780  2.3716
  182SLPC   H3Y20894   6.908   2.598   9.869  1.5453 -1.9074 -2.8364
  182SLPC   C3420895   6.881   2.619   9.661  0.9504  0.0248  0.4286
  182SLPC   H4X20896   6.902   2.510   9.649  0.0991 -0.1465  0.4230
  182SLPC   H4Y20897   6.976   2.675   9.655  1.7889 -1.2021  1.5055
  182SLPC   C3520898   6.777   2.662   9.553  0.3935 -0.2557  0.3369
  182SLPC   H5X20899   6.741   2.762   9.584 -0.1772 -0.8498  1.7122
  182SLPC   H5Y20900   6.690   2.594   9.565 -1.6419  2.1264 -0.1205
  182SLPC   C3620901   6.817   2.647   9.405  0.1565 -0.8676 -0.2803
  182SLPC   H6X20902   6.859   2.544   9.397  2.3650  0.0403 -1.1962
  182SLPC   H6Y20903   6.896   2.717   9.372 -0.4467 -0.0933 -0.1038
  182SLPC   C3720904   6.697   2.649   9.313  0.1907  0.0533  0.7518
  182SLPC   H7X20905   6.640   2.744   9.318  0.7031  0.3041  2.3890
  182SLPC   H7Y20906   6.623   2.577   9.356 -0.0471  0.2220  0.6283
  182SLPC   C3820907   6.726   2.620   9.170 -0.1288  0.2747  0.6254
  182SLPC   H8X20908   6.627   2.617   9.119 -0.4192  1.2854  1.1257
  182SLPC   H8Y20909   6.777   2.521   9.170  0.7656  0.7250  0.3587
  182SLPC   C3920910   6.805   2.719   9.092 -0.2463  0.5824 -0.1721
  182SLPC   H9X20911   6.885   2.761   9.158 -0.3620 -0.6182  0.7674
  182SLPC   H9Y20912   6.749   2.813   9.071 -1.3933  0.2568  1.2451
  182SLPC  C31020913   6.881   2.669   8.965  0.1022  0.6169 -0.4135
  182SLPC  H10X20914   6.921   2.572   9.001  1.9639  1.3219 -0.4972
  182SLPC  H10Y20915   6.963   2.737   8.935 -1.6825  2.6691 -0.8846
  182SLPC  C31120916   6.796   2.636   8.850  0.2925 -0.4791  0.9194
  182SLPC  H11X20917   6.703   2.591   8.892 -0.7305 -0.4793 -1.2602
  182SLPC  H11Y20918   6.839   2.571   8.772 -0.1311  0.8694 -0.4772
  182SLPC  C31220919   6.741   2.760   8.771  0.1531 -0.3034  0.3644
  182SLPC  H12X20920   6.693   2.829   8.844 -1.4919 -0.2074 -0.7359
  182SLPC  H12Y20921   6.656   2.739   8.702 -0.1127  1.0767  0.2454
  182SLPC  C31320922   6.850   2.824   8.687 -0.0313  0.1366 -0.3185
  182SLPC  H13X20923   6.936   2.847   8.753  0.5747 -0.8335 -0.7380
  182SLPC  H13Y20924   6.806   2.923   8.665 -2.0803 -0.5108  0.6042
  182SLPC  C31420925   6.883   2.746   8.559  0.8227 -0.3912 -0.3999
  182SLPC  H14X20926   6.874   2.639   8.587  0.0581 -0.0113  0.9288
  182SLPC  H14Y20927   6.988   2.773   8.537  1.0904  0.8011  1.9624
  182SLPC  C31520928   6.783   2.783   8.441  0.2196  0.2402  0.1751
  182SLPC  H15X20929   6.782   2.892   8.420  0.0249  0.2140  0.0506
  182SLPC  H15Y20930   6.681   2.753   8.474  0.5496 -0.1305  0.8860
  182SLPC  C31620931   6.823   2.703   8.318 -0.2041  0.9141  0.3945
  182SLPC  H16X20932   6.822   2.598   8.357 -2.3347  0.4189 -0.8259
  182SLPC  H16Y20933   6.925   2.731   8.285 -0.3219 -0.0488 -0.8540
  182SLPC  C31720934   6.723   2.717   8.206 -0.2621 -0.0440 -0.5067
  182SLPC  H17X20935   6.713   2.827   8.194 -0.5299 -0.0324 -0.2131
  182SLPC  H17Y20936   6.625   2.673   8.234 -0.7543  0.3130 -1.6057
  182SLPC  C31820937   6.760   2.661   8.067  0.3215 -0.0741  0.5631
  182SLPC  H18X20938   6.749   2.551   8.073 -0.0924 -0.1373 -0.9499
  182SLPC  H18Y20939   6.863   2.692   8.037  0.9240 -0.9163  1.7071
  182SLPC  H18Z20940   6.685   2.696   7.993  0.9328 -1.0544 -0.5541
  183SLPC     N20941   3.806   5.487  10.678 -0.3822  0.3421 -0.2017
  183SLPC   C1320942   3.845   5.619  10.600  0.7368  0.5612  0.2461
  183SLPC  H13A20943   3.953   5.616  10.597  0.7965 -1.7209  1.6687
  183SLPC  H13B20944   3.814   5.608  10.498  0.3183  0.3050  0.3974
  183SLPC  H13C20945   3.808   5.709  10.648 -0.4976  0.1780  0.0350
  183SLPC   C1420946   3.660   5.462  10.672  0.0728  0.2328 -0.6820
  183SLPC  H14A20947   3.635   5.365  10.712 -0.1696  0.5581 -0.0270
  183SLPC  H14B20948   3.604   5.531  10.733 -0.2051  0.5673 -1.3112
  183SLPC  H14C20949   3.628   5.465  10.569 -0.1722  3.6184 -0.6037
  183SLPC   C1520950   3.848   5.508  10.818 -0.2919 -0.1408 -0.8234
  183SLPC  H15A20951   3.786   5.578  10.873 -1.0865  0.9682 -2.9939
  183SLPC  H15B20952   3.868   5.415  10.868 -0.3109 -0.4856 -1.4488
  183SLPC  H15C20953   3.947   5.550  10.817 -0.0273 -0.3614  2.7542
  183SLPC   C1220954   3.875   5.373  10.609 -0.1470  0.0306  0.2984
  183SLPC  H12A20955   3.842   5.370  10.506  2.3760 -2.4397 -0.5572
  183SLPC  H12B20956   3.833   5.278  10.640  1.6867 -1.3135 -1.1142
  183SLPC   C1120957   4.027   5.360  10.607  0.1547 -0.6296 -0.1924
  183SLPC  H11A20958   4.068   5.432  10.532 -1.1403 -0.4413 -0.7436
  183SLPC  H11B20959   4.052   5.261  10.563  2.6535 -1.2989  2.4534
  183SLPC     P20960   4.145   5.251  10.820  0.0558  0.0672 -0.1110
  183SLPC   O1320961   4.242   5.293  10.927 -0.3051 -0.1873 -0.5434
  183SLPC   O1420962   4.029   5.170  10.862  0.0102  0.4657  0.7039
  183SLPC   O1220963   4.092   5.381  10.741 -0.0782  0.7272  0.4516
  183SLPC   O1120964   4.229   5.176  10.711  0.2336 -0.6074  0.3092
  183SLPC    C120965   4.359   5.233  10.664 -0.5817 -0.3023 -0.3129
  183SLPC    HA20966   4.350   5.330  10.610 -0.0623  0.6408  1.2421
  183SLPC    HB20967   4.430   5.249  10.748 -4.5570  0.8353  3.1714
  183SLPC    C220968   4.421   5.139  10.548  0.0554  0.2869 -0.0336
  183SLPC    HS20969   4.496   5.204  10.497 -0.7549  1.8736  0.7135
  183SLPC   O2120970   4.317   5.087  10.464  0.1487 -0.0335 -0.3266
  183SLPC   C2120971   4.276   5.183  10.382 -0.0249 -0.1663 -0.5887
  183SLPC   O2220972   4.311   5.299  10.369 -0.1729 -0.9272 -0.4355
  183SLPC   C2220973   4.158   5.122  10.302  0.1495  0.4723  0.2431
  183SLPC   H2R20974   4.189   5.024  10.259  0.4617  0.3301  0.7771
  183SLPC   H2S20975   4.075   5.116  10.376  0.9523 -0.9296  1.0859
  183SLPC    C320976   4.490   5.008  10.607 -0.0346  0.1870 -0.8486
  183SLPC    HX20977   4.421   4.961  10.680  1.8885 -3.4495 -1.1618
  183SLPC    HY20978   4.575   5.054  10.662 -1.6992  1.3295  0.8980
  183SLPC   O3120979   4.525   4.913  10.502  0.4819 -0.3927  0.6463
  183SLPC   C3120980   4.440   4.814  10.493  0.1162 -0.3793 -0.8153
  183SLPC   O3220981   4.334   4.798  10.551 -0.4020  0.0895 -0.0475
  183SLPC   C3220982   4.504   4.712  10.400 -0.9522 -0.7303  0.0965
  183SLPC   H2X20983   4.486   4.615  10.452 -0.1964 -1.5565 -1.1272
  183SLPC   H2Y20984   4.613   4.731  10.388 -1.0423  0.1093  0.5278
  183SLPC   C2320985   4.106   5.205  10.180  0.6534 -0.0244 -0.0146
  183SLPC   H3R20986   4.079   5.309  10.209  0.3072  0.0035 -0.4184
  183SLPC   H3S20987   4.011   5.154  10.153  0.7590 -0.1615 -0.1334
  183SLPC   C2420988   4.199   5.196  10.056  0.4778 -0.3476 -0.0919
  183SLPC   H4R20989   4.215   5.088  10.033 -0.5798 -0.6915  0.7451
  183SLPC   H4S20990   4.292   5.254  10.072  2.3210 -2.9520 -0.6056
  183SLPC   C2520991   4.120   5.250   9.939 -0.5062  0.3178 -0.1442
  183SLPC   H5R20992   4.095   5.353   9.973  0.9284  0.4065  0.7631
  183SLPC   H5S20993   4.018   5.216   9.913 -1.6609  2.2992  1.5091
  183SLPC   C2620994   4.210   5.248   9.808  0.4901 -0.4683  0.0529
  183SLPC   H6R20995   4.226   5.144   9.771  0.5482  0.0284 -1.3981
  183SLPC   H6S20996   4.309   5.297   9.823  0.0698  0.6650 -0.6829
  183SLPC   C2720997   4.137   5.324   9.695 -0.8358 -0.2248 -0.2959
  183SLPC   H7R20998   4.122   5.427   9.733 -1.3963 -0.2103 -0.5504
  183SLPC   H7S20999   4.042   5.266   9.695  0.0464 -1.7254  0.1201
  183SLPC   C2821000   4.208   5.313   9.561 -0.0722  0.3463  0.0572
  183SLPC   H8R21001   4.265   5.218   9.565  0.0782  0.3777 -0.9698
  183SLPC   H8S21002   4.269   5.406   9.549  1.8393 -0.8503  0.0772
  183SLPC   C2921003   4.109   5.310   9.443  0.8445  0.1189 -0.0068
  183SLPC   H9R21004   4.004   5.302   9.474  1.0353  0.0127  0.6389
  183SLPC  C21021005   4.132   5.321   9.314 -0.2445  0.1597 -0.0036
  183SLPC  H10R21006   4.051   5.318   9.240 -0.8368  0.6954  0.6062
  183SLPC  C21121007   4.262   5.345   9.253  0.5299 -0.1908 -0.5451
  183SLPC  H11R21008   4.318   5.395   9.335 -0.6198 -0.0326  0.1624
  183SLPC  H11S21009   4.245   5.414   9.168 -1.9669 -1.4728 -1.1981
  183SLPC  C21221010   4.344   5.222   9.213 -0.0659  0.1138 -0.3712
  183SLPC  H12R21011   4.394   5.171   9.297 -1.5948  0.1518  0.6187
  183SLPC  C21321012   4.372   5.182   9.091 -0.3792 -0.3928 -0.0486
  183SLPC  H13R21013   4.444   5.100   9.081  1.4449  0.9082  1.7187
  183SLPC  C21421014   4.323   5.226   8.957 -0.3777  0.3290 -0.4696
  183SLPC  H14R21015   4.408   5.258   8.894 -0.0400  1.2264  0.4333
  183SLPC  H14S21016   4.253   5.311   8.962 -1.8963 -0.8247 -1.1396
  183SLPC  C21521017   4.264   5.113   8.875  0.8034 -0.1311  0.3015
  183SLPC  H15R21018   4.333   5.026   8.865  3.5416  1.9071  0.4382
  183SLPC  H15S21019   4.245   5.147   8.771  2.3422 -1.9527 -0.6339
  183SLPC  C21621020   4.133   5.054   8.925 -0.2680 -0.0011  0.7028
  183SLPC  H16R21021   4.147   5.016   9.028 -2.2274  1.2115  1.4710
  183SLPC  H16S21022   4.119   4.968   8.856 -1.3148 -0.3765  1.3533
  183SLPC  C21721023   4.015   5.152   8.943  0.1384  0.8915  0.4037
  183SLPC  H17R21024   4.015   5.205   8.846  0.1740 -0.0883 -0.1512
  183SLPC  H17S21025   4.029   5.226   9.025  0.0048  0.2137  1.0535
  183SLPC  C21821026   3.884   5.074   8.962  0.5196 -0.0775 -0.6795
  183SLPC  H18R21027   3.862   5.018   9.055 -1.1148 -0.6663 -1.3765
  183SLPC  H18S21028   3.858   5.016   8.871 -0.3607  0.8058 -1.0143
  183SLPC  H18T21029   3.805   5.153   8.960 -1.2689 -1.7730  0.1558
  183SLPC   C3321030   4.442   4.704  10.259  0.5096 -0.2151 -0.4455
  183SLPC   H3X21031   4.339   4.663  10.267  0.2207  0.5563 -0.1189
  183SLPC   H3Y21032   4.504   4.629  10.206  1.2991 -1.1312  1.6277
  183SLPC   C3421033   4.448   4.838  10.183 -0.5171  0.5419  0.2984
  183SLPC   H4X21034   4.405   4.919  10.245  1.2544  1.2016  0.7232
  183SLPC   H4Y21035   4.386   4.829  10.091 -0.5202  1.4331  0.2046
  183SLPC   C3521036   4.592   4.860  10.134  0.4612 -0.1037  0.5740
  183SLPC   H5X21037   4.632   4.765  10.092 -0.6260 -0.1254 -0.4576
  183SLPC   H5Y21038   4.645   4.875  10.231  0.9935  0.9320  0.1418
  183SLPC   C3621039   4.604   4.969  10.025 -0.0304 -0.5422  0.0487
  183SLPC   H6X21040   4.714   4.978  10.008  0.1217  1.7726  1.7808
  183SLPC   H6Y21041   4.570   5.063  10.072 -0.4959 -0.9215  0.4763
  183SLPC   C3721042   4.529   4.948   9.897  0.0512 -0.3876  0.1613
  183SLPC   H7X21043   4.422   4.975   9.904  0.0002 -0.6055  0.2100
  183SLPC   H7Y21044   4.522   4.841   9.869 -3.3429  0.4386 -2.9806
  183SLPC   C3821045   4.577   5.028   9.768  0.2242  0.0858  0.3772
  183SLPC   H8X21046   4.685   5.007   9.750  0.1380 -0.4804  0.5192
  183SLPC   H8Y21047   4.572   5.139   9.777  2.9605  0.3392 -0.1713
  183SLPC   C3921048   4.512   4.986   9.641  0.8384  0.4866 -0.0433
  183SLPC   H9X21049   4.402   5.001   9.651  0.5959 -1.3301  0.4943
  183SLPC   H9Y21050   4.519   4.876   9.626  1.7111  0.6211 -0.7316
  183SLPC  C31021051   4.550   5.053   9.511 -0.1695  0.3312  0.0619
  183SLPC  H10X21052   4.509   5.156   9.513  2.1256  1.4106 -2.2930
  183SLPC  H10Y21053   4.505   4.995   9.427  0.5817  0.5189 -0.4765
  183SLPC  C31121054   4.699   5.056   9.480 -0.0292 -0.6471  0.2616
  183SLPC  H11X21055   4.735   4.951   9.480  0.8716 -0.3472  0.7040
  183SLPC  H11Y21056   4.761   5.098   9.561  0.4127 -4.0475  1.8713
  183SLPC  C31221057   4.725   5.124   9.346  0.7778  0.2959  0.3174
  183SLPC  H12X21058   4.690   5.229   9.335 -1.4985 -0.4091  0.3389
  183SLPC  H12Y21059   4.654   5.078   9.274 -0.5919  1.7967  0.6648
  183SLPC  C31321060   4.874   5.111   9.305 -0.1192 -0.2490  0.1417
  183SLPC  H13X21061   4.883   5.006   9.270  0.5754  0.7969 -3.2916
  183SLPC  H13Y21062   4.942   5.120   9.392  1.4275 -2.5984 -0.7219
  183SLPC  C31421063   4.914   5.204   9.183  0.0984 -0.4596 -0.4422
  183SLPC  H14X21064   5.018   5.178   9.151 -0.0747  0.8570 -2.2280
  183SLPC  H14Y21065   4.923   5.306   9.226  2.4824 -0.7032 -0.1888
  183SLPC  C31521066   4.827   5.194   9.056  0.0095 -0.0072  0.3755
  183SLPC  H15X21067   4.723   5.233   9.066  1.1656  3.5878  0.0176
  183SLPC  H15Y21068   4.813   5.084   9.057  3.1956 -0.4837  0.7724
  183SLPC  C31621069   4.894   5.257   8.936 -0.3995  0.1518  0.2673
  183SLPC  H16X21070   5.000   5.228   8.925  0.0745  0.8599  2.5232
  183SLPC  H16Y21071   4.895   5.368   8.936  2.4196  0.1925  0.7397
  183SLPC  C31721072   4.840   5.202   8.805 -0.5759  0.3609  0.2296
  183SLPC  H17X21073   4.729   5.209   8.801 -0.5428  0.2239 -1.7256
  183SLPC  H17Y21074   4.873   5.097   8.818  2.2301  1.2402  0.7755
  183SLPC  C31821075   4.915   5.262   8.684 -0.3720 -0.1071  0.3884
  183SLPC  H18X21076   5.022   5.254   8.713 -0.9647 -1.0141  2.4942
  183SLPC  H18Y21077   4.894   5.371   8.672 -0.2803 -0.3039 -2.0689
  183SLPC  H18Z21078   4.900   5.204   8.591 -0.4989 -1.9814  1.5351
  184SLPC     N21079   3.707   3.335  11.067  0.0084 -0.6984 -0.6657
  184SLPC   C1321080   3.809   3.248  11.128  0.1015 -0.1127  0.7906
  184SLPC  H13A21081   3.770   3.170  11.192 -1.1760  0.8617  1.2375
  184SLPC  H13B21082   3.877   3.207  11.055 -0.3981  0.1230  0.1889
  184SLPC  H13C21083   3.872   3.300  11.199  0.8925  0.5610 -0.3720
  184SLPC   C1421084   3.765   3.472  11.026  0.8377  0.1806 -0.4315
  184SLPC  H14A21085   3.816   3.462  10.931  1.1094  0.9084 -0.3659
  184SLPC  H14B21086   3.682   3.535  10.998  0.4073  0.3873  1.2211
  184SLPC  H14C21087   3.829   3.507  11.106  1.1354  0.6021 -0.8499
  184SLPC   C1521088   3.597   3.356  11.169 -0.2844  0.3435 -1.2008
  184SLPC  H15A21089   3.641   3.399  11.258  0.0056 -1.0755 -0.6278
  184SLPC  H15B21090   3.524   3.423  11.128 -0.4551 -0.0327 -1.5160
  184SLPC  H15C21091   3.559   3.262  11.208 -1.7377  0.6945 -1.7183
  184SLPC   C1221092   3.665   3.269  10.938  0.5410 -0.3032  0.0480
  184SLPC  H12A21093   3.586   3.325  10.889 -0.8404 -1.0684  1.3194
  184SLPC  H12B21094   3.614   3.178  10.965  1.2300 -0.4224  1.0046
  184SLPC   C1121095   3.768   3.229  10.825  0.7371 -0.2561 -0.3985
  184SLPC  H11A21096   3.833   3.313  10.791  0.6427 -0.6717 -1.6856
  184SLPC  H11B21097   3.722   3.206  10.726  2.8974 -2.8012 -0.9555
  184SLPC     P21098   3.795   2.970  10.844  0.2383  0.1858  0.1503
  184SLPC   O1321099   3.906   2.882  10.900  0.7306  0.5456  0.5341
  184SLPC   O1421100   3.651   2.954  10.879 -0.5945 -0.0567 -0.0580
  184SLPC   O1221101   3.842   3.118  10.875  0.1696 -1.1477  0.1674
  184SLPC   O1121102   3.808   2.960  10.687  0.0654 -0.2972  0.1897
  184SLPC    C121103   3.916   2.989  10.600 -0.3977 -0.0389  0.1680
  184SLPC    HA21104   4.013   2.995  10.654  0.8758  0.9034 -2.0772
  184SLPC    HB21105   3.923   2.903  10.531  0.0774 -0.6001  0.9025
  184SLPC    C221106   3.885   3.112  10.508  1.5014  0.1381 -0.0837
  184SLPC    HS21107   3.787   3.152  10.541  0.4670 -1.9130 -0.5047
  184SLPC   O2121108   3.883   3.073  10.367  0.2930  0.5207 -0.1324
  184SLPC   C2121109   3.775   3.108  10.302  0.1176 -0.5422 -0.7776
  184SLPC   O2221110   3.676   3.159  10.350 -0.5455  0.6431  0.2118
  184SLPC   C2221111   3.794   3.089  10.161 -0.0235  0.4495  0.1710
  184SLPC   H2R21112   3.833   3.181  10.113  1.0965 -1.2280 -2.3395
  184SLPC   H2S21113   3.853   2.999  10.137  0.1846  0.2016  1.5341
  184SLPC    C321114   3.984   3.224  10.532 -0.0137 -0.3752  0.1135
  184SLPC    HX21115   4.080   3.170  10.513  0.0498  0.0209 -0.7637
  184SLPC    HY21116   4.002   3.278  10.627 -0.2871 -1.2076  0.6482
  184SLPC   O3121117   3.971   3.330  10.432 -0.5127 -0.0368 -0.1315
  184SLPC   C3121118   3.871   3.415  10.440 -0.8786  0.5593  0.0748
  184SLPC   O3221119   3.792   3.422  10.530 -0.2493 -0.2684 -0.0483
  184SLPC   C3221120   3.873   3.513  10.316 -0.2381  0.5147 -0.4134
  184SLPC   H2X21121   3.889   3.612  10.364 -0.9267  0.5444 -0.2381
  184SLPC   H2Y21122   3.775   3.512  10.263  1.0112 -0.0957 -2.8536
  184SLPC   C2321123   3.665   3.066  10.081 -0.2561 -0.0368 -0.5538
  184SLPC   H3R21124   3.584   3.109  10.144  1.1887  0.3472  1.1138
  184SLPC   H3S21125   3.631   2.961  10.067 -3.1127  0.2775  2.7849
  184SLPC   C2421126   3.662   3.134   9.946  0.6714 -0.2822  0.7264
  184SLPC   H4R21127   3.674   3.245   9.949 -1.4715  0.0168  0.0383
  184SLPC   H4S21128   3.566   3.120   9.890 -0.0189 -1.8582  2.2005
  184SLPC   C2521129   3.768   3.084   9.850 -0.0138  0.8704  0.0440
  184SLPC   H5R21130   3.742   2.976   9.856  1.4908  0.5197  0.7712
  184SLPC   H5S21131   3.873   3.089   9.886  0.7891 -0.9420 -1.8137
  184SLPC   C2621132   3.749   3.135   9.708  0.6458  0.1442 -0.1285
  184SLPC   H6R21133   3.778   3.242   9.704 -1.7784  0.8139 -0.7740
  184SLPC   H6S21134   3.642   3.129   9.681  0.5522 -0.5712  0.3749
  184SLPC   C2721135   3.838   3.064   9.611 -1.1246  0.3777 -0.8550
  184SLPC   H7R21136   3.876   2.977   9.669 -1.9009  1.9689  2.3151
  184SLPC   H7S21137   3.927   3.125   9.588 -1.7218  1.6821  0.1414
  184SLPC   C2821138   3.768   3.016   9.488 -0.1196  0.7103  0.6272
  184SLPC   H8R21139   3.676   3.072   9.460 -1.4518 -0.6751  2.0310
  184SLPC   H8S21140   3.740   2.913   9.519  0.0908  1.2172  2.5659
  184SLPC   C2921141   3.861   3.017   9.370 -0.8042 -0.2793 -0.2604
  184SLPC   H9R21142   3.967   2.999   9.392 -0.3392 -0.2259 -2.3019
  184SLPC  C21021143   3.842   3.049   9.242  0.5147 -0.1147 -0.5208
  184SLPC  H10R21144   3.926   3.051   9.171 -0.4942  0.8392 -1.7389
  184SLPC  C21121145   3.711   3.101   9.182  0.0071  0.6729  0.3095
  184SLPC  H11R21146   3.705   3.201   9.134 -2.4751  1.5479  2.2091
  184SLPC  H11S21147   3.630   3.108   9.258 -0.8070  2.3021 -0.6684
  184SLPC  C21221148   3.661   2.994   9.083 -0.3857 -0.0880  0.2398
  184SLPC  H12R21149   3.596   2.916   9.124 -1.5319 -0.3225 -1.8623
  184SLPC  C21321150   3.677   2.995   8.950 -0.2195  0.0124 -0.9239
  184SLPC  H13R21151   3.639   2.909   8.892 -1.4161 -1.9887  2.4907
  184SLPC  C21421152   3.747   3.104   8.877  0.3358 -0.5288  1.6771
  184SLPC  H14R21153   3.843   3.059   8.842  0.8739  0.1145  2.2877
  184SLPC  H14S21154   3.787   3.192   8.933  0.1486  0.8750 -0.3128
  184SLPC  C21521155   3.659   3.174   8.766 -0.4264  0.3777  0.2154
  184SLPC  H15R21156   3.576   3.232   8.811  0.4497  1.9103 -0.0730
  184SLPC  H15S21157   3.619   3.099   8.694 -0.5256  0.5188  0.1236
  184SLPC  C21621158   3.728   3.284   8.693 -0.0635 -0.1885 -0.1341
  184SLPC  H16R21159   3.827   3.245   8.660 -0.7710 -1.6265 -0.6647
  184SLPC  H16S21160   3.737   3.370   8.762 -1.5933 -1.3760  1.6431
  184SLPC  C21721161   3.642   3.335   8.575  0.6932  0.5179 -0.4756
  184SLPC  H17R21162   3.558   3.388   8.625  0.2325  1.0673 -1.7763
  184SLPC  H17S21163   3.592   3.255   8.517  1.4201 -1.2889  1.3080
  184SLPC  C21821164   3.713   3.435   8.481  0.1746  0.1798  0.2583
  184SLPC  H18R21165   3.784   3.493   8.544  1.4323 -0.4268 -0.5561
  184SLPC  H18S21166   3.649   3.506   8.424 -0.4258 -1.0771 -0.6683
  184SLPC  H18T21167   3.779   3.387   8.406  0.8802 -0.5809  1.3204
  184SLPC   C3321168   3.983   3.477  10.214  0.1576 -0.5460  0.2243
  184SLPC   H3X21169   3.958   3.377  10.174 -1.0217 -0.0522 -0.3172
  184SLPC   H3Y21170   4.081   3.477  10.266  0.2908  0.9624  0.0270
  184SLPC   C3421171   4.001   3.579  10.097  0.1288  0.2120  0.4395
  184SLPC   H4X21172   4.044   3.668  10.148  2.6754 -0.9658  0.4655
  184SLPC   H4Y21173   3.904   3.614  10.054  0.3061 -2.3447 -2.3589
  184SLPC   C3521174   4.098   3.529   9.991  0.1516 -0.2267  0.0700
  184SLPC   H5X21175   4.150   3.442  10.037 -0.9686  0.6539  3.3189
  184SLPC   H5Y21176   4.167   3.611   9.962 -0.5346  0.3008 -0.0805
  184SLPC   C3621177   4.016   3.493   9.862 -0.0405  0.7927 -0.0522
  184SLPC   H6X21178   3.961   3.588   9.842  2.0147  2.4738  1.7734
  184SLPC   H6Y21179   3.943   3.410   9.869  0.4613  0.2221 -1.1520
  184SLPC   C3721180   4.104   3.465   9.741 -0.1399  0.1800  0.4361
  184SLPC   H7X21181   4.171   3.379   9.766 -1.4496 -1.9864 -2.8318
  184SLPC   H7Y21182   4.167   3.553   9.717 -0.5705  0.5031  0.4864
  184SLPC   C3821183   4.027   3.431   9.614  0.3458  0.1451 -0.0584
  184SLPC   H8X21184   3.977   3.523   9.579  1.5485  1.1479  0.7792
  184SLPC   H8Y21185   3.955   3.350   9.637 -2.0035  1.4428 -2.3658
  184SLPC   C3921186   4.117   3.394   9.490  0.4907 -0.0685 -0.6194
  184SLPC   H9X21187   4.164   3.298   9.520 -0.3422 -0.0909  0.7485
  184SLPC   H9Y21188   4.208   3.455   9.479  0.8481 -0.2172  1.1798
  184SLPC  C31021189   4.050   3.387   9.356  0.4877  0.5807 -0.0647
  184SLPC  H10X21190   3.980   3.473   9.353  1.3967  1.6333  3.5270
  184SLPC  H10Y21191   3.981   3.300   9.364 -1.0399  1.9536  3.7303
  184SLPC  C31121192   4.146   3.366   9.238 -0.4623  0.3937 -0.3785
  184SLPC  H11X21193   4.196   3.268   9.253 -2.9249 -0.9813 -0.5348
  184SLPC  H11Y21194   4.215   3.452   9.228 -1.0267  0.7483 -1.4550
  184SLPC  C31221195   4.061   3.353   9.103  0.1045  0.0964  0.2461
  184SLPC  H12X21196   3.995   3.443   9.106  0.1734  0.1293  1.8413
  184SLPC  H12Y21197   4.001   3.260   9.094  0.8921 -0.3463 -0.7182
  184SLPC  C31321198   4.146   3.356   8.978 -0.2682  0.6302 -0.1019
  184SLPC  H13X21199   4.177   3.250   8.972 -1.1540  0.4173 -1.4130
  184SLPC  H13Y21200   4.234   3.422   8.996  0.4209 -0.7877  2.1981
  184SLPC  C31421201   4.067   3.400   8.854 -0.5136 -0.2288  0.4812
  184SLPC  H14X21202   3.970   3.347   8.857 -0.0111 -1.3218 -1.0955
  184SLPC  H14Y21203   4.125   3.359   8.769  0.4007 -0.8166  1.3699
  184SLPC  C31521204   4.045   3.555   8.843 -0.3799 -0.1797  0.3607
  184SLPC  H15X21205   4.004   3.583   8.942  0.9196 -3.1260  1.8445
  184SLPC  H15Y21206   3.972   3.578   8.762 -1.1869  0.7509  1.3303
  184SLPC  C31621207   4.175   3.638   8.814 -0.2312  0.1345 -0.0619
  184SLPC  H16X21208   4.252   3.619   8.891  0.1010  1.9936  0.1225
  184SLPC  H16Y21209   4.154   3.746   8.829  1.7921  0.7275 -1.1396
  184SLPC  C31721210   4.243   3.610   8.682  0.0475  0.0338  0.6138
  184SLPC  H17X21211   4.176   3.630   8.596  0.6730 -0.6199 -0.0428
  184SLPC  H17Y21212   4.265   3.501   8.677  0.8739  0.2490 -1.0862
  184SLPC  C31821213   4.370   3.690   8.657  0.3725  0.0377 -0.2233
  184SLPC  H18X21214   4.453   3.625   8.621  0.4620  0.2993 -0.4969
  184SLPC  H18Y21215   4.401   3.738   8.752 -0.6075  1.3656 -0.5514
  184SLPC  H18Z21216   4.336   3.770   8.587 -4.5084 -0.4484  1.2217
  185SLPC     N21217   4.742   6.475   5.790 -0.0811  0.3781  0.2779
  185SLPC   C1321218   4.640   6.426   5.693  1.1326 -0.0888  0.2785
  185SLPC  H13A21219   4.638   6.318   5.696  0.4681 -0.0851  0.1183
  185SLPC  H13B21220   4.549   6.473   5.726  1.2189  0.6768 -0.5509
  185SLPC  H13C21221   4.644   6.462   5.591 -1.0325  0.7542  0.4538
  185SLPC   C1421222   4.726   6.627   5.782 -0.1367 -0.2533  0.3194
  185SLPC  H14A21223   4.761   6.668   5.876 -1.6806  0.1012  0.7704
  185SLPC  H14B21224   4.780   6.669   5.699  1.6337  1.6051  2.2830
  185SLPC  H14C21225   4.622   6.654   5.769  0.3208  1.6518  0.2989
  185SLPC   C1521226   4.890   6.441   5.757  0.3822  0.0359  0.0200
  185SLPC  H15A21227   4.899   6.333   5.761 -0.5451 -0.0257  1.1343
  185SLPC  H15B21228   4.916   6.479   5.660  2.4097 -1.0987  0.0557
  185SLPC  H15C21229   4.961   6.483   5.827  1.8533  3.1776 -3.0672
  185SLPC   C1221230   4.712   6.427   5.928 -0.5591 -0.5268 -0.0815
  185SLPC  H12A21231   4.748   6.326   5.941  1.7142  0.5394  3.1770
  185SLPC  H12B21232   4.607   6.424   5.953 -0.3004 -0.5075  1.0624
  185SLPC   C1121233   4.770   6.503   6.053 -0.1562  0.1032  0.0912
  185SLPC  H11A21234   4.874   6.530   6.022  0.1198 -0.8280  0.1855
  185SLPC  H11B21235   4.766   6.441   6.145 -0.1641  0.0391  0.0474
  185SLPC     P21236   4.554   6.629   6.125  0.2067 -0.0982  0.2177
  185SLPC   O1321237   4.503   6.760   6.092  0.6376 -0.2316 -0.5543
  185SLPC   O1421238   4.477   6.517   6.073  0.5607 -0.4481  0.3405
  185SLPC   O1221239   4.702   6.624   6.079 -0.1748  0.0618  0.3138
  185SLPC   O1121240   4.571   6.618   6.285 -0.0488  0.1191  0.4971
  185SLPC    C121241   4.689   6.658   6.360 -0.2825 -0.7083  0.3348
  185SLPC    HA21242   4.775   6.604   6.317 -1.7820 -1.8127 -1.4510
  185SLPC    HB21243   4.708   6.765   6.335 -0.3505 -1.1902 -1.9986
  185SLPC    C221244   4.680   6.644   6.507  0.5737  0.0445 -0.1030
  185SLPC    HS21245   4.778   6.661   6.554 -0.3895  2.2462  1.2616
  185SLPC   O2121246   4.619   6.518   6.552 -0.7819  0.2499 -0.5216
  185SLPC   C2121247   4.696   6.415   6.532  0.2558 -0.5159  0.0842
  185SLPC   O2221248   4.811   6.415   6.488  0.2748 -0.2650 -1.1747
  185SLPC   C2221249   4.610   6.292   6.567  0.5452 -0.1200  0.6021
  185SLPC   H2R21250   4.558   6.298   6.665  0.4406 -0.3004  0.5566
  185SLPC   H2S21251   4.537   6.289   6.484 -0.5702 -2.5006  1.5737
  185SLPC    C321252   4.595   6.761   6.558  0.6374 -0.6150  0.0157
  185SLPC    HX21253   4.490   6.760   6.520  0.6847 -2.2849 -0.1767
  185SLPC    HY21254   4.641   6.850   6.510 -1.2218 -0.0852 -0.8746
  185SLPC   O3121255   4.601   6.771   6.706  0.0726  0.6681  0.6565
  185SLPC   C3121256   4.500   6.713   6.771  0.3667  0.0642 -0.1163
  185SLPC   O3221257   4.394   6.667   6.723 -0.0525  0.4583  0.6003
  185SLPC   C3221258   4.528   6.712   6.920 -0.1978 -0.3994  0.5505
  185SLPC   H2X21259   4.483   6.807   6.954  1.4176  0.1209  1.3458
  185SLPC   H2Y21260   4.638   6.713   6.940 -0.4342 -1.2900  2.0423
  185SLPC   C2321261   4.699   6.166   6.563 -0.2544 -0.1454  0.1445
  185SLPC   H3R21262   4.773   6.165   6.480  1.3928 -2.1212  1.5569
  185SLPC   H3S21263   4.640   6.074   6.542  1.7290 -1.4834  0.1775
  185SLPC   C2421264   4.785   6.139   6.689 -0.2886  0.5115 -0.0114
  185SLPC   H4R21265   4.778   6.226   6.757 -0.2749  1.5833 -1.3408
  185SLPC   H4S21266   4.889   6.131   6.650 -0.6697 -0.5390 -0.8669
  185SLPC   C2521267   4.755   6.000   6.752  0.1227  0.1571 -0.5183
  185SLPC   H5R21268   4.760   5.914   6.681  2.2005  0.0367 -0.2693
  185SLPC   H5S21269   4.646   6.009   6.774 -0.0716 -0.2380 -1.2684
  185SLPC   C2621270   4.820   5.968   6.885 -0.0994 -0.1051  0.1361
  185SLPC   H6R21271   4.851   6.059   6.941 -0.7087 -0.6375  1.3794
  185SLPC   H6S21272   4.914   5.913   6.860 -0.6448 -0.5980 -0.8744
  185SLPC   C2721273   4.730   5.876   6.972 -0.0099  0.5416 -0.6172
  185SLPC   H7R21274   4.777   5.788   7.021 -2.7758 -1.2806 -1.0285
  185SLPC   H7S21275   4.648   5.827   6.916 -0.6654 -0.1199  0.8626
  185SLPC   C2821276   4.653   5.946   7.088 -0.4299 -0.6366  0.3251
  185SLPC   H8R21277   4.573   5.875   7.121 -2.0412  1.3823  0.9930
  185SLPC   H8S21278   4.609   6.034   7.037  1.3853  1.4719  2.1814
  185SLPC   C2921279   4.750   5.988   7.186  0.2940 -0.2360  0.3384
  185SLPC   H9R21280   4.841   6.017   7.132 -0.0558 -0.9364 -0.6419
  185SLPC  C21021281   4.753   5.953   7.318 -0.1641  0.1747  0.3798
  185SLPC  H10R21282   4.846   5.988   7.366  2.4741 -0.2456 -3.8592
  185SLPC  C21121283   4.638   5.896   7.403  0.1765  0.3006  0.5177
  185SLPC  H11R21284   4.670   5.822   7.480 -0.2009 -2.1220 -1.5120
  185SLPC  H11S21285   4.588   5.833   7.326  0.6328 -0.1114  0.5529
  185SLPC  C21221286   4.521   5.984   7.448  0.3741 -0.4047 -0.3485
  185SLPC  H12R21287   4.470   6.040   7.369  0.8772  0.9535  0.2542
  185SLPC  C21321288   4.463   5.989   7.570  0.0331 -0.0302 -0.5914
  185SLPC  H13R21289   4.376   6.054   7.583 -1.4045 -2.2186  1.2716
  185SLPC  C21421290   4.520   5.937   7.703  0.3349  0.3972  0.0969
  185SLPC  H14R21291   4.613   5.879   7.683 -0.6397 -0.5868 -1.8855
  185SLPC  H14S21292   4.446   5.867   7.749  0.4873 -0.4835 -0.9529
  185SLPC  C21521293   4.538   6.057   7.798  0.6148  0.6179  0.7404
  185SLPC  H15R21294   4.579   6.142   7.740 -2.1959  1.7977  0.3135
  185SLPC  H15S21295   4.618   6.033   7.871 -0.5716 -2.4321  1.1772
  185SLPC  C21621296   4.407   6.090   7.871  0.0477 -0.3580  0.0919
  185SLPC  H16R21297   4.387   6.012   7.947 -3.1545 -0.1076 -0.3851
  185SLPC  H16S21298   4.323   6.108   7.801  0.7305  2.4832 -0.0911
  185SLPC  C21721299   4.424   6.226   7.956 -0.5001  0.2464  0.3480
  185SLPC  H17R21300   4.422   6.310   7.884  0.0903 -3.4747 -4.5302
  185SLPC  H17S21301   4.517   6.217   8.016 -0.2649 -1.3101 -0.1929
  185SLPC  C21821302   4.308   6.249   8.052  0.0119 -0.4496  0.1842
  185SLPC  H18R21303   4.210   6.247   8.000 -0.7080 -1.0251  1.5195
  185SLPC  H18S21304   4.326   6.348   8.101 -0.7947 -1.1133  1.9128
  185SLPC  H18T21305   4.282   6.173   8.129 -0.7817 -0.1201  0.2501
  185SLPC   C3321306   4.460   6.596   7.000 -0.0142 -0.1672  0.4462
  185SLPC   H3X21307   4.492   6.498   6.957 -0.4091 -0.1857  0.1949
  185SLPC   H3Y21308   4.350   6.592   6.990  0.1733 -0.9526 -2.0351
  185SLPC   C3421309   4.492   6.609   7.150 -0.2905  0.2664  0.3558
  185SLPC   H4X21310   4.597   6.581   7.177 -0.7150 -0.4318  1.3453
  185SLPC   H4Y21311   4.428   6.538   7.206  0.2246 -0.1132  0.4797
  185SLPC   C3521312   4.460   6.745   7.214  0.3244 -0.4552 -0.2941
  185SLPC   H5X21313   4.518   6.822   7.159  0.5375 -1.5431 -1.6694
  185SLPC   H5Y21314   4.484   6.759   7.322  1.2480  2.9104 -0.8280
  185SLPC   C3621315   4.313   6.782   7.203 -0.3351  0.9747 -1.0012
  185SLPC   H6X21316   4.252   6.696   7.238  1.1892 -0.6399 -2.1348
  185SLPC   H6Y21317   4.277   6.793   7.098 -4.2776 -1.6212 -0.1127
  185SLPC   C3721318   4.258   6.902   7.276  0.4314 -0.0100  0.4018
  185SLPC   H7X21319   4.274   6.898   7.386  3.9825 -0.5687 -0.0145
  185SLPC   H7Y21320   4.147   6.894   7.268  0.5291 -1.2762  0.0694
  185SLPC   C3821321   4.324   7.033   7.229  0.7776  0.1235  0.2486
  185SLPC   H8X21322   4.346   7.029   7.120  1.7497  2.3025  0.3111
  185SLPC   H8Y21323   4.417   7.045   7.289  0.8449  2.4762 -0.2483
  185SLPC   C3921324   4.247   7.160   7.274  0.0254 -0.5053  0.3739
  185SLPC   H9X21325   4.147   7.153   7.226 -0.3712 -0.6763  1.2062
  185SLPC   H9Y21326   4.311   7.245   7.243 -0.3086 -0.7505 -1.0737
  185SLPC  C31021327   4.214   7.180   7.424  0.1048 -0.5900  0.6648
  185SLPC  H10X21328   4.310   7.181   7.481  1.4289 -0.1170 -1.4423
  185SLPC  H10Y21329   4.156   7.091   7.455 -1.6921  0.2569 -0.1325
  185SLPC  C31121330   4.117   7.295   7.455  0.0857 -0.5107  0.5046
  185SLPC  H11X21331   4.020   7.277   7.404 -0.9515  1.5089  1.6358
  185SLPC  H11Y21332   4.165   7.392   7.427 -0.6411 -0.6703 -1.4617
  185SLPC  C31221333   4.066   7.285   7.602 -0.3096  0.0970  0.0227
  185SLPC  H12X21334   4.051   7.179   7.633  0.0715  0.4622  1.5188
  185SLPC  H12Y21335   3.976   7.349   7.610 -0.4552 -0.1879  0.6796
  185SLPC  C31321336   4.163   7.355   7.702 -0.0703  1.6957 -0.5951
  185SLPC  H13X21337   4.195   7.456   7.668  2.0886  0.6754 -1.8697
  185SLPC  H13Y21338   4.257   7.295   7.701  0.7384  2.8799  0.4482
  185SLPC  C31421339   4.108   7.368   7.847  0.1855 -0.1221  0.2129
  185SLPC  H14X21340   4.064   7.273   7.884  0.5487  0.5787  2.6288
  185SLPC  H14Y21341   4.024   7.441   7.853 -1.2081 -1.7129  0.8076
  185SLPC  C31521342   4.221   7.419   7.947  0.4317  0.8359  0.4372
  185SLPC  H15X21343   4.272   7.505   7.900  2.7196  0.5496  2.2462
  185SLPC  H15Y21344   4.306   7.349   7.956  1.3318  1.7555 -0.6504
  185SLPC  C31621345   4.188   7.441   8.095 -0.0895 -0.2904 -0.2572
  185SLPC  H16X21346   4.161   7.339   8.132  0.7497  0.0435  1.3328
  185SLPC  H16Y21347   4.108   7.516   8.109 -1.8043 -1.6808 -2.0229
  185SLPC  C31721348   4.317   7.472   8.173  0.1265 -0.5124 -0.1099
  185SLPC  H17X21349   4.383   7.384   8.159 -0.1180 -0.8060  0.5388
  185SLPC  H17Y21350   4.298   7.472   8.282  0.1612  0.5772 -0.0928
  185SLPC  C31821351   4.388   7.604   8.134  0.1920 -0.6625  0.1350
  185SLPC  H18X21352   4.463   7.631   8.212  0.3918 -0.6385 -0.0624
  185SLPC  H18Y21353   4.321   7.692   8.143  0.0348 -0.6478 -0.9942
  185SLPC  H18Z21354   4.444   7.606   8.038  1.4790  0.4669  0.8673
  186SLPC     N21355   5.552   1.256   6.384 -0.1876  0.3680  0.2373
  186SLPC   C1321356   5.525   1.195   6.518 -0.3984  0.4213  0.3210
  186SLPC  H13A21357   5.480   1.098   6.505  1.5333 -0.7105  1.6050
  186SLPC  H13B21358   5.621   1.177   6.565  0.5835  0.1970 -1.6519
  186SLPC  H13C21359   5.462   1.256   6.581 -1.4353 -0.8569  0.5397
  186SLPC   C1421360   5.646   1.368   6.399  0.1823 -1.3095 -0.3627
  186SLPC  H14A21361   5.738   1.336   6.447  0.2610 -1.6516 -0.7357
  186SLPC  H14B21362   5.684   1.402   6.304  3.6029 -0.3028  1.2128
  186SLPC  H14C21363   5.600   1.449   6.453 -1.5770 -0.9304 -2.3139
  186SLPC   C1521364   5.413   1.300   6.345  0.1764  0.1300 -0.4790
  186SLPC  H15A21365   5.350   1.221   6.306 -1.5440  1.1439  0.1320
  186SLPC  H15B21366   5.366   1.325   6.439  0.0180 -2.4013  0.1826
  186SLPC  H15C21367   5.407   1.381   6.275 -0.9322  0.3916 -0.0958
  186SLPC   C1221368   5.595   1.150   6.293 -0.3108  0.6258  0.2086
  186SLPC  H12A21369   5.516   1.076   6.288 -0.1908  0.5205 -0.1432
  186SLPC  H12B21370   5.686   1.096   6.315 -0.8595  0.1369  1.3981
  186SLPC   C1121371   5.640   1.198   6.151  0.9415 -0.0795 -0.1744
  186SLPC  H11A21372   5.575   1.277   6.109  0.8181 -0.4632 -0.7271
  186SLPC  H11B21373   5.634   1.114   6.078  0.7859 -3.1321  3.0780
  186SLPC     P21374   5.891   1.132   6.151 -0.1316  0.0410 -0.3251
  186SLPC   O1321375   5.881   1.074   6.021 -0.2125  0.5344  0.4049
  186SLPC   O1421376   6.020   1.191   6.189 -0.0075  0.5833  0.9972
  186SLPC   O1221377   5.775   1.238   6.164  0.0152  0.4878 -0.7942
  186SLPC   O1121378   5.846   1.025   6.265 -0.0948  0.5774 -0.4023
  186SLPC    C121379   5.928   0.915   6.307  0.0735 -0.2416 -0.1020
  186SLPC    HA21380   5.861   0.829   6.291 -1.3557  1.2358 -3.0278
  186SLPC    HB21381   6.010   0.892   6.235  0.6302 -1.1236  0.7905
  186SLPC    C221382   5.980   0.932   6.452  0.3380 -0.1426  0.4928
  186SLPC    HS21383   6.041   0.845   6.484 -1.8443 -1.4256  1.3414
  186SLPC   O2121384   5.861   0.934   6.538 -0.0380  0.1040 -0.1289
  186SLPC   C2121385   5.808   0.819   6.561  0.0020 -0.1525  0.1253
  186SLPC   O2221386   5.851   0.710   6.532 -0.0402  0.4667 -0.4035
  186SLPC   C2221387   5.679   0.860   6.635  0.7432 -0.0599 -0.3219
  186SLPC   H2R21388   5.656   0.967   6.613 -1.8612 -0.0403  2.0169
  186SLPC   H2S21389   5.603   0.792   6.593 -1.1981  1.5660  0.4084
  186SLPC    C321390   6.070   1.060   6.465  0.6416  0.1136  0.8878
  186SLPC    HX21391   6.006   1.149   6.447 -1.5911 -1.6095 -0.1858
  186SLPC    HY21392   6.158   1.054   6.398  0.4863  2.5355  0.3878
  186SLPC   O3121393   6.117   1.076   6.603 -0.0726  0.6165  0.0906
  186SLPC   C3121394   6.190   1.190   6.625 -0.4882 -0.8883 -0.2547
  186SLPC   O3221395   6.209   1.274   6.546 -0.3356  0.0667 -0.3703
  186SLPC   C3221396   6.238   1.205   6.772  0.3011 -0.0868 -0.7655
  186SLPC   H2X21397   6.177   1.284   6.822  0.1278 -0.4968 -0.3226
  186SLPC   H2Y21398   6.347   1.227   6.768  0.8693 -1.4831  3.0764
  186SLPC   C2321399   5.693   0.838   6.792  0.7018  0.1234 -0.0466
  186SLPC   H3R21400   5.768   0.909   6.832  1.4934 -1.4711  1.4019
  186SLPC   H3S21401   5.728   0.733   6.802 -1.8151 -0.7934 -0.2567
  186SLPC   C2421402   5.563   0.847   6.875  0.4074  0.0694  0.1282
  186SLPC   H4R21403   5.482   0.776   6.846 -0.1149 -0.1245  1.9533
  186SLPC   H4S21404   5.538   0.954   6.861 -1.7019 -0.2392  1.1672
  186SLPC   C2521405   5.573   0.832   7.026  0.3175 -0.1375  0.6269
  186SLPC   H5R21406   5.607   0.727   7.042  2.3323  0.0702 -1.6696
  186SLPC   H5S21407   5.475   0.854   7.073  0.4449 -0.8695  1.2721
  186SLPC   C2621408   5.681   0.912   7.101 -0.2925 -0.3414  0.0486
  186SLPC   H6R21409   5.651   1.017   7.082 -0.0189 -0.5874 -2.0709
  186SLPC   H6S21410   5.785   0.898   7.065  0.3663  0.0232  1.7555
  186SLPC   C2721411   5.658   0.883   7.242 -0.3165 -0.3501 -0.0843
  186SLPC   H7R21412   5.678   0.776   7.266 -0.0748 -0.0007  1.3856
  186SLPC   H7S21413   5.555   0.906   7.278  0.8412  0.6500  2.8770
  186SLPC   C2821414   5.742   0.973   7.329  0.0651  0.3682 -0.3572
  186SLPC   H8R21415   5.706   0.967   7.434 -1.6785 -1.1411 -0.9999
  186SLPC   H8S21416   5.720   1.071   7.281 -1.5642 -1.0559 -2.7280
  186SLPC   C2921417   5.890   0.959   7.308  0.4250  1.1507  1.0130
  186SLPC   H9R21418   5.931   0.971   7.207 -0.1868 -1.0478  0.4416
  186SLPC  C21021419   5.977   0.958   7.409 -0.6043 -0.0246 -0.3293
  186SLPC  H10R21420   6.083   0.935   7.387 -1.0485 -1.4467 -1.1025
  186SLPC  C21121421   5.950   0.960   7.561  0.5761 -0.1034  0.1939
  186SLPC  H11R21422   6.011   0.902   7.633  0.5547  1.4312  1.5224
  186SLPC  H11S21423   5.862   0.893   7.564  0.6386 -0.1639  0.8349
  186SLPC  C21221424   5.901   1.093   7.616 -0.1495 -0.8354 -0.6415
  186SLPC  H12R21425   5.824   1.142   7.554 -0.8838 -0.5275  0.4819
  186SLPC  C21321426   5.924   1.151   7.736 -0.7842  0.5131  0.6701
  186SLPC  H13R21427   5.851   1.230   7.759 -1.0802  0.1186  1.0918
  186SLPC  C21421428   6.016   1.105   7.838  0.3561 -0.0756 -0.4140
  186SLPC  H14R21429   6.121   1.082   7.810 -0.0729 -1.4911 -0.9546
  186SLPC  H14S21430   5.974   1.010   7.878  2.0317  0.4203  2.8476
  186SLPC  C21521431   6.014   1.208   7.950 -0.6253  0.2030 -0.0759
  186SLPC  H15R21432   5.914   1.220   7.995 -0.8007 -0.3372 -0.3212
  186SLPC  H15S21433   6.038   1.308   7.909  1.1099 -1.0087 -2.2390
  186SLPC  C21621434   6.109   1.174   8.059  0.0223 -0.1868 -0.3476
  186SLPC  H16R21435   6.209   1.170   8.009 -0.3266  1.9686 -1.3225
  186SLPC  H16S21436   6.093   1.068   8.088  2.2974 -0.2103  1.1020
  186SLPC  C21721437   6.125   1.267   8.181  0.2767 -0.0917  0.1294
  186SLPC  H17R21438   6.112   1.374   8.154 -2.5977 -0.5296 -0.5627
  186SLPC  H17S21439   6.232   1.258   8.211  1.6230  1.3954 -3.6680
  186SLPC  C21821440   6.019   1.232   8.294 -0.2244 -0.3234 -0.1093
  186SLPC  H18R21441   6.046   1.140   8.350  2.3365 -0.6752 -1.7353
  186SLPC  H18S21442   5.914   1.229   8.257  0.1089 -1.6254 -1.0156
  186SLPC  H18T21443   6.033   1.323   8.356  3.2793 -0.1451 -0.9499
  186SLPC   C3321444   6.223   1.074   6.851  0.1409  0.3219  0.1755
  186SLPC   H3X21445   6.289   1.006   6.795 -0.2803 -0.1793  0.2755
  186SLPC   H3Y21446   6.116   1.044   6.854  0.1836  0.2028  0.6145
  186SLPC   C3421447   6.268   1.082   6.998  0.3300  0.2072  0.3450
  186SLPC   H4X21448   6.210   0.999   7.045 -1.7524 -1.1923 -4.1514
  186SLPC   H4Y21449   6.250   1.179   7.050 -0.8278 -0.2167  0.7759
  186SLPC   C3521450   6.416   1.049   7.015 -0.0842 -0.1957  0.0258
  186SLPC   H5X21451   6.471   1.144   7.003 -1.3022  0.3953 -1.1611
  186SLPC   H5Y21452   6.455   0.977   6.940 -1.0092  0.8550 -1.5100
  186SLPC   C3621453   6.460   0.982   7.151  0.1757  0.0745 -0.2682
  186SLPC   H6X21454   6.567   0.954   7.156 -0.2958 -1.6676  1.2074
  186SLPC   H6Y21455   6.412   0.884   7.168 -0.2281  0.4291  0.7014
  186SLPC   C3721456   6.400   1.056   7.274 -0.2586 -0.1846  0.4021
  186SLPC   H7X21457   6.290   1.068   7.265 -0.1291  3.8327  1.8325
  186SLPC   H7Y21458   6.430   1.163   7.276 -0.0858 -0.1370 -1.8711
  186SLPC   C3821459   6.452   0.991   7.409  0.5845  0.0544  0.0530
  186SLPC   H8X21460   6.561   1.004   7.422  0.9176 -0.3221 -2.0425
  186SLPC   H8Y21461   6.437   0.881   7.404 -2.2001  0.3744 -0.8094
  186SLPC   C3921462   6.372   1.036   7.532  0.7411  0.4773  0.0972
  186SLPC   H9X21463   6.396   0.963   7.612  3.9941 -0.4805 -1.5715
  186SLPC   H9Y21464   6.264   1.053   7.514  1.1336  0.7968 -2.1980
  186SLPC  C31021465   6.429   1.169   7.578  0.4090  0.4705 -0.0154
  186SLPC  H10X21466   6.444   1.243   7.496 -1.4612  0.6180 -0.2589
  186SLPC  H10Y21467   6.529   1.153   7.625 -0.1889 -2.0488  0.5283
  186SLPC  C31121468   6.346   1.241   7.678 -0.1527  0.1218 -0.3563
  186SLPC  H11X21469   6.348   1.185   7.774 -1.3729  0.5932 -0.0370
  186SLPC  H11Y21470   6.237   1.233   7.658 -0.8095  1.7318  2.1268
  186SLPC  C31221471   6.393   1.382   7.712  0.3657 -0.2753  0.1157
  186SLPC  H12X21472   6.414   1.436   7.618  2.5672  0.7929  1.1389
  186SLPC  H12Y21473   6.486   1.369   7.771  1.8134  2.3859 -1.4119
  186SLPC  C31321474   6.305   1.456   7.809  0.2787  0.6735 -0.0424
  186SLPC  H13X21475   6.279   1.385   7.890 -2.6857 -0.4617 -1.8233
  186SLPC  H13Y21476   6.213   1.476   7.749  2.6194  0.5303 -4.0325
  186SLPC  C31421477   6.380   1.574   7.857  0.4514 -0.2648  0.8394
  186SLPC  H14X21478   6.396   1.641   7.770 -0.7779  1.8607  2.1716
  186SLPC  H14Y21479   6.477   1.547   7.903  0.9727 -0.8565 -0.5499
  186SLPC  C31521480   6.313   1.657   7.971  0.3806  0.4614 -0.3459
  186SLPC  H15X21481   6.389   1.724   8.018  0.0264 -0.3220  1.4301
  186SLPC  H15Y21482   6.277   1.586   8.049 -1.8688 -0.2041 -1.8817
  186SLPC  C31621483   6.197   1.737   7.912 -0.0983 -0.0996  0.2240
  186SLPC  H16X21484   6.112   1.669   7.891  0.2605  0.2505 -2.6890
  186SLPC  H16Y21485   6.226   1.778   7.813 -1.5012  0.1824 -0.0920
  186SLPC  C31721486   6.151   1.856   7.992 -0.8371 -0.1157 -0.0004
  186SLPC  H17X21487   6.153   1.825   8.098 -1.0533 -3.7690 -0.9454
  186SLPC  H17Y21488   6.045   1.882   7.969 -1.2410 -1.8255 -0.1809
  186SLPC  C31821489   6.248   1.972   7.980 -0.0957  1.6759  0.4554
  186SLPC  H18X21490   6.354   1.958   8.011 -0.4720  3.1905  2.6340
  186SLPC  H18Y21491   6.220   2.058   8.044 -1.6299  2.6518 -1.4121
  186SLPC  H18Z21492   6.253   2.016   7.878  0.1426  1.4664  0.3741
  187SLPC     N21493   6.679   6.288   5.611  0.0303 -0.5284 -0.2192
  187SLPC   C1321494   6.546   6.229   5.652 -0.7792  0.1775 -0.2827
  187SLPC  H13A21495   6.553   6.161   5.735  1.5726  1.5696  0.7711
  187SLPC  H13B21496   6.473   6.306   5.671 -1.3295 -0.2706 -0.5571
  187SLPC  H13C21497   6.513   6.169   5.569  1.5949  0.3841 -1.4799
  187SLPC   C1421498   6.666   6.377   5.497  0.1426 -0.4963  0.4123
  187SLPC  H14A21499   6.760   6.410   5.456  0.1236  3.1847  2.8721
  187SLPC  H14B21500   6.615   6.326   5.416  2.3640  0.7027 -1.9094
  187SLPC  H14C21501   6.608   6.465   5.523 -0.9055 -0.5369 -1.5797
  187SLPC   C1521502   6.779   6.194   5.572 -0.0686  0.4769  0.3719
  187SLPC  H15A21503   6.752   6.136   5.486  0.2265  0.3877  0.3385
  187SLPC  H15B21504   6.878   6.238   5.568  1.1503 -2.1334 -0.4678
  187SLPC  H15C21505   6.790   6.116   5.646  2.0389 -1.2024 -1.5888
  187SLPC   C1221506   6.737   6.368   5.725 -0.0654 -0.3396  0.7398
  187SLPC  H12A21507   6.664   6.443   5.753  0.2117 -0.2045  1.1237
  187SLPC  H12B21508   6.828   6.415   5.694  1.0028 -2.8163 -0.0621
  187SLPC   C1121509   6.787   6.267   5.838  0.4218 -0.1580 -0.5187
  187SLPC  H11A21510   6.709   6.189   5.851 -0.6323  1.0998  1.1342
  187SLPC  H11B21511   6.778   6.320   5.935 -2.2443  0.6791 -1.1575
  187SLPC     P21512   7.043   6.302   5.849  0.0434  0.4212  0.5339
  187SLPC   O1321513   7.165   6.222   5.859 -0.1058  0.3839 -0.4151
  187SLPC   O1421514   7.058   6.409   5.746  0.0800 -0.2425  0.0561
  187SLPC   O1221515   6.915   6.213   5.819  0.3676 -0.2848  0.3427
  187SLPC   O1121516   7.003   6.364   5.985 -0.3875  0.0313 -0.1368
  187SLPC    C121517   6.990   6.271   6.089 -0.2408 -0.3004 -0.5317
  187SLPC    HA21518   6.901   6.307   6.146 -1.1849 -1.8563 -0.9738
  187SLPC    HB21519   6.974   6.163   6.068  0.8001 -0.5069 -0.3489
  187SLPC    C221520   7.116   6.276   6.192 -0.1670  0.1162  0.1830
  187SLPC    HS21521   7.195   6.202   6.167  1.3174  1.5707  0.3934
  187SLPC   O2121522   7.058   6.248   6.321 -0.1766 -0.1428  0.7238
  187SLPC   C2121523   7.115   6.168   6.412  0.1642  0.2939 -0.2622
  187SLPC   O2221524   7.226   6.118   6.392 -0.1207  0.2893  0.0423
  187SLPC   C2221525   7.038   6.170   6.541  0.8784 -0.9122  0.0229
  187SLPC   H2R21526   6.950   6.237   6.542  1.6868  0.1638  0.6820
  187SLPC   H2S21527   6.999   6.070   6.569  0.9586 -0.8613  0.3206
  187SLPC    C321528   7.202   6.408   6.185 -0.4001 -0.1221 -0.2088
  187SLPC    HX21529   7.132   6.492   6.202  0.5561  0.5705  0.4456
  187SLPC    HY21530   7.248   6.411   6.084  1.2431 -0.1381  0.5010
  187SLPC   O3121531   7.310   6.400   6.276  0.4735  0.4218  0.1259
  187SLPC   C3121532   7.313   6.492   6.376  0.2017  0.1334  0.0357
  187SLPC   O3221533   7.212   6.550   6.413  0.1543 -0.2231 -0.2252
  187SLPC   C3221534   7.447   6.493   6.439 -0.1667  0.6266 -0.2979
  187SLPC   H2X21535   7.515   6.538   6.364  1.0774 -0.0274  0.4030
  187SLPC   H2Y21536   7.484   6.390   6.463 -0.1130  0.7805  0.3148
  187SLPC   C2321537   7.120   6.226   6.660  0.1537 -0.1418  0.0212
  187SLPC   H3R21538   7.036   6.252   6.729 -2.2980 -4.9796 -0.6941
  187SLPC   H3S21539   7.187   6.310   6.633  0.0471 -0.5369 -1.5874
  187SLPC   C2421540   7.201   6.122   6.732  0.4103  0.3596 -0.4330
  187SLPC   H4R21541   7.277   6.079   6.663  1.0098  3.9134 -2.2446
  187SLPC   H4S21542   7.134   6.035   6.749  1.3369 -0.1088  1.1207
  187SLPC   C2521543   7.262   6.161   6.870 -0.3363  0.3433  0.1865
  187SLPC   H5R21544   7.335   6.245   6.868 -0.2600  0.2679 -0.4851
  187SLPC   H5S21545   7.321   6.074   6.906 -0.1473  1.0001  1.5545
  187SLPC   C2621546   7.157   6.188   6.977 -0.1908 -0.5316 -0.1441
  187SLPC   H6R21547   7.094   6.097   6.983  0.2598 -0.8016  0.5896
  187SLPC   H6S21548   7.088   6.272   6.955 -0.6698 -0.6192  0.9394
  187SLPC   C2721549   7.216   6.211   7.120  0.4820  0.8095  0.3111
  187SLPC   H7R21550   7.287   6.296   7.115  2.4609 -0.5267  3.2087
  187SLPC   H7S21551   7.268   6.120   7.157 -0.7385 -0.6806 -1.4322
  187SLPC   C2821552   7.105   6.243   7.228 -0.3798 -0.3152 -0.1070
  187SLPC   H8R21553   7.040   6.313   7.172 -2.3613 -2.2945 -0.4476
  187SLPC   H8S21554   7.164   6.296   7.305  1.0861 -0.8417 -0.8295
  187SLPC   C2921555   7.006   6.139   7.271 -0.7673 -0.0976 -0.1773
  187SLPC   H9R21556   6.974   6.071   7.191 -0.1243 -0.4823 -0.1183
  187SLPC  C21021557   6.953   6.132   7.395 -0.0035 -0.7096  0.8315
  187SLPC  H10R21558   6.876   6.057   7.416 -3.6393  2.6632  0.5643
  187SLPC  C21121559   6.996   6.212   7.513  0.5555  0.4060 -0.4789
  187SLPC  H11R21560   6.906   6.254   7.564  0.5762  0.8963 -0.8362
  187SLPC  H11S21561   7.043   6.308   7.484 -0.6274  1.2552  0.3332
  187SLPC  C21221562   7.094   6.138   7.607  0.0387 -0.4114 -0.1697
  187SLPC  H12R21563   7.160   6.067   7.555  0.0255 -1.0528  0.6534
  187SLPC  C21321564   7.095   6.122   7.742 -0.3976 -1.3131 -0.4451
  187SLPC  H13R21565   7.165   6.047   7.782  0.3702 -1.5559 -2.1743
  187SLPC  C21421566   7.008   6.195   7.836  0.1603  1.2686 -0.5012
  187SLPC  H14R21567   6.978   6.280   7.770  0.0710 -0.4730 -2.8367
  187SLPC  H14S21568   7.063   6.225   7.928  0.9963 -1.8605  0.1308
  187SLPC  C21521569   6.884   6.103   7.876 -0.4491 -0.0664 -0.7011
  187SLPC  H15R21570   6.916   6.015   7.936 -2.2959 -1.7095 -2.0158
  187SLPC  H15S21571   6.839   6.066   7.782  1.8576 -0.6049 -1.6669
  187SLPC  C21621572   6.785   6.183   7.963  0.2852 -0.0769  0.3304
  187SLPC  H16R21573   6.755   6.270   7.900  2.6672  1.3467  1.0157
  187SLPC  H16S21574   6.847   6.218   8.048  0.1246  1.1268 -0.0296
  187SLPC  C21721575   6.667   6.109   8.016  0.2771 -0.0608 -0.0610
  187SLPC  H17R21576   6.590   6.177   8.060 -2.2921 -2.9897  0.3497
  187SLPC  H17S21577   6.696   6.038   8.096  3.2019  0.9372 -0.1069
  187SLPC  C21821578   6.593   6.028   7.912 -0.2355 -0.1880 -0.4081
  187SLPC  H18R21579   6.547   6.090   7.832 -1.7251  1.5640  1.6576
  187SLPC  H18S21580   6.509   5.973   7.962 -1.5747  0.0879 -2.2561
  187SLPC  H18T21581   6.665   5.963   7.859 -0.9300  1.3085 -3.4257
  187SLPC   C3321582   7.453   6.569   6.580  0.2474  1.0302 -0.5877
  187SLPC   H3X21583   7.451   6.678   6.561  0.3649  0.8768 -1.5432
  187SLPC   H3Y21584   7.559   6.560   6.612 -0.2603  2.2077  1.6075
  187SLPC   C3421585   7.356   6.520   6.688 -0.3325  0.2803  0.0424
  187SLPC   H4X21586   7.385   6.414   6.707  2.4783  0.8221 -0.7573
  187SLPC   H4Y21587   7.251   6.528   6.654 -0.2064  0.5893 -0.2714
  187SLPC   C3521588   7.382   6.594   6.823  0.3381  0.4817 -0.1299
  187SLPC   H5X21589   7.353   6.702   6.819  1.0106  0.6954  0.5470
  187SLPC   H5Y21590   7.493   6.594   6.829  0.2685 -0.4736  1.8357
  187SLPC   C3621591   7.347   6.523   6.948  0.1261 -1.1251  0.5472
  187SLPC   H6X21592   7.409   6.434   6.973  0.1458 -1.0685  0.7048
  187SLPC   H6Y21593   7.240   6.495   6.943 -0.4927  1.1484  0.1855
  187SLPC   C3721594   7.365   6.618   7.069  0.0363  0.4341 -0.2826
  187SLPC   H7X21595   7.472   6.629   7.097 -0.6468  3.6396  1.4967
  187SLPC   H7Y21596   7.322   6.716   7.040 -0.8975 -0.1325 -0.8655
  187SLPC   C3821597   7.287   6.572   7.192  0.4579  0.7487  0.1070
  187SLPC   H8X21598   7.331   6.476   7.227 -1.2329  0.0358  0.3791
  187SLPC   H8Y21599   7.182   6.543   7.167  0.8899 -0.3854 -0.4822
  187SLPC   C3921600   7.273   6.676   7.307  0.6338  0.3636  0.1949
  187SLPC   H9X21601   7.189   6.747   7.290 -0.1300 -0.6817 -0.5024
  187SLPC   H9Y21602   7.372   6.726   7.311  1.4345 -1.2149  0.8885
  187SLPC  C31021603   7.251   6.620   7.453 -0.3062 -0.1659  0.0047
  187SLPC  H10X21604   7.283   6.707   7.515 -0.5182  0.5720 -0.9086
  187SLPC  H10Y21605   7.308   6.529   7.480 -1.7023 -0.4255  2.3349
  187SLPC  C31121606   7.106   6.612   7.494  0.1933 -0.0835  0.9287
  187SLPC  H11X21607   7.058   6.527   7.442 -0.7171  0.6828  0.4927
  187SLPC  H11Y21608   7.052   6.701   7.457 -1.7170 -1.1939  0.9228
  187SLPC  C31221609   7.098   6.595   7.642 -0.3736  0.3946  0.5447
  187SLPC  H12X21610   7.140   6.687   7.688  0.5051 -0.3339  1.2224
  187SLPC  H12Y21611   7.163   6.516   7.683  2.6839  1.9917 -0.8753
  187SLPC  C31321612   6.953   6.575   7.692 -0.8066 -0.3382 -1.1267
  187SLPC  H13X21613   6.901   6.492   7.639 -0.7895 -0.9593 -0.1806
  187SLPC  H13Y21614   6.898   6.665   7.656 -1.6439 -0.6553 -0.6782
  187SLPC  C31421615   6.940   6.553   7.840  0.2516  0.1778 -0.0810
  187SLPC  H14X21616   7.017   6.481   7.876  0.5461 -0.0099 -1.0674
  187SLPC  H14Y21617   6.842   6.505   7.860  0.6403 -1.2135 -1.3252
  187SLPC  C31521618   6.952   6.684   7.925  0.9411  0.1822 -0.2040
  187SLPC  H15X21619   6.881   6.753   7.874  1.2737 -0.5250 -1.6691
  187SLPC  H15Y21620   7.050   6.733   7.911  1.0177 -0.3545 -1.6388
  187SLPC  C31621621   6.933   6.659   8.079 -0.1064 -0.4929  0.0582
  187SLPC  H16X21622   7.029   6.625   8.123 -0.4149  0.3530  1.4895
  187SLPC  H16Y21623   6.851   6.584   8.087 -0.1667 -0.6243 -1.5167
  187SLPC  C31721624   6.898   6.796   8.152  0.0926  0.5798  0.3388
  187SLPC  H17X21625   6.816   6.852   8.102 -0.3977  0.6776  1.2341
  187SLPC  H17Y21626   6.991   6.855   8.162  1.4409 -0.9729 -2.0324
  187SLPC  C31821627   6.853   6.777   8.297  0.0069  0.6939  0.6349
  187SLPC  H18X21628   6.749   6.738   8.303  0.8233 -2.2488 -1.6919
  187SLPC  H18Y21629   6.861   6.872   8.354  2.0367  0.8105  0.2329
  187SLPC  H18Z21630   6.924   6.704   8.343  0.2776 -0.4224 -1.4039
  188SLPC     N21631   1.793   0.310   5.920  0.4616 -0.0082 -0.6611
  188SLPC   C1321632   1.724   0.439   5.932  0.0253 -0.3903  0.0425
  188SLPC  H13A21633   1.776   0.511   5.870  1.3228 -2.1884 -1.0622
  188SLPC  H13B21634   1.625   0.427   5.891  0.5273 -0.5504 -1.1672
  188SLPC  H13C21635   1.709   0.469   6.035  0.3275 -2.1782  0.6457
  188SLPC   C1421636   1.936   0.324   5.966 -1.3839  1.2345 -0.1224
  188SLPC  H14A21637   1.944   0.356   6.070  0.9578  1.5607 -0.3354
  188SLPC  H14B21638   1.975   0.224   5.974 -1.7369  0.9921 -1.3444
  188SLPC  H14C21639   1.995   0.385   5.899 -1.1822  0.9229 -0.2264
  188SLPC   C1521640   1.788   0.290   5.769 -0.0362 -0.1250  0.1133
  188SLPC  H15A21641   1.686   0.282   5.736 -0.0038 -0.4928  0.1022
  188SLPC  H15B21642   1.839   0.373   5.722  0.0651  0.0369  0.5007
  188SLPC  H15C21643   1.838   0.198   5.743 -2.0315 -2.0322  2.5523
  188SLPC   C1221644   1.713   0.198   5.989  0.9805 -0.2844 -0.4007
  188SLPC  H12A21645   1.611   0.208   5.957  0.9449  0.8969  0.0040
  188SLPC  H12B21646   1.715   0.224   6.094  0.6604 -0.0249 -0.4588
  188SLPC   C1121647   1.769   0.059   5.995  1.4675 -0.4574  0.0567
  188SLPC  H11A21648   1.780   0.015   5.893  1.4849  2.7279 -1.4220
  188SLPC  H11B21649   1.697  -0.016   6.036  1.0505 -0.6973 -1.0814
  188SLPC     P21650   1.957  -0.079   6.085  0.6259  0.2281  0.4341
  188SLPC   O1321651   1.962  -0.144   5.952 -0.5713  0.0749 -0.0814
  188SLPC   O1421652   2.085  -0.056   6.153 -0.1702  0.3245 -0.2889
  188SLPC   O1221653   1.886   0.055   6.070  0.2578 -0.1530 -0.5888
  188SLPC   O1121654   1.866  -0.157   6.176 -0.2580  0.0455 -0.1065
  188SLPC    C121655   1.793  -0.107   6.284  0.3225 -0.1535  0.0719
  188SLPC    HA21656   1.739  -0.010   6.279  0.0632 -0.3562 -2.1641
  188SLPC    HB21657   1.702  -0.169   6.290 -0.9862  1.8091  2.2739
  188SLPC    C221658   1.872  -0.122   6.419  0.1737 -0.3307 -0.0248
  188SLPC    HS21659   1.970  -0.072   6.401 -1.4263  3.9322  1.8288
  188SLPC   O2121660   1.882  -0.267   6.455 -0.4981  0.4988 -0.3359
  188SLPC   C2121661   1.988  -0.307   6.518  0.0306 -0.3797 -0.5118
  188SLPC   O2221662   2.086  -0.245   6.545 -0.4665 -0.5076 -0.5711
  188SLPC   C2221663   1.964  -0.456   6.541 -0.6965 -0.4975 -0.5282
  188SLPC   H2R21664   1.877  -0.486   6.478  0.3059 -2.9151 -0.8734
  188SLPC   H2S21665   2.055  -0.515   6.517  0.0046  0.8049 -1.1546
  188SLPC    C321666   1.797  -0.041   6.535 -0.1992 -0.2162  0.0165
  188SLPC    HX21667   1.692  -0.079   6.534 -0.4689  0.5120 -0.4656
  188SLPC    HY21668   1.779   0.067   6.514 -3.1483 -1.1669 -3.2892
  188SLPC   O3121669   1.854  -0.071   6.664 -0.1346 -0.6704 -0.3764
  188SLPC   C3121670   1.953   0.005   6.710 -0.8435  0.1489 -0.3879
  188SLPC   O3221671   2.003   0.101   6.657 -0.0221 -0.0533 -0.2736
  188SLPC   C3221672   1.987  -0.035   6.856  0.4214  0.4208 -0.2063
  188SLPC   H2X21673   2.079   0.021   6.882  0.9524 -0.4294 -0.2193
  188SLPC   H2Y21674   2.001  -0.145   6.857 -0.8541  0.1380 -3.2447
  188SLPC   C2321675   1.939  -0.493   6.694  0.6150  0.1894 -0.3568
  188SLPC   H3R21676   1.865  -0.421   6.735 -0.1885 -1.2639  0.8363
  188SLPC   H3S21677   2.038  -0.493   6.745  0.5924 -1.4935 -0.2745
  188SLPC   C2421678   1.871  -0.628   6.723  0.4875  0.3997 -0.2924
  188SLPC   H4R21679   1.943  -0.711   6.705  0.6462  0.1529  1.3308
  188SLPC   H4S21680   1.791  -0.635   6.646 -0.1954  2.7889  0.1451
  188SLPC   C2521681   1.816  -0.654   6.862 -0.4903 -0.9379 -0.0764
  188SLPC   H5R21682   1.776  -0.758   6.862 -1.1969 -0.6811 -0.8266
  188SLPC   H5S21683   1.744  -0.576   6.896  0.3279 -0.1065 -0.2064
  188SLPC   C2621684   1.932  -0.676   6.962 -1.0394 -0.3518 -0.1652
  188SLPC   H6R21685   2.009  -0.596   6.961 -0.4271 -0.9357 -0.2455
  188SLPC   H6S21686   1.991  -0.770   6.954  3.2618  2.0429  0.3576
  188SLPC   C2721687   1.894  -0.666   7.107  0.8488 -0.3815  0.0912
  188SLPC   H7R21688   1.852  -0.563   7.115  1.4944 -0.2377  2.1677
  188SLPC   H7S21689   1.982  -0.667   7.176  3.2919 -1.0291 -2.7952
  188SLPC   C2821690   1.786  -0.764   7.161  0.5157 -0.3683  0.6078
  188SLPC   H8R21691   1.709  -0.786   7.084 -2.2150  2.7476  2.2401
  188SLPC   H8S21692   1.732  -0.723   7.248 -1.8608 -0.3015 -0.8075
  188SLPC   C2921693   1.849  -0.896   7.197  0.5479  1.1417 -0.1709
  188SLPC   H9R21694   1.890  -0.949   7.110 -1.3756  1.0107 -1.0393
  188SLPC  C21021695   1.851  -0.958   7.317  0.1867 -0.5874  0.0274
  188SLPC  H10R21696   1.895  -1.059   7.325 -2.5704 -1.8241  0.7502
  188SLPC  C21121697   1.814  -0.900   7.452  0.7618  0.7017 -1.2233
  188SLPC  H11R21698   1.731  -0.827   7.442 -0.9783 -1.0360 -0.2239
  188SLPC  H11S21699   1.908  -0.854   7.489  1.6393 -2.2474  0.5635
  188SLPC  C21221700   1.754  -1.005   7.542 -1.0195  0.3352  0.2995
  188SLPC  H12R21701   1.714  -1.088   7.481  1.0293  0.2791 -1.0761
  188SLPC  C21321702   1.744  -0.993   7.675  0.0405 -0.0866 -0.0697
  188SLPC  H13R21703   1.710  -1.075   7.740  0.3856 -0.5332 -0.4454
  188SLPC  C21421704   1.799  -0.872   7.745  0.9894  0.0799  0.2099
  188SLPC  H14R21705   1.869  -0.804   7.693 -0.8967  2.1930  0.3037
  188SLPC  H14S21706   1.847  -0.910   7.838  1.1151 -0.7456 -0.1803
  188SLPC  C21521707   1.683  -0.777   7.794 -0.2760  0.5234 -0.3661
  188SLPC  H15R21708   1.614  -0.824   7.867 -0.6350 -0.0098 -1.0482
  188SLPC  H15S21709   1.615  -0.748   7.711 -1.7497  0.2483  0.7082
  188SLPC  C21621710   1.740  -0.648   7.861 -0.1555  0.0813 -0.5774
  188SLPC  H16R21711   1.663  -0.569   7.851 -1.9750 -1.5291 -0.0116
  188SLPC  H16S21712   1.829  -0.618   7.802  0.8981  1.5166  1.6195
  188SLPC  C21721713   1.776  -0.651   8.018  0.4889  0.5290 -0.2790
  188SLPC  H17R21714   1.872  -0.705   8.027 -0.6459 -1.4720  0.6627
  188SLPC  H17S21715   1.710  -0.718   8.077  1.2887 -0.7453 -0.7969
  188SLPC  C21821716   1.780  -0.521   8.092  0.2163  0.4112  0.4875
  188SLPC  H18R21717   1.791  -0.547   8.199  2.4643  0.0506  0.2069
  188SLPC  H18S21718   1.684  -0.465   8.078  0.5890  0.7497 -0.8339
  188SLPC  H18T21719   1.861  -0.450   8.067  0.5528 -0.4138 -0.8310
  188SLPC   C3321720   1.872   0.005   6.952 -0.4804  0.2647 -0.0137
  188SLPC   H3X21721   1.831   0.105   6.927  1.3003  1.4604  1.6004
  188SLPC   H3Y21722   1.905   0.012   7.057 -2.4298  0.3198  0.6307
  188SLPC   C3421723   1.760  -0.104   6.957 -0.1825  1.1917 -0.4834
  188SLPC   H4X21724   1.803  -0.198   6.916 -0.6323  1.1196 -0.8055
  188SLPC   H4Y21725   1.680  -0.075   6.885 -0.8158  0.8348  0.0676
  188SLPC   C3521726   1.700  -0.130   7.098 -0.6437 -0.3252  0.3690
  188SLPC   H5X21727   1.664  -0.042   7.156 -2.2715 -0.9924  0.4347
  188SLPC   H5Y21728   1.784  -0.160   7.164 -0.8457  1.0894  1.3130
  188SLPC   C3621729   1.597  -0.237   7.109 -0.6214 -0.1117  0.4372
  188SLPC   H6X21730   1.520  -0.226   7.030  0.3956 -0.7764 -0.6883
  188SLPC   H6Y21731   1.555  -0.228   7.212  0.0176  0.7320  0.6373
  188SLPC   C3721732   1.651  -0.380   7.096  0.9587  0.2864 -0.0117
  188SLPC   H7X21733   1.717  -0.405   7.182 -0.9381  1.3328  1.8356
  188SLPC   H7Y21734   1.709  -0.391   7.002 -1.8292 -1.8203 -1.6307
  188SLPC   C3821735   1.534  -0.487   7.095 -0.3330 -0.4768 -0.4077
  188SLPC   H8X21736   1.558  -0.573   7.029 -1.2369 -0.3809 -0.8841
  188SLPC   H8Y21737   1.458  -0.435   7.033 -0.3461  0.1956  0.1548
  188SLPC   C3921738   1.473  -0.509   7.226 -0.1567  0.0077 -0.8339
  188SLPC   H9X21739   1.452  -0.416   7.282 -1.4957  0.0291 -1.3312
  188SLPC   H9Y21740   1.529  -0.577   7.293 -0.3794  0.3443 -0.3004
  188SLPC  C31021741   1.333  -0.579   7.223 -0.2261  0.7229 -0.0687
  188SLPC  H10X21742   1.332  -0.644   7.133  0.7965  0.2310  0.2664
  188SLPC  H10Y21743   1.267  -0.493   7.198 -0.9955 -0.4404 -2.3995
  188SLPC  C31121744   1.286  -0.656   7.352  0.3554  0.2940  0.2672
  188SLPC  H11X21745   1.355  -0.740   7.377 -0.1198  0.1191  1.0294
  188SLPC  H11Y21746   1.185  -0.699   7.337  0.7761 -0.5442 -0.2230
  188SLPC  C31221747   1.285  -0.569   7.475  0.5348 -0.7513  0.2432
  188SLPC  H12X21748   1.205  -0.492   7.467 -0.3310 -1.5966  0.6095
  188SLPC  H12Y21749   1.377  -0.507   7.486  0.7171 -0.5000 -2.1852
  188SLPC  C31321750   1.266  -0.640   7.611 -0.2437  0.1420  0.3480
  188SLPC  H13X21751   1.365  -0.686   7.628 -0.0624  0.2514 -0.3905
  188SLPC  H13Y21752   1.191  -0.722   7.613  0.2781 -0.3415  0.2221
  188SLPC  C31421753   1.229  -0.545   7.730 -0.4938  0.2054 -0.5713
  188SLPC  H14X21754   1.138  -0.489   7.700 -0.7110  0.1975  0.0792
  188SLPC  H14Y21755   1.298  -0.459   7.746 -2.2854  1.4574  0.7834
  188SLPC  C31521756   1.208  -0.627   7.853 -0.8861 -0.0387  0.0472
  188SLPC  H15X21757   1.306  -0.677   7.872  0.1569  2.4009  1.5030
  188SLPC  H15Y21758   1.136  -0.710   7.835 -0.7017 -0.1493 -0.1870
  188SLPC  C31621759   1.175  -0.552   7.979  0.1199  0.3245 -0.3798
  188SLPC  H16X21760   1.088  -0.487   7.956  1.6045  2.5062 -0.1343
  188SLPC  H16Y21761   1.249  -0.470   7.993 -0.7906  0.7137  2.9179
  188SLPC  C31721762   1.160  -0.642   8.104  0.0411 -0.0639  0.3320
  188SLPC  H17X21763   1.086  -0.720   8.074 -0.1286  0.2482 -0.0707
  188SLPC  H17Y21764   1.115  -0.576   8.181 -0.4881 -0.3426  0.2664
  188SLPC  C31821765   1.287  -0.691   8.166 -0.5615  0.2985 -0.4471
  188SLPC  H18X21766   1.265  -0.773   8.239 -0.3349 -1.4109 -2.2042
  188SLPC  H18Y21767   1.343  -0.609   8.216  0.3303  0.3924 -1.5699
  188SLPC  H18Z21768   1.367  -0.735   8.103  0.5885  2.9660 -0.9507
  189SLPC     N21769   2.544   0.678   5.956 -0.9468  0.3738 -1.0009
  189SLPC   C1321770   2.510   0.571   5.859  0.1411  0.1772  0.3314
  189SLPC  H13A21771   2.498   0.478   5.911  1.0145 -1.1181 -1.6801
  189SLPC  H13B21772   2.413   0.586   5.812 -0.2116 -1.6169  0.4399
  189SLPC  H13C21773   2.595   0.558   5.795 -0.2875  0.4164 -0.3012
  189SLPC   C1421774   2.560   0.806   5.886 -0.4240 -1.2957  0.2760
  189SLPC  H14A21775   2.597   0.889   5.945  0.4602 -1.5640  0.1118
  189SLPC  H14B21776   2.619   0.812   5.795 -0.6768 -1.5627  0.0938
  189SLPC  H14C21777   2.463   0.835   5.847  0.9882 -0.4403 -2.9034
  189SLPC   C1521778   2.676   0.633   6.017  0.6867 -0.1516  1.0212
  189SLPC  H15A21779   2.757   0.664   5.953 -0.8868  0.2291 -0.8748
  189SLPC  H15B21780   2.696   0.689   6.107  1.1059  1.2151  0.1081
  189SLPC  H15C21781   2.676   0.529   6.047 -0.1160 -0.4201  0.1476
  189SLPC   C1221782   2.436   0.692   6.059 -0.9315  0.5331  0.2731
  189SLPC  H12A21783   2.413   0.592   6.094  0.4393 -0.6778 -2.0472
  189SLPC  H12B21784   2.344   0.725   6.014  0.4835  1.0578 -2.3972
  189SLPC   C1121785   2.466   0.794   6.175  0.3824  0.6166 -0.7585
  189SLPC  H11A21786   2.573   0.790   6.203 -0.0897 -1.4523  1.0879
  189SLPC  H11B21787   2.409   0.752   6.260 -1.6020 -0.1077 -2.3495
  189SLPC     P21788   2.446   1.053   6.248  0.0464  0.4118 -0.0491
  189SLPC   O1321789   2.444   1.187   6.181  0.3725 -0.3124  0.4145
  189SLPC   O1421790   2.347   1.032   6.353  0.4020  0.0177  0.3877
  189SLPC   O1221791   2.433   0.933   6.140 -0.0840  0.1971  0.0498
  189SLPC   O1121792   2.596   1.028   6.304  0.3465  0.4210 -0.5141
  189SLPC    C121793   2.639   0.943   6.415 -0.0328  0.1949  0.6791
  189SLPC    HA21794   2.553   0.891   6.463  0.3773 -0.3717  0.8070
  189SLPC    HB21795   2.699   0.862   6.369  1.9025  2.0228 -0.2501
  189SLPC    C221796   2.709   1.030   6.525  0.1525 -0.3983 -0.0693
  189SLPC    HS21797   2.747   0.960   6.602 -0.5603 -0.2401  0.4419
  189SLPC   O2121798   2.621   1.125   6.584 -0.0120 -0.2873  0.4288
  189SLPC   C2121799   2.539   1.073   6.675  0.6765 -0.3182  0.0054
  189SLPC   O2221800   2.543   0.962   6.721  0.1903  1.0342  0.3914
  189SLPC   C2221801   2.435   1.182   6.716  0.3204  0.7105  0.3978
  189SLPC   H2R21802   2.492   1.237   6.794  0.1936 -0.3146  1.2415
  189SLPC   H2S21803   2.405   1.248   6.633 -1.0741  3.6420  3.0460
  189SLPC    C321804   2.831   1.109   6.473  0.5858  0.5443  0.4420
  189SLPC    HX21805   2.792   1.189   6.407  0.9442 -0.8292 -1.5489
  189SLPC    HY21806   2.887   1.040   6.406  0.9059  2.9848 -1.9764
  189SLPC   O3121807   2.921   1.149   6.580 -0.3641 -0.1449 -0.3576
  189SLPC   C3121808   2.888   1.255   6.651  0.0446 -0.0592 -0.2864
  189SLPC   O3221809   2.796   1.333   6.625 -0.1158 -0.3194 -0.0047
  189SLPC   C3221810   2.980   1.256   6.777 -0.2978  0.7630 -0.0414
  189SLPC   H2X21811   3.078   1.306   6.759  0.2680 -0.1606  0.3626
  189SLPC   H2Y21812   2.994   1.151   6.810 -0.1083  1.2414  1.5054
  189SLPC   C2321813   2.305   1.121   6.786 -0.3793 -0.0019  0.3778
  189SLPC   H3R21814   2.339   1.070   6.878 -2.1028 -0.4291  0.8137
  189SLPC   H3S21815   2.265   1.053   6.708  0.9773 -1.0353  0.5566
  189SLPC   C2421816   2.199   1.224   6.828 -0.1608  0.2272 -0.4257
  189SLPC   H4R21817   2.177   1.277   6.733 -0.1215  1.7139  0.3663
  189SLPC   H4S21818   2.239   1.297   6.902  3.2864 -0.5058 -1.3993
  189SLPC   C2521819   2.077   1.157   6.879 -0.3132  0.2264 -0.3683
  189SLPC   H5R21820   2.065   1.065   6.818 -2.0502 -0.0279  0.2923
  189SLPC   H5S21821   1.983   1.208   6.849 -0.6555 -0.8987 -1.2534
  189SLPC   C2621822   2.088   1.115   7.023  0.1507 -0.2230 -0.7774
  189SLPC   H6R21823   2.103   1.191   7.103  3.3192 -2.5544  1.0928
  189SLPC   H6S21824   2.183   1.057   7.027  1.6283  2.0647 -0.3089
  189SLPC   C2721825   1.979   1.006   7.066  0.0559  0.2369  0.1603
  189SLPC   H7R21826   1.960   0.932   6.985 -1.5651 -0.8759  1.4840
  189SLPC   H7S21827   1.887   1.065   7.080 -0.1394 -0.3641  1.5479
  189SLPC   C2821828   2.012   0.928   7.196 -0.4854  0.3795  0.3248
  189SLPC   H8R21829   2.011   1.001   7.279 -1.4204  1.3820 -0.5449
  189SLPC   H8S21830   2.119   0.902   7.180  0.0237  2.4450  0.1827
  189SLPC   C2921831   1.924   0.808   7.215  0.7055 -0.5707  0.6883
  189SLPC   H9R21832   1.880   0.757   7.128 -0.7929 -0.7886  1.5476
  189SLPC  C21021833   1.892   0.759   7.326 -0.1284  0.8211  0.1881
  189SLPC  H10R21834   1.832   0.667   7.319 -2.3660  2.2904 -1.2546
  189SLPC  C21121835   1.934   0.802   7.471  0.0775  0.6655  0.2106
  189SLPC  H11R21836   1.848   0.796   7.541 -2.6796  1.9825 -2.8005
  189SLPC  H11S21837   1.971   0.907   7.471  1.0299  0.3774 -2.0833
  189SLPC  C21221838   2.048   0.709   7.515  0.5786 -0.2246  0.6643
  189SLPC  H12R21839   2.143   0.727   7.462  1.2592  0.7027  2.1172
  189SLPC  C21321840   2.043   0.594   7.577 -0.0882 -0.4213 -0.5069
  189SLPC  H13R21841   2.142   0.554   7.602 -1.1371 -2.9472 -0.1032
  189SLPC  C21421842   1.923   0.517   7.625  0.1959  0.2655 -0.4548
  189SLPC  H14R21843   1.931   0.421   7.570  1.2497  0.2494 -0.2783
  189SLPC  H14S21844   1.829   0.571   7.600  0.5963  0.8249 -0.7762
  189SLPC  C21521845   1.929   0.488   7.779 -0.4585 -0.8946  0.2374
  189SLPC  H15R21846   1.832   0.437   7.798 -0.8604 -1.1713 -2.1501
  189SLPC  H15S21847   1.931   0.581   7.840  0.7449 -0.0902 -0.9573
  189SLPC  C21621848   2.054   0.407   7.808  0.0017 -0.1058  0.0859
  189SLPC  H16R21849   2.145   0.425   7.747  0.0248  0.6705  0.3411
  189SLPC  H16S21850   2.036   0.302   7.779  0.7853 -0.2520  0.0978
  189SLPC  C21721851   2.093   0.410   7.955  0.2883  1.1978  0.3244
  189SLPC  H17R21852   1.999   0.397   8.012  0.3972  0.3896  0.3352
  189SLPC  H17S21853   2.136   0.510   7.977 -0.5619  1.2660  1.7643
  189SLPC  C21821854   2.194   0.297   7.986 -0.1543 -0.0029 -0.1478
  189SLPC  H18R21855   2.128   0.208   7.974  0.0495  0.0610 -2.1137
  189SLPC  H18S21856   2.229   0.307   8.091  0.4192  1.0588 -0.4339
  189SLPC  H18T21857   2.279   0.312   7.916 -0.5622  2.0274 -0.2727
  189SLPC   C3321858   2.906   1.335   6.896 -0.6127 -0.2943  0.5333
  189SLPC   H3X21859   2.858   1.429   6.861 -0.7306 -0.0855  1.2477
  189SLPC   H3Y21860   2.974   1.360   6.980  0.2391 -2.6229  0.5959
  189SLPC   C3421861   2.783   1.260   6.965 -0.0079 -0.6436  0.0159
  189SLPC   H4X21862   2.818   1.171   7.021  0.3764 -0.2270  0.4353
  189SLPC   H4Y21863   2.711   1.231   6.885  1.4026  1.5113 -2.2021
  189SLPC   C3521864   2.709   1.342   7.068 -0.8240 -0.1718  0.0661
  189SLPC   H5X21865   2.657   1.429   7.022  1.6793  0.8942 -0.9294
  189SLPC   H5Y21866   2.776   1.376   7.150  1.8194 -2.4836 -0.9555
  189SLPC   C3621867   2.605   1.251   7.135 -0.0276 -0.1934 -0.0130
  189SLPC   H6X21868   2.634   1.185   7.219 -0.2467  0.4828  0.6081
  189SLPC   H6Y21869   2.550   1.202   7.052 -1.2102 -0.0781  0.6731
  189SLPC   C3721870   2.494   1.329   7.200  0.6039 -0.1870  0.1002
  189SLPC   H7X21871   2.437   1.399   7.135 -2.3813 -0.3877  2.2678
  189SLPC   H7Y21872   2.542   1.404   7.266 -2.3294  0.8182  1.2676
  189SLPC   C3821873   2.403   1.254   7.296 -0.1883  0.5850  0.5431
  189SLPC   H8X21874   2.458   1.231   7.389 -0.9145 -0.5277  0.7203
  189SLPC   H8Y21875   2.366   1.159   7.252 -1.2729  0.3930  1.8091
  189SLPC   C3921876   2.286   1.347   7.336  0.3667 -0.1578 -0.1071
  189SLPC   H9X21877   2.256   1.406   7.248 -0.7228 -1.7456 -0.8478
  189SLPC   H9Y21878   2.334   1.436   7.383 -0.0408  0.2523 -0.4646
  189SLPC  C31021879   2.166   1.281   7.413  0.0047  0.5820  0.2386
  189SLPC  H10X21880   2.096   1.236   7.340 -1.0822  1.0456  0.9741
  189SLPC  H10Y21881   2.116   1.367   7.461  0.0893  0.7664  0.0006
  189SLPC  C31121882   2.217   1.176   7.520 -0.0786  0.5380  0.1674
  189SLPC  H11X21883   2.300   1.224   7.575  1.2622 -1.0421 -0.4034
  189SLPC  H11Y21884   2.262   1.090   7.467  0.8341  1.3603 -0.4221
  189SLPC  C31221885   2.090   1.146   7.601 -0.1774 -0.1553 -0.1281
  189SLPC  H12X21886   2.007   1.117   7.534  2.0347  0.0202 -3.1759
  189SLPC  H12Y21887   2.052   1.234   7.657  0.0459 -1.9688  3.1456
  189SLPC  C31321888   2.123   1.034   7.699 -0.1095  0.8127 -0.0284
  189SLPC  H13X21889   2.217   1.055   7.754  0.4341  1.0683 -1.0338
  189SLPC  H13Y21890   2.139   0.938   7.646  0.7543  1.1686 -0.4373
  189SLPC  C31421891   2.008   1.018   7.803 -0.2190 -0.0983 -0.2856
  189SLPC  H14X21892   1.916   1.001   7.742 -0.5207 -1.1343  0.4301
  189SLPC  H14Y21893   1.996   1.113   7.860 -0.9370 -1.0307  1.1648
  189SLPC  C31521894   2.030   0.908   7.903  0.2146  0.6554 -0.6969
  189SLPC  H15X21895   2.029   0.809   7.852  0.6230 -0.7436  1.8305
  189SLPC  H15Y21896   1.939   0.914   7.966 -0.5667  1.1138 -1.8313
  189SLPC  C31621897   2.158   0.920   7.992 -0.1893  0.2225  0.1566
  189SLPC  H16X21898   2.166   1.027   8.019  0.8859  0.3133 -0.4267
  189SLPC  H16Y21899   2.247   0.914   7.925  0.1082  1.3926  0.4176
  189SLPC  C31721900   2.162   0.832   8.118 -0.4575  0.6101 -1.2552
  189SLPC  H17X21901   2.250   0.864   8.178 -0.2254  2.1394 -2.3538
  189SLPC  H17Y21902   2.191   0.728   8.093  1.3604  0.7544  0.0541
  189SLPC  C31821903   2.044   0.843   8.213  0.0594  0.5294  0.9192
  189SLPC  H18X21904   2.025   0.948   8.247  0.9995  0.6560  1.0728
  189SLPC  H18Y21905   2.048   0.774   8.300  0.0480  0.0399  0.5288
  189SLPC  H18Z21906   1.951   0.819   8.157  1.4758 -0.2954 -1.1989
  190SLPC     N21907   5.039   2.974   6.555  0.1224 -0.2720  0.5086
  190SLPC   C1321908   5.004   2.978   6.407 -0.5764  0.2950 -0.5835
  190SLPC  H13A21909   5.092   2.940   6.356 -0.2704 -1.7157  1.2822
  190SLPC  H13B21910   4.918   2.918   6.381  0.0207 -0.2872 -1.2362
  190SLPC  H13C21911   4.982   3.076   6.368  2.6455  1.1788 -0.4800
  190SLPC   C1421912   5.158   3.061   6.581  0.4013  0.6981  0.2247
  190SLPC  H14A21913   5.234   3.049   6.505 -1.2619 -1.1337 -1.2585
  190SLPC  H14B21914   5.126   3.163   6.572 -1.9799 -0.1851 -2.8157
  190SLPC  H14C21915   5.188   3.065   6.685 -0.1765  3.0258  0.3588
  190SLPC   C1521916   5.077   2.826   6.584  0.0982 -1.1060  0.0425
  190SLPC  H15A21917   5.116   2.823   6.685 -1.6747  2.2798  0.9897
  190SLPC  H15B21918   4.986   2.769   6.572 -1.1313  0.9626 -0.9342
  190SLPC  H15C21919   5.145   2.780   6.514  0.8325 -0.5058  0.3482
  190SLPC   C1221920   4.920   3.024   6.634  0.1012 -0.5107  0.3486
  190SLPC  H12A21921   4.894   3.114   6.580  1.4480 -0.4021 -0.1665
  190SLPC  H12B21922   4.942   3.048   6.737  2.0755 -0.4226 -0.0531
  190SLPC   C1121923   4.791   2.940   6.637 -0.3372 -0.2780 -0.2578
  190SLPC  H11A21924   4.712   3.015   6.658 -0.5365  0.3036 -2.8133
  190SLPC  H11B21925   4.786   2.868   6.722 -0.2001  0.4227  0.3544
  190SLPC     P21926   4.720   2.733   6.492  0.1246  0.1013 -0.1425
  190SLPC   O1321927   4.658   2.720   6.360  0.2685 -0.4505 -0.0724
  190SLPC   O1421928   4.842   2.654   6.523  0.3827  0.0788 -0.4643
  190SLPC   O1221929   4.754   2.886   6.505 -0.3398 -0.1260 -0.6817
  190SLPC   O1121930   4.605   2.708   6.598 -0.1050 -0.7274 -0.2217
  190SLPC    C121931   4.491   2.800   6.610  0.0905 -0.1185  0.2290
  190SLPC    HA21932   4.529   2.899   6.642 -0.7562  0.8398 -1.5841
  190SLPC    HB21933   4.439   2.821   6.514 -1.6433 -1.1584  0.8673
  190SLPC    C221934   4.395   2.751   6.721 -0.6479 -1.1219 -0.2670
  190SLPC    HS21935   4.323   2.831   6.749 -0.2269 -0.4193 -1.1660
  190SLPC   O2121936   4.475   2.716   6.835 -0.1101 -0.5025  0.7594
  190SLPC   C2121937   4.520   2.808   6.910 -0.1271 -0.1249 -0.2275
  190SLPC   O2221938   4.494   2.929   6.903  0.0740 -0.4486  0.5382
  190SLPC   C2221939   4.616   2.757   7.019  0.9183  0.2782 -0.7912
  190SLPC   H2R21940   4.638   2.652   6.990 -3.2385 -0.8896 -0.4105
  190SLPC   H2S21941   4.709   2.818   7.018  0.6932  0.6350 -0.2589
  190SLPC    C321942   4.321   2.622   6.678  0.3851  0.1623  0.1361
  190SLPC    HX21943   4.391   2.546   6.637 -0.5728  0.6184 -2.5674
  190SLPC    HY21944   4.265   2.640   6.584 -2.1370 -0.3600  1.4440
  190SLPC   O3121945   4.242   2.557   6.782  0.4128 -0.0439 -0.4283
  190SLPC   C3121946   4.123   2.504   6.749 -0.5587 -0.6994 -0.9712
  190SLPC   O3221947   4.082   2.485   6.636 -0.5850  0.5403 -0.5762
  190SLPC   C3221948   4.047   2.481   6.875 -0.2062  0.1903 -0.0940
  190SLPC   H2X21949   4.061   2.563   6.949 -1.0311 -1.3083  1.8039
  190SLPC   H2Y21950   4.085   2.392   6.929 -1.2203 -1.4051 -1.8737
  190SLPC   C2321951   4.553   2.756   7.164 -0.9669  0.6309 -0.2940
  190SLPC   H3R21952   4.457   2.703   7.151  0.2379 -1.1455 -2.7795
  190SLPC   H3S21953   4.540   2.853   7.216  1.0321  1.5906 -1.4678
  190SLPC   C2421954   4.631   2.676   7.275  0.5599 -0.4059 -0.1518
  190SLPC   H4R21955   4.726   2.730   7.295  0.4429 -0.7301  1.4060
  190SLPC   H4S21956   4.650   2.584   7.216  1.2014  0.3194 -1.1256
  190SLPC   C2521957   4.553   2.643   7.407 -0.6602  0.0124  0.2334
  190SLPC   H5R21958   4.454   2.598   7.381  0.1516 -1.9504  0.3903
  190SLPC   H5S21959   4.530   2.736   7.463 -0.4764 -0.1587  0.5944
  190SLPC   C2621960   4.635   2.547   7.495 -0.4280 -0.3235  0.4555
  190SLPC   H6R21961   4.745   2.558   7.481 -0.5260 -2.4015 -2.9886
  190SLPC   H6S21962   4.628   2.450   7.442  1.0123  0.4983 -1.3436
  190SLPC   C2721963   4.596   2.556   7.642  0.6775  0.6251  0.0195
  190SLPC   H7R21964   4.631   2.657   7.672  3.0702 -0.0135 -0.3558
  190SLPC   H7S21965   4.654   2.488   7.709  0.0728 -0.7595 -0.8249
  190SLPC   C2821966   4.450   2.521   7.682 -0.5066  0.1598 -0.1941
  190SLPC   H8R21967   4.440   2.411   7.668 -1.1258  0.0537  0.9616
  190SLPC   H8S21968   4.372   2.566   7.617 -0.1971  1.0895  0.0649
  190SLPC   C2921969   4.411   2.556   7.824 -0.0783 -0.1750 -0.0586
  190SLPC   H9R21970   4.496   2.598   7.880  1.1073  1.1226 -2.6472
  190SLPC  C21021971   4.292   2.531   7.883 -0.1377 -0.9728  0.2814
  190SLPC  H10R21972   4.282   2.558   7.989  0.8289 -0.3338  0.2272
  190SLPC  C21121973   4.177   2.459   7.827  0.3879 -0.2141 -0.6297
  190SLPC  H11R21974   4.142   2.389   7.907 -1.7658 -1.6624 -2.7102
  190SLPC  H11S21975   4.199   2.397   7.737  1.6400  2.7178 -2.4811
  190SLPC  C21221976   4.052   2.533   7.785 -0.3306 -0.0797  0.1627
  190SLPC  H12R21977   4.066   2.642   7.778  1.0286 -0.2230  0.3289
  190SLPC  C21321978   3.937   2.478   7.755 -0.0004 -0.3125  0.2717
  190SLPC  H13R21979   3.850   2.539   7.728  1.2184  1.3764 -0.0477
  190SLPC  C21421980   3.917   2.331   7.756  0.7336  0.1703 -0.3057
  190SLPC  H14R21981   3.985   2.275   7.824  2.3944  2.6733  0.2465
  190SLPC  H14S21982   3.933   2.279   7.659 -0.2670 -0.1229 -0.3188
  190SLPC  C21521983   3.783   2.311   7.829 -0.1230 -0.7983 -0.7070
  190SLPC  H15R21984   3.760   2.202   7.824  0.4127 -0.8755 -2.3536
  190SLPC  H15S21985   3.701   2.362   7.773 -0.8554  2.2435  2.7230
  190SLPC  C21621986   3.801   2.368   7.972  0.5614 -0.3944 -0.0456
  190SLPC  H16R21987   3.828   2.476   7.976 -0.4526 -0.1514  2.8083
  190SLPC  H16S21988   3.885   2.314   8.020  2.1604 -0.5635 -2.8297
  190SLPC  C21721989   3.675   2.365   8.064 -0.2158 -0.5059  0.5072
  190SLPC  H17R21990   3.639   2.265   8.096 -2.0519  0.2263  0.9062
  190SLPC  H17S21991   3.592   2.403   8.001  1.6326  3.4103  0.1366
  190SLPC  C21821992   3.682   2.452   8.194  0.3279 -0.2375  0.4238
  190SLPC  H18R21993   3.582   2.470   8.240  0.2340  2.7276 -0.7290
  190SLPC  H18S21994   3.723   2.552   8.168 -1.7868 -0.1104 -3.0558
  190SLPC  H18T21995   3.747   2.402   8.269  0.2001 -2.2107 -0.7090
  190SLPC   C3321996   3.900   2.450   6.856  0.1093  0.1445 -0.0656
  190SLPC   H3X21997   3.877   2.368   6.785  0.0087  0.8231 -0.8285
  190SLPC   H3Y21998   3.882   2.541   6.796 -1.6741  1.3505  2.1430
  190SLPC   C3421999   3.820   2.458   6.987 -0.5446  0.6528  0.1020
  190SLPC   H4X22000   3.715   2.434   6.959 -0.2605 -1.3847  0.6083
  190SLPC   H4Y22001   3.815   2.559   7.032 -1.3479 -0.6988  3.3097
  190SLPC   C3522002   3.876   2.342   7.084  0.2349 -0.6622 -0.1998
  190SLPC   H5X22003   3.982   2.366   7.107  0.4640  1.1566 -2.7448
  190SLPC   H5Y22004   3.877   2.251   7.022  3.6148  0.6999 -2.4514
  190SLPC   C3622005   3.786   2.333   7.203  0.0403 -0.3958  0.4871
  190SLPC   H6X22006   3.679   2.320   7.174  0.8235 -2.2796 -1.8686
  190SLPC   H6Y22007   3.790   2.431   7.256  0.2143  0.4609 -1.0421
  190SLPC   C3722008   3.826   2.222   7.304 -0.0166  0.3371 -0.0019
  190SLPC   H7X22009   3.927   2.246   7.342  1.2431  0.4567 -3.1471
  190SLPC   H7Y22010   3.831   2.136   7.235  2.9328  0.7613 -0.4360
  190SLPC   C3822011   3.722   2.192   7.410 -0.7545  0.6407 -0.5169
  190SLPC   H8X22012   3.621   2.192   7.364 -1.7792  0.5942  1.5823
  190SLPC   H8Y22013   3.715   2.267   7.493 -1.1167 -3.0808  3.1338
  190SLPC   C3922014   3.739   2.056   7.471 -0.2228 -0.1727  0.0869
  190SLPC   H9X22015   3.843   2.063   7.511 -0.4481 -0.2768  0.6931
  190SLPC   H9Y22016   3.739   1.970   7.400  1.0359 -1.4023  1.4994
  190SLPC  C31022017   3.638   2.027   7.589 -0.0560 -0.1323 -0.3971
  190SLPC  H10X22018   3.542   2.007   7.537 -0.3232  0.5366 -0.1701
  190SLPC  H10Y22019   3.634   2.110   7.663  0.0532 -2.3678  2.2500
  190SLPC  C31122020   3.688   1.904   7.660 -0.7202 -0.2728  0.1580
  190SLPC  H11X22021   3.794   1.916   7.693 -0.2661 -0.6603 -1.0830
  190SLPC  H11Y22022   3.678   1.828   7.579 -0.9918  0.8935 -0.9373
  190SLPC  C31222023   3.589   1.864   7.766  0.0747 -0.6655 -0.9200
  190SLPC  H12X22024   3.532   1.775   7.733 -0.3821 -0.7341  0.0346
  190SLPC  H12Y22025   3.521   1.942   7.807 -0.8857 -1.1215 -1.6240
  190SLPC  C31322026   3.671   1.826   7.891  0.7428 -0.3893  0.8697
  190SLPC  H13X22027   3.677   1.919   7.952  0.4328  0.1468  0.0933
  190SLPC  H13Y22028   3.771   1.794   7.854  0.3779  1.4170 -1.9670
  190SLPC  C31422029   3.599   1.719   7.973  0.2309  0.6794  0.1851
  190SLPC  H14X22030   3.583   1.643   7.893  1.5456  0.1699  0.3786
  190SLPC  H14Y22031   3.499   1.755   8.006 -0.2352  3.2556 -3.4700
  190SLPC  C31522032   3.677   1.655   8.088 -0.8317 -0.6065 -0.8804
  190SLPC  H15X22033   3.787   1.653   8.067 -0.4276  0.4102  0.9457
  190SLPC  H15Y22034   3.659   1.551   8.122  1.8523 -0.4934  1.2232
  190SLPC  C31622035   3.675   1.739   8.219  0.3128 -0.5807  0.8459
  190SLPC  H16X22036   3.567   1.758   8.239  0.0500  0.4792 -1.2897
  190SLPC  H16Y22037   3.716   1.839   8.193 -0.7105 -0.4326 -0.3166
  190SLPC  C31722038   3.716   1.686   8.355 -0.3644 -1.1764  0.0140
  190SLPC  H17X22039   3.692   1.757   8.438 -2.3909 -1.2646 -0.4528
  190SLPC  H17Y22040   3.826   1.673   8.343  0.0320  1.1951  0.5360
  190SLPC  C31822041   3.649   1.555   8.399  0.1105  0.5569 -0.7175
  190SLPC  H18X22042   3.543   1.575   8.424  0.8868  1.6944  1.9518
  190SLPC  H18Y22043   3.689   1.512   8.493 -1.3143  0.1548 -0.2814
  190SLPC  H18Z22044   3.662   1.473   8.325  1.8847  0.0677  0.0883
  191SLPC     N22045   2.992   2.688   6.269  0.3473  0.3740 -0.1302
  191SLPC   C1322046   3.000   2.654   6.127 -0.0614 -0.0847 -0.4784
  191SLPC  H13A22047   3.086   2.707   6.088  0.4578 -0.6893 -0.1631
  191SLPC  H13B22048   3.011   2.547   6.115  1.2664 -0.3637  2.4429
  191SLPC  H13C22049   2.911   2.691   6.078  0.0235  0.5999 -0.1286
  191SLPC   C1422050   2.881   2.609   6.321 -0.2087 -0.2119  0.2036
  191SLPC  H14A22051   2.902   2.504   6.334  1.3602  0.0623  0.0151
  191SLPC  H14B22052   2.852   2.638   6.421  2.3960 -0.2687  1.0499
  191SLPC  H14C22053   2.790   2.618   6.263  1.1501 -0.9684 -2.2118
  191SLPC   C1522054   2.965   2.836   6.284 -0.7275 -0.0556  0.1463
  191SLPC  H15A22055   3.046   2.902   6.255  0.8868 -1.7143  0.6893
  191SLPC  H15B22056   2.875   2.855   6.228 -0.8221 -1.6096 -0.2729
  191SLPC  H15C22057   2.949   2.863   6.387  3.0496  0.0129  0.8710
  191SLPC   C1222058   3.113   2.649   6.353 -0.0402 -0.2688 -0.3688
  191SLPC  H12A22059   3.080   2.672   6.454  0.3619 -1.3014  0.0186
  191SLPC  H12B22060   3.197   2.707   6.321 -1.6161  1.7276 -1.0864
  191SLPC   C1122061   3.161   2.500   6.333 -0.3365  0.9237 -0.2699
  191SLPC  H11A22062   3.264   2.479   6.370 -0.8085 -0.8669  0.1308
  191SLPC  H11B22063   3.163   2.486   6.223 -1.1933 -2.1088  0.0023
  191SLPC     P22064   3.040   2.268   6.332  0.2575  0.5739  0.2978
  191SLPC   O1322065   2.907   2.276   6.269 -0.0655 -0.9839  0.1119
  191SLPC   O1422066   3.154   2.215   6.252  0.2878  0.4460 -0.0895
  191SLPC   O1222067   3.073   2.411   6.396  0.4311 -0.0931 -0.0254
  191SLPC   O1122068   3.037   2.165   6.456 -0.1023  0.7707 -0.1737
  191SLPC    C122069   3.150   2.121   6.521 -0.7417  0.3961 -0.7382
  191SLPC    HA22070   3.203   2.036   6.472 -0.4179 -1.2923  2.3064
  191SLPC    HB22071   3.222   2.205   6.516 -0.8314  0.4597 -0.9523
  191SLPC    C222072   3.130   2.100   6.675 -0.2262  0.6531 -0.3687
  191SLPC    HS22073   3.234   2.108   6.714 -0.6574  1.8755  0.5827
  191SLPC   O2122074   3.069   1.980   6.713 -0.4667  0.1902 -0.4618
  191SLPC   C2122075   3.138   1.872   6.713  0.2033  0.6009 -0.6893
  191SLPC   O2222076   3.250   1.865   6.660 -0.3528 -0.0820  0.4500
  191SLPC   C2222077   3.076   1.764   6.801  0.0571 -0.4821  1.0496
  191SLPC   H2R22078   2.969   1.748   6.775 -0.5039  1.2325  2.1288
  191SLPC   H2S22079   3.133   1.669   6.790  0.6131 -0.0496  0.1423
  191SLPC    C322080   3.054   2.221   6.746  0.0551  0.4995  0.3332
  191SLPC    HX22081   2.946   2.196   6.739  0.2094 -0.6677  1.7961
  191SLPC    HY22082   3.074   2.308   6.679 -0.2903  0.6669  0.4441
  191SLPC   O3122083   3.099   2.242   6.882 -0.2383 -0.3639  0.2340
  191SLPC   C3122084   3.018   2.197   6.980  0.6692  0.2819  0.0955
  191SLPC   O3222085   2.918   2.132   6.959 -0.2257  0.1616 -0.0288
  191SLPC   C3222086   3.078   2.230   7.113  0.1265  0.8518  0.4027
  191SLPC   H2X22087   3.039   2.330   7.140  0.7998  1.1277  0.3754
  191SLPC   H2Y22088   3.187   2.225   7.092 -0.2368  0.3796 -1.6073
  191SLPC   C2322089   3.099   1.794   6.954  0.1070  0.3237 -0.0621
  191SLPC   H3R22090   3.033   1.874   6.995 -0.5242 -0.6297  0.8100
  191SLPC   H3S22091   3.207   1.818   6.966  0.1107 -0.3254  1.4353
  191SLPC   C2422092   3.054   1.665   7.023 -0.0372  0.3836 -0.2635
  191SLPC   H4R22093   3.130   1.588   6.995  0.3217  0.5795  0.1547
  191SLPC   H4S22094   2.953   1.625   6.998 -0.7740  2.0155  0.0153
  191SLPC   C2522095   3.069   1.677   7.169  0.0417 -0.5475  0.0250
  191SLPC   H5R22096   3.010   1.766   7.199 -1.2769 -1.5521  0.4944
  191SLPC   H5S22097   3.175   1.698   7.195 -0.5985  1.0387  1.4984
  191SLPC   C2622098   3.030   1.546   7.252  0.2554 -0.3707  0.1748
  191SLPC   H6R22099   3.108   1.467   7.256  1.4538  0.7975  0.9720
  191SLPC   H6S22100   2.935   1.520   7.200 -0.9975  2.2479  0.9824
  191SLPC   C2722101   3.015   1.593   7.397 -0.2789 -0.2398 -0.3118
  191SLPC   H7R22102   2.949   1.682   7.411  0.5515  0.0420  2.4345
  191SLPC   H7S22103   3.108   1.627   7.446 -0.2317 -1.6043  0.5925
  191SLPC   C2822104   2.967   1.476   7.492 -0.0584 -0.5494  0.2616
  191SLPC   H8R22105   2.962   1.518   7.594 -1.3525  0.5290 -0.2151
  191SLPC   H8S22106   3.041   1.393   7.485 -1.1877 -1.6653  1.1841
  191SLPC   C2922107   2.828   1.432   7.450  0.6618 -0.4368  0.1242
  191SLPC   H9R22108   2.817   1.408   7.343  2.9958 -1.8708  0.1153
  191SLPC  C21022109   2.711   1.443   7.519 -0.0329  0.3855  0.6841
  191SLPC  H10R22110   2.620   1.420   7.461  0.9028  1.1583 -1.1873
  191SLPC  C21122111   2.704   1.468   7.665  0.6410 -0.5259 -0.1427
  191SLPC  H11R22112   2.742   1.568   7.695 -1.8283 -0.0064  1.4334
  191SLPC  H11S22113   2.773   1.389   7.702  1.2408 -0.0013 -0.1150
  191SLPC  C21222114   2.559   1.460   7.716  0.4800  0.6220  0.2908
  191SLPC  H12R22115   2.507   1.557   7.710  0.7166  1.2407  4.6800
  191SLPC  C21322116   2.501   1.354   7.768  1.1082  0.3827 -0.3595
  191SLPC  H13R22117   2.396   1.366   7.798  1.1099 -1.9430  0.7665
  191SLPC  C21422118   2.575   1.217   7.784 -0.2530 -0.2810 -0.0386
  191SLPC  H14R22119   2.673   1.221   7.733 -0.0621  2.9327  0.3967
  191SLPC  H14S22120   2.522   1.132   7.736  0.7756 -0.3997 -0.9973
  191SLPC  C21522121   2.601   1.167   7.929 -0.3383 -0.5144 -0.2916
  191SLPC  H15R22122   2.671   1.236   7.980 -0.6594 -1.2346  1.1739
  191SLPC  H15S22123   2.641   1.064   7.930  0.3999 -0.2605 -1.6408
  191SLPC  C21622124   2.477   1.162   8.014 -0.5737 -0.1025  0.2535
  191SLPC  H16R22125   2.407   1.092   7.962  0.7560 -1.4864  0.2606
  191SLPC  H16S22126   2.423   1.258   8.024 -0.0595  0.2669 -0.3971
  191SLPC  C21722127   2.499   1.088   8.146 -0.0708 -0.7026  0.6322
  191SLPC  H17R22128   2.568   1.003   8.126  0.8807  0.3591 -0.7618
  191SLPC  H17S22129   2.400   1.057   8.188 -0.6599  2.3097  1.6909
  191SLPC  C21822130   2.566   1.190   8.241 -0.4447  0.1803 -0.6735
  191SLPC  H18R22131   2.502   1.269   8.286 -1.8111 -2.1709  1.7711
  191SLPC  H18S22132   2.649   1.240   8.186  0.6129 -1.4671 -0.6451
  191SLPC  H18T22133   2.617   1.138   8.325  0.2830 -0.8985 -1.7573
  191SLPC   C3322134   3.023   2.140   7.220  0.3339 -0.2149 -1.2148
  191SLPC   H3X22135   3.025   2.033   7.192 -2.9696 -0.3118 -1.4510
  191SLPC   H3Y22136   2.915   2.161   7.235  0.0365 -0.9473 -2.2452
  191SLPC   C3422137   3.088   2.165   7.357  0.4704 -0.0719  0.2936
  191SLPC   H4X22138   3.072   2.272   7.383  2.1105 -0.5782  3.8659
  191SLPC   H4Y22139   3.198   2.151   7.356  0.9377  2.7826  1.8342
  191SLPC   C3522140   3.033   2.081   7.473  0.5951 -0.4663  0.1429
  191SLPC   H5X22141   2.940   2.031   7.440  0.5055 -0.3385  0.2001
  191SLPC   H5Y22142   3.003   2.137   7.564 -3.2573 -1.4160 -0.4019
  191SLPC   C3622143   3.112   1.964   7.529 -0.3438  0.3761  0.4490
  191SLPC   H6X22144   3.211   2.011   7.547  0.5456 -1.0176 -0.5564
  191SLPC   H6Y22145   3.128   1.884   7.454 -1.0871  0.7797 -0.1647
  191SLPC   C3722146   3.061   1.897   7.655  0.8444 -0.0850  0.6577
  191SLPC   H7X22147   2.999   1.811   7.621 -1.3747  0.0897  3.8368
  191SLPC   H7Y22148   2.999   1.970   7.710  1.9187  1.1238  0.3113
  191SLPC   C3822149   3.185   1.847   7.742  0.4263  0.5645 -0.2339
  191SLPC   H8X22150   3.257   1.932   7.738 -1.3408  2.1904  0.8026
  191SLPC   H8Y22151   3.227   1.753   7.701 -0.9173  0.3207 -1.1467
  191SLPC   C3922152   3.126   1.823   7.878  0.0633 -0.0969  0.1552
  191SLPC   H9X22153   3.080   1.918   7.911  1.4893  0.9711 -0.8538
  191SLPC   H9Y22154   3.205   1.812   7.955 -2.0127  0.3852  2.4736
  191SLPC  C31022155   3.030   1.701   7.891  0.0102  0.4922 -0.3702
  191SLPC  H10X22156   3.083   1.604   7.881  0.0739  0.5612 -0.6960
  191SLPC  H10Y22157   2.958   1.708   7.808  0.0981 -1.2068 -0.6307
  191SLPC  C31122158   2.946   1.708   8.023  0.0375 -0.1126  0.1369
  191SLPC  H11X22159   2.901   1.809   8.035  0.5124  0.0833  0.2690
  191SLPC  H11Y22160   3.011   1.692   8.111  0.6578  2.3855  0.2198
  191SLPC  C31222161   2.835   1.603   8.019  0.6043  0.1607 -0.6462
  191SLPC  H12X22162   2.879   1.503   7.997  0.3426  0.2821 -1.7510
  191SLPC  H12Y22163   2.763   1.625   7.938  0.7167  1.6645 -0.3636
  191SLPC  C31322164   2.745   1.581   8.152 -0.1240 -0.0449  0.2988
  191SLPC  H13X22165   2.692   1.486   8.128 -0.9447  0.5500 -0.3235
  191SLPC  H13Y22166   2.661   1.654   8.152 -0.0381  0.0512  0.9329
  191SLPC  C31422167   2.815   1.559   8.289  0.4910 -0.4975 -0.8672
  191SLPC  H14X22168   2.902   1.491   8.283 -0.3561 -1.6604 -0.2909
  191SLPC  H14Y22169   2.733   1.514   8.350  0.9983 -1.1516 -0.6518
  191SLPC  C31522170   2.847   1.696   8.343  0.2393  0.1596 -0.8494
  191SLPC  H15X22171   2.764   1.769   8.331 -0.8950 -0.7110  1.2472
  191SLPC  H15Y22172   2.936   1.732   8.287  0.0577  1.6262 -0.2357
  191SLPC  C31622173   2.873   1.694   8.498 -0.1557  0.0448 -0.2534
  191SLPC  H16X22174   2.943   1.614   8.530  1.3570  0.3577 -2.5580
  191SLPC  H16Y22175   2.775   1.673   8.547  0.6066 -2.2235  0.3943
  191SLPC  C31722176   2.918   1.833   8.558 -0.0215  0.5158  0.0574
  191SLPC  H17X22177   2.836   1.905   8.540 -2.9575 -2.5723  0.0617
  191SLPC  H17Y22178   3.002   1.868   8.495  0.5794  0.3118  0.7324
  191SLPC  C31822179   2.967   1.841   8.702  0.1129 -0.2693 -0.9011
  191SLPC  H18X22180   3.073   1.807   8.709  0.7849  1.7598 -0.6980
  191SLPC  H18Y22181   2.899   1.781   8.766  0.4674  0.9366  0.6591
  191SLPC  H18Z22182   2.973   1.948   8.732  1.1136 -0.3325 -0.8364
  192SLPC     N22183   3.296   2.569   5.776 -0.5594 -0.4505 -0.2663
  192SLPC   C1322184   3.399   2.667   5.740  0.4758  0.1148 -0.6306
  192SLPC  H13A22185   3.394   2.758   5.798  2.7382 -0.2247  0.2018
  192SLPC  H13B22186   3.499   2.626   5.732  1.3111  1.7132  0.8874
  192SLPC  H13C22187   3.376   2.711   5.644  0.3019  5.0026  1.3375
  192SLPC   C1422188   3.326   2.441   5.704  0.0461 -0.0803 -0.1170
  192SLPC  H14A22189   3.290   2.457   5.603  0.4815  0.2513 -0.2218
  192SLPC  H14B22190   3.426   2.400   5.709  0.8910  1.7262 -1.2795
  192SLPC  H14C22191   3.270   2.361   5.750  0.2696  0.4432  1.0820
  192SLPC   C1522192   3.163   2.624   5.736  0.3556 -0.1922 -1.0513
  192SLPC  H15A22193   3.160   2.674   5.641 -0.0332  1.1508 -0.3616
  192SLPC  H15B22194   3.088   2.546   5.729 -1.0074  1.1650 -2.5420
  192SLPC  H15C22195   3.130   2.698   5.807  0.9496  0.2481 -1.2321
  192SLPC   C1222196   3.288   2.541   5.930  0.0335 -0.7759 -0.0061
  192SLPC  H12A22197   3.198   2.486   5.956 -0.4907  0.4899  0.9747
  192SLPC  H12B22198   3.271   2.638   5.976  2.6409  0.0309 -0.6219
  192SLPC   C1122199   3.416   2.474   5.985 -0.2073  0.4306 -0.2859
  192SLPC  H11A22200   3.507   2.519   5.940 -1.0820  1.8308 -0.7119
  192SLPC  H11B22201   3.407   2.367   5.956 -0.7480  0.1048  1.0308
  192SLPC     P22202   3.450   2.638   6.175 -0.5303  0.4520 -0.1893
  192SLPC   O1322203   3.578   2.682   6.116  0.6603  0.9665 -0.1628
  192SLPC   O1422204   3.338   2.721   6.144 -0.1396 -0.7664 -0.3740
  192SLPC   O1222205   3.419   2.489   6.126 -0.7198  0.4644 -0.4063
  192SLPC   O1122206   3.469   2.630   6.332  0.0669 -0.5051  0.3578
  192SLPC    C122207   3.555   2.524   6.386  0.0275  0.2443 -0.0817
  192SLPC    HA22208   3.502   2.427   6.377  2.3926 -0.9655 -2.0919
  192SLPC    HB22209   3.652   2.514   6.334 -0.4855  0.3816 -1.0978
  192SLPC    C222210   3.587   2.542   6.538  0.3755  0.3419 -0.2755
  192SLPC    HS22211   3.616   2.447   6.588  1.1668 -0.0545 -1.4429
  192SLPC   O2122212   3.473   2.596   6.610  0.2902 -0.0726  0.2401
  192SLPC   C2122213   3.377   2.503   6.637 -0.0549  0.3039 -0.5475
  192SLPC   O2222214   3.383   2.386   6.603 -0.0458 -0.2436  0.7020
  192SLPC   C2222215   3.261   2.559   6.714  0.9960  0.2309  0.3984
  192SLPC   H2R22216   3.215   2.626   6.638  2.2802 -1.5867 -2.1441
  192SLPC   H2S22217   3.187   2.478   6.731  0.0498  1.1168  0.5987
  192SLPC    C322218   3.715   2.632   6.546 -0.2655 -0.1269 -0.7493
  192SLPC    HX22219   3.675   2.718   6.488 -0.9961  0.0528  0.0110
  192SLPC    HY22220   3.810   2.591   6.506 -0.0615 -0.2216 -0.1772
  192SLPC   O3122221   3.738   2.667   6.688  0.3791 -0.2998  0.3873
  192SLPC   C3122222   3.677   2.777   6.744 -0.1971 -0.9334  0.4009
  192SLPC   O3222223   3.604   2.853   6.679  0.2486  0.1782 -0.6468
  192SLPC   C3222224   3.731   2.788   6.887 -0.4878  0.2867 -0.3637
  192SLPC   H2X22225   3.838   2.757   6.886 -0.3293  0.6465  1.5073
  192SLPC   H2Y22226   3.694   2.707   6.954  1.6521 -0.3835  0.0734
  192SLPC   C2322227   3.306   2.629   6.840 -0.3200 -0.3232 -0.1320
  192SLPC   H3R22228   3.231   2.702   6.876 -0.3772 -0.4926  0.0924
  192SLPC   H3S22229   3.402   2.683   6.827  0.3834 -1.4747  0.1283
  192SLPC   C2422230   3.325   2.528   6.953  0.9255 -0.1522  0.5799
  192SLPC   H4R22231   3.416   2.470   6.924  1.1645  0.2270  0.5693
  192SLPC   H4S22232   3.231   2.468   6.960  0.9494 -0.0748  1.7042
  192SLPC   C2522233   3.373   2.607   7.081 -0.2920  0.2869  0.0757
  192SLPC   H5R22234   3.288   2.673   7.108  0.5716  1.9348 -1.0508
  192SLPC   H5S22235   3.460   2.673   7.059  0.2371 -0.0877  1.0015
  192SLPC   C2622236   3.410   2.512   7.190  0.3951  0.1192  0.0397
  192SLPC   H6R22237   3.498   2.451   7.161  2.0686  1.7144  1.5123
  192SLPC   H6S22238   3.325   2.444   7.215 -0.7695  1.5075  0.0009
  192SLPC   C2722239   3.453   2.577   7.322  0.3339  0.1581 -0.1879
  192SLPC   H7R22240   3.368   2.640   7.353  0.9746 -0.7800  4.1590
  192SLPC   H7S22241   3.548   2.632   7.305  1.2461 -1.2702  0.1145
  192SLPC   C2822242   3.492   2.489   7.441 -0.0727  0.7436  0.1393
  192SLPC   H8R22243   3.529   2.546   7.529  1.2604 -0.1331  0.1757
  192SLPC   H8S22244   3.570   2.420   7.402  1.0774  1.5723  0.9075
  192SLPC   C2922245   3.388   2.384   7.473 -0.5231 -0.1881 -0.1246
  192SLPC   H9R22246   3.389   2.289   7.417 -2.7143 -1.0346  1.1291
  192SLPC  C21022247   3.293   2.392   7.569 -0.7040 -0.2445 -0.7073
  192SLPC  H10R22248   3.218   2.313   7.583 -0.4550 -0.0644  2.1786
  192SLPC  C21122249   3.290   2.496   7.680 -0.7237 -0.6761 -0.0237
  192SLPC  H11R22250   3.294   2.598   7.634  2.3426 -1.2423 -1.2569
  192SLPC  H11S22251   3.387   2.500   7.735 -0.2521  3.9363 -0.7220
  192SLPC  C21222252   3.181   2.486   7.785  0.1133 -0.0959  0.7171
  192SLPC  H12R22253   3.115   2.574   7.777  1.1907  0.8491  1.7993
  192SLPC  C21322254   3.175   2.397   7.891  0.2309 -0.3796 -0.3320
  192SLPC  H13R22255   3.079   2.396   7.945  0.9867  2.1253  1.2399
  192SLPC  C21422256   3.262   2.286   7.938 -0.7776 -0.9109 -0.2703
  192SLPC  H14R22257   3.360   2.320   7.976 -0.5706  1.5590 -2.7128
  192SLPC  H14S22258   3.298   2.235   7.847  0.0946  1.1558 -1.1257
  192SLPC  C21522259   3.183   2.186   8.026  0.4844  0.1717 -0.1574
  192SLPC  H15R22260   3.102   2.142   7.964 -0.6171  2.3737 -0.3851
  192SLPC  H15S22261   3.128   2.245   8.102 -2.3047 -1.6253 -0.6666
  192SLPC  C21622262   3.261   2.075   8.096  0.3875  0.1726 -0.8216
  192SLPC  H16R22263   3.350   2.126   8.137  0.5051  1.0618 -2.0962
  192SLPC  H16S22264   3.302   2.014   8.013  0.8232  0.3869 -0.7657
  192SLPC  C21722265   3.186   2.000   8.210  0.7004  0.2055  0.7744
  192SLPC  H17R22266   3.179   2.064   8.301 -1.2059  1.7659 -0.3799
  192SLPC  H17S22267   3.081   1.988   8.176  1.3955  2.6975 -2.7880
  192SLPC  C21822268   3.249   1.870   8.248  0.4637 -0.3542 -0.1171
  192SLPC  H18R22269   3.356   1.872   8.277  0.2183 -0.3658  0.8303
  192SLPC  H18S22270   3.220   1.800   8.167 -1.4238  1.4517 -1.1208
  192SLPC  H18T22271   3.199   1.829   8.338  0.4909 -0.5920 -0.2099
  192SLPC   C3322272   3.721   2.927   6.950  0.3782  0.4577 -0.0253
  192SLPC   H3X22273   3.623   2.973   6.925  0.1002 -0.4176 -0.5822
  192SLPC   H3Y22274   3.801   2.982   6.896 -0.7791 -2.3088 -5.1724
  192SLPC   C3422275   3.739   2.932   7.102 -0.7812  0.4086 -0.0233
  192SLPC   H4X22276   3.846   2.916   7.126 -0.7622 -0.0526 -0.3804
  192SLPC   H4Y22277   3.673   2.862   7.158  0.1229 -0.1559  0.3736
  192SLPC   C3522278   3.702   3.076   7.163  0.3131  0.3395  0.0791
  192SLPC   H5X22279   3.597   3.102   7.135  0.5012 -0.6463 -1.6994
  192SLPC   H5Y22280   3.777   3.138   7.110  0.6093  0.6059  0.7980
  192SLPC   C3622281   3.696   3.081   7.310 -0.1978 -0.2234  0.3612
  192SLPC   H6X22282   3.600   3.031   7.333 -0.6405 -0.7511 -2.2693
  192SLPC   H6Y22283   3.691   3.191   7.329 -1.2510 -0.0940 -0.5709
  192SLPC   C3722284   3.816   3.010   7.385  0.0617 -0.3615 -0.1777
  192SLPC   H7X22285   3.915   3.044   7.346  0.2006 -0.4098  0.1343
  192SLPC   H7Y22286   3.811   2.902   7.359 -1.2838 -0.0841 -1.2002
  192SLPC   C3822287   3.815   3.041   7.537 -0.6742 -0.9419  0.1494
  192SLPC   H8X22288   3.820   3.152   7.548  4.0847 -0.8082 -1.2771
  192SLPC   H8Y22289   3.909   2.996   7.574 -1.0465 -1.5228  0.3917
  192SLPC   C3922290   3.704   2.986   7.625  0.2186  0.1040  0.5914
  192SLPC   H9X22291   3.601   3.006   7.588  0.4596 -1.1445 -0.8704
  192SLPC   H9Y22292   3.720   3.041   7.720 -1.4765  1.4009  0.1772
  192SLPC  C31022293   3.714   2.833   7.643 -0.8244  0.2172 -0.2323
  192SLPC  H10X22294   3.819   2.805   7.663 -0.1750  0.0712 -3.3725
  192SLPC  H10Y22295   3.707   2.777   7.547  1.1920  0.4309 -0.5351
  192SLPC  C31122296   3.626   2.756   7.748  0.0242 -0.5147  0.1511
  192SLPC  H11X22297   3.661   2.651   7.754  2.8709  0.4081  2.0615
  192SLPC  H11Y22298   3.527   2.760   7.698  1.4705 -0.2822 -2.8598
  192SLPC  C31222299   3.632   2.814   7.896  0.0360  0.3080 -0.0473
  192SLPC  H12X22300   3.630   2.925   7.898  0.9131  0.3153  0.8382
  192SLPC  H12Y22301   3.735   2.792   7.931  0.4797  0.0467 -1.4398
  192SLPC  C31322302   3.526   2.744   7.986 -0.5639 -0.1437 -0.0880
  192SLPC  H13X22303   3.542   2.767   8.094 -2.0022 -0.2163  0.1569
  192SLPC  H13Y22304   3.557   2.637   7.983  1.1098  0.3218 -0.5077
  192SLPC  C31422305   3.377   2.761   7.953 -0.3174 -0.0137 -0.5865
  192SLPC  H14X22306   3.317   2.693   8.018 -0.1564 -0.5270 -0.9709
  192SLPC  H14Y22307   3.358   2.727   7.849 -2.0305 -1.4192  0.1411
  192SLPC  C31522308   3.316   2.897   7.981 -0.4939 -0.0911  0.0086
  192SLPC  H15X22309   3.212   2.894   7.944  0.2829 -0.8026 -2.2353
  192SLPC  H15Y22310   3.360   2.981   7.923  0.3559 -0.7229 -0.2845
  192SLPC  C31622311   3.315   2.930   8.136 -0.6511  0.2002 -0.0775
  192SLPC  H16X22312   3.278   3.033   8.154 -1.9871 -0.3402  0.3288
  192SLPC  H16Y22313   3.422   2.929   8.166 -0.2262  1.5236 -1.4348
  192SLPC  C31722314   3.213   2.842   8.212  0.4271  0.0540 -0.4838
  192SLPC  H17X22315   3.256   2.742   8.230 -0.8954 -0.6525 -1.0771
  192SLPC  H17Y22316   3.114   2.826   8.164 -0.8866  0.9722  1.7528
  192SLPC  C31822317   3.192   2.908   8.349 -0.1324  0.0847  1.3346
  192SLPC  H18X22318   3.143   3.006   8.332  1.8651  1.5719  3.3962
  192SLPC  H18Y22319   3.289   2.941   8.392  0.3715  0.9316 -0.3822
  192SLPC  H18Z22320   3.142   2.839   8.421  0.7620 -1.8192  0.2037
  193SOD    SOD22321   1.826   5.664   4.811  0.2475 -0.8166  0.1587
  194SOD    SOD22322   6.284   5.893  12.526 -0.1668 -0.5678 -0.2642
  195SOD    SOD22323   1.415   5.381   5.882 -0.6876  0.2119  0.3809
  196SOD    SOD22324   0.750   1.770  11.872 -0.0526 -0.2150 -0.5772
  197SOD    SOD22325   0.495   3.149   2.613  0.4158 -0.1647  0.5284
  198SOD    SOD22326   2.171   6.064   5.822 -0.2362  0.1446  0.0664
  199SOD    SOD22327   3.264   4.857   0.061  0.0799 -0.1855  0.3575
  200SOD    SOD22328   3.415   1.513  11.430  0.1112  0.2861  0.0665
  201SOD    SOD22329   0.642   0.803   5.748  0.7264 -0.2034 -0.1610
  202SOD    SOD22330   6.840   5.555  13.529  0.4291 -0.2087  0.1341
  203SOD    SOD22331   0.527   0.789  10.231  0.2339 -0.3256 -0.2415
  204SOD    SOD22332   3.044   2.357  16.171  0.1184 -0.4356 -0.3106
  205SOD    SOD22333   3.944   4.289   0.998  0.3014  0.0451 -0.0783
  206SOD    SOD22334   6.849   3.521  13.884  0.3009 -0.2060  0.2265
  207SOD    SOD22335   5.463   0.510   4.089 -0.2470 -0.2542  0.0529
  208SOD    SOD22336   5.126   5.064  14.538  0.1296 -0.1171  0.1923
  209SOD    SOD22337   2.017   6.848  13.278 -0.2464  0.0269  0.0360
  210SOD    SOD22338   1.024   0.391   5.615  0.2764  0.3490 -0.3185
  211SOD    SOD22339   0.757   3.827   1.519 -0.2204 -0.1348 -0.0048
  212SOD    SOD22340   5.992   2.698  14.715  0.5792 -0.1010 -0.6275
  213SOD    SOD22341   3.081   4.960  15.757  0.5910  0.0241 -0.2296
  214SOD    SOD22342   4.531   2.947  12.467 -0.0866  0.2700 -0.1997
  215SOD    SOD22343   5.054   5.069  15.981  0.1518  0.2562  0.0859
  216SOD    SOD22344   5.578   2.619  11.027 -0.0627 -0.3014  0.1281
  217SOD    SOD22345   5.730   3.930  11.239  0.2568 -0.0127 -0.0956
  218SOD    SOD22346   5.170   6.672   0.208 -0.0577  0.1880  0.3316
  219SOD    SOD22347   5.605   4.734   4.084 -0.5374 -0.7818  0.2004
  220SOD    SOD22348   4.329   0.874   0.229  0.1782  0.1101 -0.9190
  221SOD    SOD22349   0.025   6.067  14.856 -0.2418  0.4043 -0.0194
  222SOD    SOD22350   1.089   4.825   2.271  0.2498  0.9666  0.3504
  223SOD    SOD22351   1.405   1.174  12.384 -0.0257  0.3671  0.0714
  224SOD    SOD22352   1.896   3.154   0.774 -0.1926 -0.5688 -0.3467
  225SOD    SOD22353   4.252   0.788   2.494 -0.4165 -0.1715  0.3641
  226SOD    SOD22354   5.440   6.469  14.662 -0.0942  0.3334 -0.4216
  227SOD    SOD22355   0.647   0.404   1.119 -0.3876  0.3231  0.5526
  228SOD    SOD22356   4.981   6.111   6.178  0.1063  0.0961  0.1732
  229SOD    SOD22357   3.439   5.477  13.751  0.0569  0.1740 -0.4596
  230SOD    SOD22358   4.411   6.508   3.862 -0.5484  0.0821 -0.2780
  231SOD    SOD22359   2.907   3.063   0.276  0.9527 -0.4131  0.2832
  232SOD    SOD22360   5.680   4.572   5.731 -0.0460  0.7522 -0.1207
  233SOD    SOD22361   1.413   2.444  12.140 -0.2124  0.0778  0.0882
  234SOD    SOD22362   5.198   3.838   2.785  0.0005 -0.6244 -0.0557
  235SOD    SOD22363   2.122   2.452   5.545 -0.1107  0.0833 -0.4409
  236SOD    SOD22364   2.948   6.725  15.910  0.3283  0.1941  0.0182
  237SOD    SOD22365   1.745   3.961  11.675 -0.0944  0.5994 -0.1778
  238SOD    SOD22366   5.595   1.178   0.026  0.1598 -0.1013  0.5065
  239SOD    SOD22367   2.486   2.296   3.891  0.0587 -0.0773 -0.4136
  240SOD    SOD22368   1.777   2.494  14.485  0.4015  0.2259 -0.2621
  241SOD    SOD22369   4.317   4.588   5.504  0.1104  0.0093  0.0611
  242SOD    SOD22370   4.030   6.237  12.443 -0.6059  0.3748 -0.1398
  243SOD    SOD22371   1.279   0.957   6.204 -0.3403  0.2240 -0.2579
  244SOD    SOD22372   4.013   1.418  15.570 -0.7273  0.0004 -0.6236
  245SOD    SOD22373   1.480   6.702  10.948 -0.2729  0.7150 -0.1992
  246SOD    SOD22374   4.096   3.972  15.470  0.0881  0.6820  0.8420
  247SOD    SOD22375   5.985   6.126  11.223  0.0421  0.0446  0.2261
  248SOD    SOD22376   3.517   5.046  12.367  0.1332 -0.0401 -0.3249
  249SOD    SOD22377   1.046   3.390   3.944  0.4526 -0.2783 -0.3254
  250SOD    SOD22378   0.260   0.949  13.201 -0.0458 -0.5904  0.4345
  251SOD    SOD22379   6.325   6.775   1.189 -0.2010  0.1855  0.3200
  252SOD    SOD22380   1.788   2.515   1.261  0.2947  0.2158 -0.1235
  253SOD    SOD22381   4.776   1.014   6.147  0.2243  0.3538  0.1776
  254SOD    SOD22382   6.003   0.308  11.737 -0.4053 -0.6051 -0.1962
  255SOD    SOD22383   3.422   3.683   1.973  0.2102 -0.4907  0.1727
  256SOD    SOD22384   6.301   1.561  10.950  0.3996  0.1293 -0.1215
  257SOD    SOD22385   2.792   1.319   1.102 -0.6816  0.1578  0.0853
  258SOD    SOD22386   3.143   0.152   2.241 -0.0436 -0.2495 -0.3018
  259SOD    SOD22387   2.507   2.586  11.360  0.5877 -0.0523  0.0588
  260SOD    SOD22388   1.217   4.287  11.530 -0.1355  0.3405 -0.3024
  261SOD    SOD22389   0.693   2.061   3.824  0.2014  0.3606  0.1012
  262SOD    SOD22390   6.302   0.926   3.718 -0.3670 -0.3468 -0.2075
  263SOD    SOD22391   0.896   1.197   3.863 -0.2832  0.8429 -0.1799
  264SOD    SOD22392   2.120   6.008  11.315  0.1224  0.3769  0.5590
  265SOD    SOD22393   3.134   1.397  14.071 -0.2650  0.2610  0.2836
  266CLA    CLA22394   5.286   4.981  12.666  0.3407  0.4150 -0.1107
  267CLA    CLA22395   5.863   3.268   0.412  0.0497  0.5321 -0.3777
  268CLA    CLA22396   2.994   5.192   0.316 -0.1737  0.5260  0.1541
  269CLA    CLA22397   3.973   4.303  11.664  0.1696  0.0608  0.0101
  270CLA    CLA22398   3.279   6.376  12.563  0.1450  0.5525  0.5027
  271CLA    CLA22399   4.921   4.577  13.285  0.4159  0.0455  0.2768
  272CLA    CLA22400   5.166   6.117   4.766 -0.0476 -0.6021 -0.3025
  273CLA    CLA22401   6.423   2.667   4.705 -0.4666  0.3822 -0.0734
  274CLA    CLA22402   0.681   6.316  15.693 -0.5783 -0.1564  0.2627
  275CLA    CLA22403   5.415   6.036  16.196 -0.0526  0.2401  0.0816
  276CLA    CLA22404   1.669   3.696   2.109 -0.0803 -0.0532  0.6441
  277CLA    CLA22405   0.431   3.452   1.724 -0.2109  0.0926 -0.0461
  278CLA    CLA22406   1.118   3.641  16.212  0.0175  0.0016  0.2400
  279CLA    CLA22407   2.402   0.189   3.960  0.2946 -0.2898 -0.0546
  280CLA    CLA22408   2.016   0.556  14.598 -0.1424 -0.1658  0.6210
  281CLA    CLA22409   1.758   2.956  14.870 -0.3817 -0.1786 -0.0912
  282CLA    CLA22410   4.552   3.625   4.844  0.0696  0.0870  0.1126
  283CLA    CLA22411   2.288   5.291   2.973  0.4631  0.1255 -0.0788
  284CLA    CLA22412   3.818   3.555   1.844 -0.0941  0.6699 -0.3696
  285CLA    CLA22413   0.934   2.400   0.752  0.0327  0.0643  0.0822
  286CLA    CLA22414   3.883   2.728  16.091 -0.4350  0.2179 -0.0376
  287CLA    CLA22415   3.139   3.220   1.235 -0.1967  0.5715  0.0611
  288CLA    CLA22416   2.762   5.296  11.872 -0.1130 -0.0850 -0.0183
  289CLA    CLA22417   5.736   4.336   2.723  0.0138  0.1327 -0.0140
  290CLA    CLA22418   6.870   0.093  11.247  0.0703 -0.3225  0.2299
  291CLA    CLA22419   4.269   1.357  14.297 -0.1704 -0.0249 -0.1434
  292CLA    CLA22420   3.433   2.011  13.278  0.1496 -0.5308  0.0423
  293CLA    CLA22421   3.015   1.046  15.602 -0.5908  0.1245 -0.2229
  294CLA    CLA22422   5.002   5.524   5.869 -0.1184  0.5189  0.7207
  295CLA    CLA22423   1.945   1.844  15.475 -0.0757 -0.2115  0.2656
  296CLA    CLA22424   5.661   5.606  14.998  0.3854  0.3106  0.3463
  297CLA    CLA22425   5.576   4.009   2.136  0.2764 -0.1666  0.4424
  298CLA    CLA22426   0.498   0.891   3.138 -0.0162 -0.3657 -0.3294
  299CLA    CLA22427   1.493   3.074  12.000  0.2326  0.0570 -0.4383
  300CLA    CLA22428   5.773   1.780  14.583 -0.0193  0.1639 -0.4644
  301CLA    CLA22429   3.372   6.696   0.961 -0.2575 -0.1778 -0.0820
  302CLA    CLA22430   0.351   5.957  12.864 -0.0343  0.2937  0.0691
  303CLA    CLA22431   2.618   0.330   0.134  0.1259 -0.0758 -0.1400
  304CLA    CLA22432   3.423   5.036   5.026 -0.3389 -0.2432  0.0202
  305CLA    CLA22433   5.186   0.077   3.328 -0.1562  0.0354 -0.4799
  306CLA    CLA22434   5.694   6.018   1.477  0.3196  0.3250  0.3694
  307CLA    CLA22435   4.129   6.695  16.865  0.0323 -0.1210 -0.4242
  308CLA    CLA22436   0.439   0.406  13.892 -0.5514 -0.0819  0.0988
  309CLA    CLA22437   0.558   2.078  13.833 -0.0510 -0.5343  0.0191
  310CLA    CLA22438   4.185   1.681   2.944  0.0398 -0.1366  0.0451
  311CLA    CLA22439   6.880   0.638  11.776  0.2321  0.0937 -0.2544
  312CLA    CLA22440   2.670   3.564  13.765  0.2494  0.1534 -0.0757
  313CLA    CLA22441   5.030   6.806   1.912  0.1013  0.1880  0.1655
  314CLA    CLA22442   1.178   1.457   1.240 -0.2138 -0.9781 -0.0041
  315CLA    CLA22443   3.836   4.479  15.245 -0.0063 -0.3384 -0.2763
  316CLA    CLA22444   5.045   1.673   0.463  0.2911  0.7483  0.2798
  317CLA    CLA22445   5.571   4.508   2.159 -0.1526  0.0864  0.1802
  318CLA    CLA22446   2.456   4.376   0.753 -0.1514 -0.4071  0.3524
  319TIP3   OH222447   1.242   1.446  14.552  0.3237 -0.2151 -0.0331
  319TIP3    H122448   1.288   1.488  14.624 -0.9718  2.2993 -0.5515
  319TIP3    H222449   1.176   1.391  14.594 -0.1580  0.9141  0.7342
  320TIP3   OH222450   6.004   1.858   2.894  0.2930 -0.5117 -0.2847
  320TIP3    H122451   6.062   1.805   2.840  0.0489 -0.6963 -0.3661
  320TIP3    H222452   5.923   1.807   2.899  0.1596 -0.2828 -0.1220
  321TIP3   OH222453   3.395   5.468   5.134  0.1801  0.5372  0.1623
  321TIP3    H122454   3.343   5.402   5.180  0.3554  1.0272  1.0980
  321TIP3    H222455   3.356   5.552   5.160 -0.3304  0.8001 -1.3734
  322TIP3   OH222456   1.004   4.182  12.799 -0.7159  0.0961  0.4199
  322TIP3    H122457   1.029   4.097  12.764 -1.7525 -0.0946  0.1243
  322TIP3    H222458   1.036   4.182  12.889  2.7145  0.8948 -0.6633
  323TIP3   OH222459   2.082   1.846  16.091 -0.1272  0.3607  0.1614
  323TIP3    H122460   1.987   1.852  16.079 -0.0440  1.5829 -0.0846
  323TIP3    H222461   2.096   1.765  16.140 -1.4400  0.9787  1.6454
  324TIP3   OH222462   2.545   2.403  12.911  0.6399 -0.4062 -0.1478
  324TIP3    H122463   2.592   2.452  12.844 -0.8324 -2.1330 -2.6283
  324TIP3    H222464   2.542   2.313  12.877  0.3434 -1.5145  2.5642
  325TIP3   OH222465   3.768   4.437   0.968 -0.1762 -0.2690 -0.1800
  325TIP3    H122466   3.792   4.523   1.004  0.8821 -0.7644  0.3498
  325TIP3    H222467   3.730   4.457   0.883  2.9997  0.5697 -1.5502
  326TIP3   OH222468   3.846   0.573  13.035  0.0051  0.0131 -0.4725
  326TIP3    H122469   3.791   0.550  13.110 -0.0448  1.4823 -0.0274
  326TIP3    H222470   3.799   0.644  12.992  1.3234  1.0273 -0.3106
  327TIP3   OH222471   0.644   2.853   3.507  0.4157 -0.1981  0.2745
  327TIP3    H122472   0.696   2.888   3.579  1.2869 -1.2639  0.1968
  327TIP3    H222473   0.553   2.869   3.532  0.7258 -0.2098  1.4268
  328TIP3   OH222474   0.622   6.663  13.737  0.1345 -0.2937 -0.1436
  328TIP3    H122475   0.570   6.607  13.678  0.0992  0.0461 -0.4383
  328TIP3    H222476   0.575   6.660  13.820 -1.1683  1.1274 -0.7726
  329TIP3   OH222477   4.878   2.046  11.937 -0.6300 -0.2515 -0.2769
  329TIP3    H122478   4.895   2.119  11.877 -1.6502  0.4996  0.3075
  329TIP3    H222479   4.927   2.068  12.016 -1.7033  0.3313  0.2583
  330TIP3   OH222480   2.438   0.855  14.242  1.0816 -0.2059 -0.1726
  330TIP3    H122481   2.508   0.826  14.300 -0.6432 -1.1258  1.5309
  330TIP3    H222482   2.451   0.804  14.162  1.9118 -0.9199  0.3943
  331TIP3   OH222483   6.387   5.950  15.283  0.0909 -0.3491  0.8086
  331TIP3    H122484   6.449   5.889  15.243 -1.3938 -2.1736  1.1575
  331TIP3    H222485   6.412   5.953  15.375 -0.1919 -0.9270  0.9085
  332TIP3   OH222486   2.591   6.496   3.327  0.2521 -0.8641  0.1729
  332TIP3    H122487   2.682   6.475   3.305  0.2497 -0.3797 -0.3257
  332TIP3    H222488   2.539   6.454   3.259  0.1771 -0.2495 -0.1560
  333TIP3   OH222489   2.737   5.775   1.479 -0.2904  0.1680 -0.2366
  333TIP3    H122490   2.683   5.852   1.463 -0.6021  0.5779  2.3367
  333TIP3    H222491   2.807   5.806   1.537  0.8651 -1.0263 -0.9408
  334TIP3   OH222492   1.748   1.333   2.367 -0.3874 -0.2312  0.5619
  334TIP3    H122493   1.739   1.305   2.458  0.3650  1.3929  1.1880
  334TIP3    H222494   1.666   1.378   2.348 -0.1900  0.2353  0.7743
  335TIP3   OH222495   1.808   0.691   5.275 -0.4298 -0.6552 -0.0483
  335TIP3    H122496   1.757   0.736   5.343 -0.6175 -0.5890 -0.2339
  335TIP3    H222497   1.888   0.743   5.267 -0.7689 -0.1866 -0.4630
  336TIP3   OH222498   5.948   3.857   5.391  0.3547 -0.5003 -0.6618
  336TIP3    H122499   5.968   3.764   5.402  1.5768 -0.2847 -0.9085
  336TIP3    H222500   5.886   3.877   5.461  0.4268 -1.4006 -0.3335
  337TIP3   OH222501   4.860   0.209   0.891  0.1579 -0.5214  0.7206
  337TIP3    H122502   4.926   0.178   0.953  1.6490  0.8625 -0.1214
  337TIP3    H222503   4.903   0.207   0.806 -0.6473  1.0073  0.2307
  338TIP3   OH222504   0.655   5.832  16.434  0.6795  0.2269 -0.3747
  338TIP3    H122505   0.616   5.845  16.521  3.5269  1.7544  0.8164
  338TIP3    H222506   0.604   5.889  16.376  1.8144  3.2747  1.3849
  339TIP3   OH222507   0.364   2.840  10.432 -0.2041  0.1509  0.0641
  339TIP3    H122508   0.407   2.908  10.380  0.1267 -0.5559 -0.6075
  339TIP3    H222509   0.286   2.882  10.468 -1.8142  0.0374 -2.9704
  340TIP3   OH222510   5.462   4.379  14.497 -0.5167  0.1317  0.1429
  340TIP3    H122511   5.376   4.420  14.504 -0.0666  0.7927  2.8655
  340TIP3    H222512   5.524   4.447  14.525  0.9211 -0.3535 -1.6524
  341TIP3   OH222513   1.266   4.135   0.684  0.0659  0.4350  1.1962
  341TIP3    H122514   1.345   4.121   0.737 -0.1070  1.0021  1.6047
  341TIP3    H222515   1.285   4.089   0.602  1.0738  1.0674  1.0523
  342TIP3   OH222516   3.269   0.386   0.553 -0.0764 -0.5081  0.1930
  342TIP3    H122517   3.340   0.322   0.559 -0.6668 -1.4014 -1.4382
  342TIP3    H222518   3.190   0.332   0.548 -0.8672  0.4601  1.7559
  343TIP3   OH222519   0.381   6.391  14.302 -0.5652  0.3785 -0.1676
  343TIP3    H122520   0.363   6.484  14.290 -0.8989  0.2891 -0.3791
  343TIP3    H222521   0.296   6.348  14.291 -0.5073  0.0950  0.4427
  344TIP3   OH222522   2.472   0.802   5.601 -0.1925  0.4572  0.2962
  344TIP3    H122523   2.552   0.752   5.619 -0.9966 -0.2070  2.3650
  344TIP3    H222524   2.427   0.750   5.535  0.8061  0.5657 -0.5084
  345TIP3   OH222525   0.819   3.316   2.391 -0.1992 -0.5557 -0.3408
  345TIP3    H122526   0.867   3.337   2.311 -1.6867 -1.5382 -1.5428
  345TIP3    H222527   0.886   3.282   2.450  0.7696 -0.8443 -1.5596
  346TIP3   OH222528   0.470   0.307  14.745  0.4009 -0.3348  0.0038
  346TIP3    H122529   0.541   0.363  14.714 -0.4650 -0.4509 -2.4222
  346TIP3    H222530   0.493   0.287  14.836  0.9325  3.5561  0.8710
  347TIP3   OH222531   2.474   4.502  11.947  0.0255  0.5070  0.4472
  347TIP3    H122532   2.430   4.450  12.014  0.7043 -1.0176 -0.2523
  347TIP3    H222533   2.493   4.440  11.876 -0.0556  1.9226 -0.8739
  348TIP3   OH222534   5.884   1.484   2.610 -0.3511 -0.2728  0.1988
  348TIP3    H122535   5.948   1.423   2.647 -2.2770 -2.8504 -0.4605
  348TIP3    H222536   5.904   1.485   2.516  1.5307  2.5698  0.5070
  349TIP3   OH222537   0.781   5.706  13.687 -0.0884  0.1504 -0.2235
  349TIP3    H122538   0.850   5.664  13.636 -0.2838 -0.0254 -0.3465
  349TIP3    H222539   0.776   5.795  13.653  0.0627  0.1570 -0.2294
  350TIP3   OH222540   6.257   2.039  12.565  0.2386 -0.0809 -0.4125
  350TIP3    H122541   6.309   1.977  12.515 -0.0525 -1.7192  1.1887
  350TIP3    H222542   6.186   1.987  12.601 -0.8820  1.5191 -0.2044
  351TIP3   OH222543   4.860   1.111   4.740 -0.1645  0.0213  0.6269
  351TIP3    H122544   4.939   1.067   4.771  0.2703 -0.2799 -0.7998
  351TIP3    H222545   4.893   1.174   4.674 -0.8395  1.9630  2.0562
  352TIP3   OH222546   1.804   0.027   4.466 -0.6488  0.1761  0.1791
  352TIP3    H122547   1.767  -0.010   4.546 -0.4542  0.5336  0.4387
  352TIP3    H222548   1.893   0.053   4.491 -0.3494 -0.3487 -0.3409
  353TIP3   OH222549   5.346   3.282  11.952 -0.5737 -0.2493 -0.8158
  353TIP3    H122550   5.404   3.249  11.884  1.7169  1.0809  0.3811
  353TIP3    H222551   5.372   3.236  12.032 -1.3473  0.1789 -0.2910
  354TIP3   OH222552   1.275   0.901   5.510  0.3614  0.1924 -0.4394
  354TIP3    H122553   1.217   0.958   5.459  1.0220  2.0712  0.8178
  354TIP3    H222554   1.305   0.956   5.582  0.9858 -1.8071  0.8875
  355TIP3   OH222555   0.064   3.984   6.201  0.1574 -0.0851 -0.2537
  355TIP3    H122556   0.158   3.980   6.184 -0.2247 -1.4724 -2.3927
  355TIP3    H222557   0.025   4.002   6.115 -1.4847  1.8050  0.8210
  356TIP3   OH222558   5.029   3.199  11.373  0.2416  0.0951  0.4430
  356TIP3    H122559   5.091   3.266  11.345 -0.9452  0.1950 -2.2309
  356TIP3    H222560   4.988   3.235  11.451 -1.3036  3.1985 -1.6252
  357TIP3   OH222561   5.338   2.587  15.057  0.0683  0.7568 -0.0435
  357TIP3    H122562   5.260   2.639  15.036 -1.2994 -0.7873  0.8939
  357TIP3    H222563   5.332   2.511  14.999  0.8384  0.5822  0.0960
  358TIP3   OH222564   4.237   3.539  15.527 -0.0125  0.6100 -0.3788
  358TIP3    H122565   4.312   3.590  15.556 -1.0934  1.9910  0.0931
  358TIP3    H222566   4.167   3.561  15.589 -0.7105 -0.9499 -0.5613
  359TIP3   OH222567   2.740   5.056   3.835  0.2538  0.1795  0.5629
  359TIP3    H122568   2.665   5.011   3.873 -0.3336  0.7457  0.0835
  359TIP3    H222569   2.808   4.989   3.831  0.8990  0.4106  4.0310
  360TIP3   OH222570   4.785   6.303  16.184  0.5396  0.4475  0.1196
  360TIP3    H122571   4.752   6.215  16.202 -0.5030  0.9410  0.7098
  360TIP3    H222572   4.726   6.338  16.118  1.1448  0.5971 -0.3487
  361TIP3   OH222573   2.145   3.540  15.643  0.4452  0.0552 -0.6132
  361TIP3    H122574   2.204   3.508  15.575 -0.5860 -1.2983 -0.9159
  361TIP3    H222575   2.063   3.492  15.628 -0.9456  2.2627 -0.5663
  362TIP3   OH222576   3.258   3.031   4.775 -0.1007  0.2808 -0.1176
  362TIP3    H122577   3.177   3.073   4.749 -0.8492  0.4354  2.2810
  362TIP3    H222578   3.247   3.012   4.868  1.8064 -1.5670 -0.1955
  363TIP3   OH222579   1.810   0.491   3.550  0.2339 -0.5948 -0.4083
  363TIP3    H122580   1.848   0.482   3.462  1.9199 -0.0003  0.2074
  363TIP3    H222581   1.778   0.581   3.553  2.8480  0.4080  0.4865
  364TIP3   OH222582   6.139   6.718   0.539 -0.2634  0.8680 -0.2666
  364TIP3    H122583   6.050   6.710   0.573 -0.7769 -1.7438 -1.9281
  364TIP3    H222584   6.195   6.694   0.613 -1.1793 -1.2068 -0.1560
  365TIP3   OH222585   2.938   4.005   5.795  0.0210 -0.5366 -0.3080
  365TIP3    H122586   3.018   4.055   5.782  0.1036 -0.2056  1.2875
  365TIP3    H222587   2.887   4.020   5.716  1.4000 -0.5205 -1.2182
  366TIP3   OH222588   3.106   5.783   3.365 -0.0473 -0.0337  0.6517
  366TIP3    H122589   3.164   5.750   3.434  1.1973  1.3570  0.3065
  366TIP3    H222590   3.027   5.730   3.374  1.4684 -2.4399  0.7437
  367TIP3   OH222591   2.812   3.776   5.878 -0.0871 -0.0299 -0.1696
  367TIP3    H122592   2.847   3.856   5.838 -1.7516  1.6603  1.6010
  367TIP3    H222593   2.858   3.769   5.962  1.4991 -2.1176 -1.1244
  368TIP3   OH222594   3.303   1.134   3.840  0.3903  0.2553  0.5890
  368TIP3    H122595   3.270   1.184   3.765  0.5791  0.0193  0.3488
  368TIP3    H222596   3.229   1.078   3.865  0.4777 -0.0031  0.2834
  369TIP3   OH222597   2.662   6.187  11.666  0.3495 -0.1752  0.5040
  369TIP3    H122598   2.702   6.115  11.714  0.0130 -0.0284  1.0150
  369TIP3    H222599   2.678   6.264  11.720  1.2008  0.2396 -0.3083
  370TIP3   OH222600   6.711   5.071   0.521 -0.2238  0.4660  0.5585
  370TIP3    H122601   6.759   5.025   0.590 -0.3095  0.9249  0.9302
  370TIP3    H222602   6.707   5.161   0.551  0.1212  0.7636 -0.2632
  371TIP3   OH222603   6.842   4.821   5.222 -0.0168  0.5286  0.0036
  371TIP3    H122604   6.874   4.875   5.294 -0.1283 -0.3988  0.7721
  371TIP3    H222605   6.904   4.749   5.215 -0.9284 -0.3158  0.3190
  372TIP3   OH222606   4.276   4.740  13.978 -0.2304  0.1356  0.1765
  372TIP3    H122607   4.242   4.816  13.930 -0.8058  0.1111  0.5281
  372TIP3    H222608   4.292   4.675  13.911  1.1122  0.8611 -0.2322
  373TIP3   OH222609   4.011   4.730  11.986 -0.1711 -0.0403  0.5872
  373TIP3    H122610   4.061   4.669  12.039  0.5544  0.2782  0.2843
  373TIP3    H222611   3.992   4.683  11.905 -0.2299 -0.1087  0.6406
  374TIP3   OH222612   5.896   0.789  16.258  0.2755  0.2606  0.0596
  374TIP3    H122613   5.930   0.703  16.286 -0.9253 -0.4285 -0.5224
  374TIP3    H222614   5.849   0.822  16.335  2.5582  1.4672  1.0646
  375TIP3   OH222615   2.864   2.838   2.510  0.4591 -0.7837 -0.1867
  375TIP3    H122616   2.929   2.853   2.579  0.9693 -0.3002 -0.7567
  375TIP3    H222617   2.800   2.780   2.550  0.4424 -0.0631  0.8753
  376TIP3   OH222618   1.197   5.901   5.596  0.3633  0.1391 -0.5434
  376TIP3    H122619   1.260   5.863   5.534  1.6125  1.9193 -0.4538
  376TIP3    H222620   1.226   5.991   5.607 -1.2032  0.5229  0.8854
  377TIP3   OH222621   4.628   6.781  15.711  0.0442 -0.0051 -0.4816
  377TIP3    H122622   4.717   6.813  15.721 -0.1441  0.8307 -1.3564
  377TIP3    H222623   4.625   6.745  15.622  0.0656 -1.8887  0.2381
  378TIP3   OH222624   2.085   1.307   4.890 -0.2292  0.0487 -0.1868
  378TIP3    H122625   2.080   1.249   4.814 -4.0802 -0.8332  0.5570
  378TIP3    H222626   2.064   1.251   4.964  0.1708  1.5767  1.1273
  379TIP3   OH222627   2.631   2.978   2.511  0.2600 -0.1724 -0.0213
  379TIP3    H122628   2.711   2.934   2.482  0.9843  0.5938  0.7596
  379TIP3    H222629   2.621   3.051   2.450  0.7013  0.2894  0.4430
  380TIP3   OH222630   3.647   4.124  13.825  0.1974 -0.3489  0.3351
  380TIP3    H122631   3.625   4.053  13.886  3.0434 -1.1848  0.5242
  380TIP3    H222632   3.650   4.081  13.739 -1.8208  0.4076 -0.1564
  381TIP3   OH222633   3.648   4.361   2.899  0.3219  0.0394  0.1007
  381TIP3    H122634   3.731   4.342   2.855  0.9667  0.4951  1.1070
  381TIP3    H222635   3.670   4.370   2.991 -0.8213  0.3672  0.3628
  382TIP3   OH222636   1.849   0.441   3.008  0.1133 -0.4374  0.6033
  382TIP3    H122637   1.754   0.449   3.011  0.0878  1.4392 -1.8457
  382TIP3    H222638   1.865   0.349   2.990 -1.2978 -0.6342  0.2562
  383TIP3   OH222639   0.242   4.186  14.238 -0.3200  0.2379  0.4585
  383TIP3    H122640   0.336   4.165  14.238 -0.0979  1.1630 -0.4398
  383TIP3    H222641   0.239   4.281  14.244 -1.2283  0.1832  1.0663
  384TIP3   OH222642   6.722   6.272   2.535  0.9296 -0.1492  0.0576
  384TIP3    H122643   6.683   6.269   2.622  0.5090  0.7746 -0.0875
  384TIP3    H222644   6.786   6.342   2.539 -0.4351  1.2209 -0.8863
  385TIP3   OH222645   4.600   1.964   5.183  0.0991 -0.7876  0.2040
  385TIP3    H122646   4.526   1.905   5.195 -1.1291  0.5416 -0.5523
  385TIP3    H222647   4.583   2.008   5.099  2.4963 -1.4833 -0.7523
  386TIP3   OH222648   1.449   3.256  12.262 -0.0533  0.7271 -0.6408
  386TIP3    H122649   1.436   3.211  12.179  2.8073  1.6068 -1.7013
  386TIP3    H222650   1.395   3.334  12.256 -0.2786  0.5170 -1.4573
  387TIP3   OH222651   6.012   0.135   0.344  0.2651 -0.5899  0.1637
  387TIP3    H122652   6.074   0.109   0.276 -1.3068 -3.0744 -0.4379
  387TIP3    H222653   6.064   0.190   0.404  2.1034  0.3416 -2.1216
  388TIP3   OH222654   0.895   0.318   0.670 -0.4920  0.0644 -0.6885
  388TIP3    H122655   0.972   0.308   0.615 -0.7256 -1.6097 -0.7506
  388TIP3    H222656   0.882   0.413   0.677  3.0626  0.5852  1.4160
  389TIP3   OH222657   5.900   3.534  14.894  0.2772 -0.2312 -0.4518
  389TIP3    H122658   5.859   3.567  14.814 -1.3532  0.3695  0.5727
  389TIP3    H222659   5.981   3.494  14.865 -0.1364  0.2283 -2.3682
  390TIP3   OH222660   2.844   3.626   6.352 -0.0437 -0.2084 -0.1455
  390TIP3    H122661   2.759   3.633   6.396  0.0600  0.4076 -0.0326
  390TIP3    H222662   2.902   3.680   6.405  0.5037 -0.9049 -0.0256
  391TIP3   OH222663   0.661   5.217   4.024  0.1947  0.2493  0.5313
  391TIP3    H122664   0.730   5.197   4.087  2.3070  0.4487 -1.5385
  391TIP3    H222665   0.679   5.307   3.997 -0.5893  0.1540 -0.3607
  392TIP3   OH222666   1.944   1.839  15.814 -0.0664 -1.0596  0.0894
  392TIP3    H122667   1.964   1.836  15.720 -1.6885  1.8776 -0.4667
  392TIP3    H222668   1.894   1.919  15.825 -1.1379 -2.0379  3.2896
  393TIP3   OH222669   0.478   3.620  13.182  0.4468 -0.3377  0.1235
  393TIP3    H122670   0.405   3.681  13.172 -0.3416 -1.1961  0.4643
  393TIP3    H222671   0.554   3.668  13.151  0.0240  1.1717  1.2986
  394TIP3   OH222672   6.126   0.304   4.644  0.5557 -0.0983 -0.0655
  394TIP3    H122673   6.216   0.272   4.636  0.2897 -1.1234  0.7933
  394TIP3    H222674   6.122   0.346   4.729  0.3749  0.5068 -0.3639
  395TIP3   OH222675   1.208   3.037   5.218  0.6293 -1.1343 -0.0052
  395TIP3    H122676   1.223   3.122   5.176 -0.2173 -1.0928 -0.2312
  395TIP3    H222677   1.296   3.001   5.231  1.3041  1.2173  3.1429
  396TIP3   OH222678   2.968   5.702  16.451  0.4734  0.2051 -0.0505
  396TIP3    H122679   3.009   5.677  16.535  0.0484 -0.2316  0.0327
  396TIP3    H222680   3.039   5.695  16.387  0.2734 -1.7716 -0.1185
  397TIP3   OH222681   3.403   4.777  11.412 -0.1872  0.0976 -0.3587
  397TIP3    H122682   3.381   4.711  11.346  0.2887 -0.5759  0.1483
  397TIP3    H222683   3.319   4.818  11.433 -0.8911 -1.8692  0.9397
  398TIP3   OH222684   1.724   6.140  16.680  0.4818 -0.1165 -0.0416
  398TIP3    H122685   1.710   6.216  16.737  0.9257 -0.2671  0.2730
  398TIP3    H222686   1.640   6.128  16.636  0.2036  0.1445  0.4067
  399TIP3   OH222687   3.130   3.784  12.007 -0.0008  0.2236  0.6334
  399TIP3    H122688   3.171   3.697  12.017 -2.0677 -0.7289  1.5383
  399TIP3    H222689   3.104   3.788  11.916  2.0337  0.8733  0.0199
  400TIP3   OH222690   5.350   4.980   5.672 -0.2224 -0.2402 -0.1427
  400TIP3    H122691   5.436   5.021   5.679  0.2385 -1.3646  1.1681
  400TIP3    H222692   5.363   4.907   5.612 -0.4471 -0.0102 -0.4808
  401TIP3   OH222693   3.727   6.088   2.915  0.2522  0.0380 -0.7051
  401TIP3    H122694   3.650   6.042   2.881 -0.0068  2.1878 -3.4140
  401TIP3    H222695   3.692   6.151   2.978  0.3168 -1.5865  1.0222
  402TIP3   OH222696   6.202   3.319   4.910  0.3451  0.1775 -0.4171
  402TIP3    H122697   6.129   3.295   4.853 -0.6651 -0.6324  1.1443
  402TIP3    H222698   6.169   3.392   4.963  0.7114 -0.0617  0.1559
  403TIP3   OH222699   0.471   6.736   3.245  0.9101 -0.1043 -0.0602
  403TIP3    H122700   0.554   6.699   3.214  1.0121 -0.7742  0.9825
  403TIP3    H222701   0.492   6.826   3.268  1.5287 -0.4682  0.8597
  404TIP3   OH222702   4.050   2.666   1.460  0.1393  0.0266  0.0776
  404TIP3    H122703   4.007   2.725   1.522 -0.7801 -0.5552  0.0037
  404TIP3    H222704   3.979   2.627   1.409  0.7513 -0.8868 -0.1136
  405TIP3   OH222705   6.069   4.615   5.325 -0.3191  0.1842 -0.8973
  405TIP3    H122706   6.143   4.634   5.382 -0.2740 -0.2196 -0.8182
  405TIP3    H222707   6.094   4.535   5.278 -0.5347  0.2697 -1.1667
  406TIP3   OH222708   6.783   6.326  15.513  0.2560 -1.0352 -0.0932
  406TIP3    H122709   6.791   6.259  15.580  1.0594 -1.6058 -0.7493
  406TIP3    H222710   6.872   6.357  15.498 -0.0212 -0.2970 -0.2944
  407TIP3   OH222711   5.706   0.166   1.268  0.2715  0.3619 -0.7375
  407TIP3    H122712   5.656   0.085   1.267 -0.0861  0.4506  1.9668
  407TIP3    H222713   5.796   0.139   1.282 -0.1370  0.3237  3.0136
  408TIP3   OH222714   6.872   0.013   4.605  0.1246 -0.3303 -0.1731
  408TIP3    H122715   6.803   0.035   4.543 -1.9944 -1.6026  1.5872
  408TIP3    H222716   6.884  -0.081   4.596  2.0697 -0.0794 -0.7861
  409TIP3   OH222717   6.351   0.419  10.395 -0.9347 -0.0856 -0.5378
  409TIP3    H122718   6.405   0.355  10.442  0.2540  0.0192 -1.6835
  409TIP3    H222719   6.412   0.461  10.334 -1.8775  1.5330 -0.4236
  410TIP3   OH222720   4.715   6.724   2.227 -0.2726 -0.8201  0.0570
  410TIP3    H122721   4.678   6.779   2.296  2.2186  1.2540 -0.1361
  410TIP3    H222722   4.663   6.744   2.149  0.4873  1.2285  0.0306
  411TIP3   OH222723   0.870   2.038  16.640  0.1932 -0.3173 -0.0454
  411TIP3    H122724   0.966   2.037  16.647  0.3964  0.3909 -2.0652
  411TIP3    H222725   0.846   1.947  16.628  0.7494 -0.3936 -0.6569
  412TIP3   OH222726   3.814   5.690   4.490 -0.2183  0.2967  0.5628
  412TIP3    H122727   3.762   5.756   4.537 -1.2296  0.2090 -0.3921
  412TIP3    H222728   3.776   5.606   4.518 -0.0407  0.1900  0.4853
  413TIP3   OH222729   4.497   2.933  16.068  0.0093 -0.2646  0.2220
  413TIP3    H122730   4.404   2.954  16.062  0.2419  0.4547 -1.9876
  413TIP3    H222731   4.541   3.012  16.037  1.5199  0.2453  3.2858
  414TIP3   OH222732   1.368   4.913  14.146  0.4907  0.8104 -0.6859
  414TIP3    H122733   1.453   4.957  14.147 -0.0902  1.9992 -1.1568
  414TIP3    H222734   1.387   4.823  14.169  1.8814  1.0572 -0.7893
  415TIP3   OH222735   3.895   0.564   4.896  0.4567  0.3143  0.5024
  415TIP3    H122736   3.830   0.522   4.952 -0.2246 -0.7297 -1.0057
  415TIP3    H222737   3.865   0.654   4.887 -1.9947 -0.5801 -1.7326
  416TIP3   OH222738   6.415   4.487   3.902  0.1992  0.2485  0.4160
  416TIP3    H122739   6.373   4.514   3.984 -0.2868  0.6183  0.0547
  416TIP3    H222740   6.395   4.394   3.894 -0.7047  0.4554  0.1725
  417TIP3   OH222741   5.478   2.941   1.124  0.0450  0.1830  0.3439
  417TIP3    H122742   5.441   3.002   1.061  0.0648  0.7067  0.8364
  417TIP3    H222743   5.511   2.869   1.070 -2.2575 -0.6481 -0.0880
  418TIP3   OH222744   6.390   3.321   1.621  0.3171  0.0309  0.2097
  418TIP3    H122745   6.438   3.348   1.699 -0.0483 -0.1050  0.4858
  418TIP3    H222746   6.308   3.370   1.625  0.4436  0.2954 -0.2815
  419TIP3   OH222747   0.830   1.429   0.861  0.5231  0.2020 -0.3447
  419TIP3    H122748   0.890   1.386   0.924  0.0971 -0.1301 -0.1598
  419TIP3    H222749   0.869   1.410   0.775  0.9526  0.4100 -0.1983
  420TIP3   OH222750   2.729   6.070  10.917  0.2389 -0.3550 -0.0121
  420TIP3    H122751   2.701   6.148  10.869 -1.1084 -0.5957  0.3359
  420TIP3    H222752   2.716   6.092  11.009 -0.6090 -1.1375  0.0720
  421TIP3   OH222753   4.630   0.239   5.134  0.0326 -0.2329 -0.4965
  421TIP3    H122754   4.659   0.327   5.111  2.0650 -0.3665  1.2593
  421TIP3    H222755   4.538   0.236   5.107 -1.0260  3.4841  2.0201
  422TIP3   OH222756   0.072   2.585  11.344 -0.3645 -0.2646  0.1852
  422TIP3    H122757   0.153   2.540  11.319 -0.8964 -1.0640 -0.1305
  422TIP3    H222758   0.062   2.565  11.438 -0.7575 -1.0819 -0.0198
  423TIP3   OH222759   3.072   3.407  16.014  0.3190 -0.2051  0.2986
  423TIP3    H122760   3.098   3.449  15.932 -0.5840 -0.3774 -0.0796
  423TIP3    H222761   3.154   3.397  16.062  0.9264 -0.5172 -0.7670
  424TIP3   OH222762   5.191   2.765  14.867  0.5476 -0.7424 -0.1953
  424TIP3    H122763   5.206   2.812  14.785  1.8587 -0.5422  0.1413
  424TIP3    H222764   5.097   2.745  14.866  0.3003  0.3415 -1.1571
  425TIP3   OH222765   1.041   2.595  14.114  0.2584  0.3217 -0.4002
  425TIP3    H122766   1.056   2.622  14.204 -2.0916 -0.7558  0.4031
  425TIP3    H222767   1.004   2.672  14.071 -1.4707  0.0136  0.4424
  426TIP3   OH222768   1.731   1.326  16.891  0.2906 -0.5752  0.2435
  426TIP3    H122769   1.654   1.325  16.949  0.7679 -1.4114  0.8791
  426TIP3    H222770   1.790   1.388  16.932  0.6015 -1.1184  0.6292
  427TIP3   OH222771   3.863   1.943  14.129  0.3363 -0.1144 -0.2153
  427TIP3    H122772   3.851   1.878  14.199  1.7897 -1.3917 -1.0960
  427TIP3    H222773   3.930   2.002  14.163 -2.7443  2.6582  1.6802
  428TIP3   OH222774   1.044   2.562   1.343  0.0291 -0.1125 -0.3465
  428TIP3    H122775   1.077   2.611   1.268 -1.5323  1.1932 -0.2198
  428TIP3    H222776   1.014   2.628   1.404  0.8097 -1.1743  1.2665
  429TIP3   OH222777   5.394   5.197  11.955  0.7058  0.8539  0.0810
  429TIP3    H122778   5.305   5.215  11.927  1.4572  2.7867 -1.2533
  429TIP3    H222779   5.386   5.181  12.050 -1.1542 -0.1964 -0.1962
  430TIP3   OH222780   5.927   6.606  10.162 -0.3349  0.4258 -0.2877
  430TIP3    H122781   5.980   6.592  10.240  0.8060 -0.7678 -1.2325
  430TIP3    H222782   5.937   6.699  10.142  1.5680  0.2103 -0.5233
  431TIP3   OH222783   1.463   3.344  15.241 -0.2795  0.3353 -0.2150
  431TIP3    H122784   1.496   3.301  15.162 -0.8304 -0.9339  0.2200
  431TIP3    H222785   1.434   3.430  15.210 -2.2008 -0.7828 -1.8341
  432TIP3   OH222786   5.951   2.185  13.706 -0.0039 -0.1775 -0.1856
  432TIP3    H122787   5.884   2.239  13.665  0.9068 -0.2910 -1.9183
  432TIP3    H222788   5.903   2.120  13.756 -1.1528  0.5794 -0.2705
  433TIP3   OH222789   0.263   5.577   5.301  0.0974  0.0447  0.0676
  433TIP3    H122790   0.348   5.600   5.338  0.2579 -0.9077  0.3282
  433TIP3    H222791   0.201   5.635   5.346  0.4100 -0.4415  1.1832
  434TIP3   OH222792   5.668   3.690   3.999 -0.2341  0.6426 -0.0123
  434TIP3    H122793   5.603   3.733   4.055 -1.2238  0.7621 -1.2156
  434TIP3    H222794   5.741   3.671   4.058 -0.3415  2.6945  0.8835
  435TIP3   OH222795   4.685   3.114   5.659  0.0803 -0.4502  0.1221
  435TIP3    H122796   4.732   3.159   5.589  0.1112 -0.5188  0.0987
  435TIP3    H222797   4.599   3.094   5.622  0.2378 -0.8430 -0.0305
  436TIP3   OH222798   1.155   2.444  11.617  0.4421  0.3024 -0.1442
  436TIP3    H122799   1.236   2.491  11.640  0.1647  1.0635 -0.6838
  436TIP3    H222800   1.090   2.479  11.678  0.6124 -0.6804  0.6348
  437TIP3   OH222801   1.095   3.663  14.611 -0.3637 -0.3394  0.0760
  437TIP3    H122802   1.080   3.756  14.595 -1.4541 -0.1067  2.1389
  437TIP3    H222803   1.183   3.646  14.576  0.6095  1.8813  1.2680
  438TIP3   OH222804   4.704   2.893  14.971 -0.5054  0.2740  0.2227
  438TIP3    H122805   4.786   2.911  15.017 -0.3033  1.8574 -0.6907
  438TIP3    H222806   4.731   2.876  14.880 -0.9439 -2.2687  0.4794
  439TIP3   OH222807   2.619   4.829   4.888 -0.2689 -0.1064  0.0465
  439TIP3    H122808   2.605   4.867   4.975  2.8346  0.9110  0.2193
  439TIP3    H222809   2.658   4.900   4.837 -0.3486 -1.2311 -1.6560
  440TIP3   OH222810   2.261   0.586  10.585 -0.3632  0.2349  0.0630
  440TIP3    H122811   2.317   0.526  10.535  0.0647  0.1427  0.6424
  440TIP3    H222812   2.307   0.670  10.579  0.3535 -0.0398  1.3223
  441TIP3   OH222813   0.948   3.286   0.568 -0.1111 -0.0954 -0.4489
  441TIP3    H122814   0.854   3.299   0.556  0.0562  1.1305 -0.5740
  441TIP3    H222815   0.958   3.272   0.663 -0.3995 -0.1339 -0.4234
  442TIP3   OH222816   0.041   3.275   6.171 -0.4815 -0.4775  0.4188
  442TIP3    H122817   0.030   3.343   6.106 -0.1340 -0.6861  0.1355
  442TIP3    H222818   0.041   3.193   6.121 -0.5670 -0.6636  0.7171
  443TIP3   OH222819   2.641   6.019  15.797 -0.2511  0.5341 -0.7886
  443TIP3    H122820   2.630   6.003  15.891 -1.3284  1.1556 -0.7854
  443TIP3    H222821   2.611   6.109  15.784  2.8945  1.6252 -1.2559
  444TIP3   OH222822   6.623   0.230  14.132 -0.0361  0.4732 -0.3791
  444TIP3    H122823   6.648   0.171  14.203 -0.6023  2.2176  1.3577
  444TIP3    H222824   6.562   0.292  14.172  1.5969  3.1217 -1.6913
  445TIP3   OH222825   3.614   5.209  16.172 -0.8458 -0.2682 -0.4359
  445TIP3    H122826   3.637   5.254  16.091 -0.6339  1.9639  0.7875
  445TIP3    H222827   3.569   5.275  16.225 -0.7405 -1.5629  1.3775
  446TIP3   OH222828   2.180   4.829  12.302  0.1519  0.4854  0.0170
  446TIP3    H122829   2.151   4.919  12.284 -1.0154 -0.1815 -1.8017
  446TIP3    H222830   2.248   4.812  12.236 -0.0738 -0.1462 -0.0594
  447TIP3   OH222831   1.716   5.399   3.888 -0.1004 -0.3089  0.0279
  447TIP3    H122832   1.771   5.331   3.850  0.0633  0.1532 -0.5895
  447TIP3    H222833   1.685   5.450   3.813 -0.0009  0.4547  0.4868
  448TIP3   OH222834   1.423   3.299   1.267  0.4533 -0.5296 -0.3236
  448TIP3    H122835   1.445   3.230   1.330 -2.2372 -1.9348 -0.8129
  448TIP3    H222836   1.356   3.261   1.211 -0.7667  2.3170 -0.9668
  449TIP3   OH222837   0.681   1.307  15.452  0.1372 -0.1076  0.4931
  449TIP3    H122838   0.765   1.276  15.485  1.4981  2.1491 -0.6613
  449TIP3    H222839   0.663   1.386  15.503  1.4457  2.4776 -2.7069
  450TIP3   OH222840   1.706   0.796   5.492  0.0414 -0.5674 -0.0259
  450TIP3    H122841   1.677   0.885   5.514  1.6093 -0.0466  0.0112
  450TIP3    H222842   1.716   0.752   5.576  3.0552  0.4779  0.2757
  451TIP3   OH222843   5.766   2.027  13.524  0.4057 -0.0552  0.2704
  451TIP3    H122844   5.709   2.006  13.450 -1.4106 -0.3865  1.6909
  451TIP3    H222845   5.803   1.942  13.550  2.1125  0.2292 -1.0002
  452TIP3   OH222846   3.909   0.826  13.428  0.2446  0.7451 -0.6540
  452TIP3    H122847   3.827   0.834  13.380 -1.0761  4.1258  1.8033
  452TIP3    H222848   3.890   0.763  13.498 -0.4655  1.8223  0.1530
  453TIP3   OH222849   5.651   2.660  12.771 -0.0983  0.4410 -0.1785
  453TIP3    H122850   5.599   2.720  12.719 -1.6174  0.3579  1.1593
  453TIP3    H222851   5.634   2.573  12.734 -0.1260  0.5298 -0.3688
  454TIP3   OH222852   0.611   3.708   5.649  0.0506  0.5321  0.1586
  454TIP3    H122853   0.572   3.767   5.714 -2.1065  1.0468 -1.4870
  454TIP3    H222854   0.536   3.677   5.597  1.5655 -0.7281 -1.3742
  455TIP3   OH222855   2.112   4.057  16.580 -0.4273  1.2599 -0.5122
  455TIP3    H122856   2.079   4.089  16.496  1.4296 -0.9498 -2.2174
  455TIP3    H222857   2.207   4.067  16.574 -0.2360  0.7750  1.2247
  456TIP3   OH222858   6.224   2.055   5.590  0.2678 -0.2411 -0.4462
  456TIP3    H122859   6.273   2.116   5.535 -3.3976 -0.3680 -4.3197
  456TIP3    H222860   6.155   2.108   5.630 -0.2434 -1.0831 -0.1740
  457TIP3   OH222861   3.376   3.984   5.950  0.2232 -0.1307 -0.3295
  457TIP3    H122862   3.355   3.939   6.031  2.2738  1.2024  1.0498
  457TIP3    H222863   3.438   3.925   5.906  2.5804  0.9721  1.2757
  458TIP3   OH222864   4.531   0.543  13.115  0.1155  0.1759 -0.0632
  458TIP3    H122865   4.438   0.541  13.134  0.1890  2.5460  0.9660
  458TIP3    H222866   4.564   0.457  13.141 -1.2170  0.4614  3.0010
  459TIP3   OH222867   5.917   1.556  11.539  0.0993  0.2178  0.1487
  459TIP3    H122868   5.928   1.592  11.450  1.7097  0.0382  0.2475
  459TIP3    H222869   5.866   1.623  11.585  0.5087  1.0025 -0.5035
  460TIP3   OH222870   5.955   0.447  10.909  0.2259  0.7189  0.0205
  460TIP3    H122871   5.994   0.534  10.896  0.3123  0.5341 -1.0974
  460TIP3    H222872   5.974   0.401  10.827  2.7313 -1.3794  1.6468
  461TIP3   OH222873   2.977   2.036  16.570 -0.1030 -0.3853  0.3130
  461TIP3    H122874   2.926   2.015  16.648 -0.7368  0.0795  0.0399
  461TIP3    H222875   2.919   2.092  16.519  0.0077 -1.3159 -0.8597
  462TIP3   OH222876   3.749   0.436  10.759 -0.0945  0.1340  0.2610
  462TIP3    H122877   3.741   0.439  10.663  2.4781 -1.3301 -0.1080
  462TIP3    H222878   3.765   0.526  10.785 -0.4622  0.4985 -0.7450
  463TIP3   OH222879   1.413   5.961  14.412  0.1336 -0.1343 -0.4013
  463TIP3    H122880   1.428   5.871  14.440  0.2457 -0.1832 -0.6140
  463TIP3    H222881   1.327   5.959  14.369  0.9704 -0.5656 -2.1624
  464TIP3   OH222882   6.229   4.068   1.066  0.4405 -0.2419 -0.0057
  464TIP3    H122883   6.287   4.143   1.078  2.9743 -1.7327 -1.7339
  464TIP3    H222884   6.184   4.058   1.149  1.6126  1.9260  0.9578
  465TIP3   OH222885   0.578   2.395  12.932 -0.0496  0.2318 -0.1361
  465TIP3    H122886   0.520   2.401  12.857  0.0737 -0.2533 -0.2729
  465TIP3    H222887   0.553   2.469  12.988 -0.0193  0.7082 -0.7334
  466TIP3   OH222888   5.316   0.809   3.477  0.1997 -0.4093 -0.0032
  466TIP3    H122889   5.291   0.877   3.415  1.4278  0.4333  0.3917
  466TIP3    H222890   5.312   0.728   3.427 -0.2033  0.0870 -0.7873
  467TIP3   OH222891   1.871   4.568  12.713 -0.1495 -0.1236  0.1648
  467TIP3    H122892   1.903   4.621  12.787 -0.0676  0.2284 -0.1184
  467TIP3    H222893   1.925   4.489  12.715 -1.0580 -0.7423  1.3021
  468TIP3   OH222894   0.263   5.719  13.450 -0.0080 -0.1635  0.3419
  468TIP3    H122895   0.170   5.722  13.470 -0.0157 -0.0876  0.2974
  468TIP3    H222896   0.276   5.790  13.387  0.0842 -0.1584  0.3665
  469TIP3   OH222897   0.727   2.724  11.764 -0.1704 -0.4074 -0.1380
  469TIP3    H122898   0.718   2.721  11.669 -0.3787 -0.3308 -0.1211
  469TIP3    H222899   0.813   2.764  11.779 -0.6304  0.6902 -0.2894
  470TIP3   OH222900   3.332   4.245  11.687  0.2885 -0.0484  0.2260
  470TIP3    H122901   3.317   4.185  11.760 -0.8694 -0.4725 -0.3377
  470TIP3    H222902   3.252   4.296  11.680  0.7842  0.7063 -0.1033
  471TIP3   OH222903   5.075   0.158   2.972 -0.1506  0.2442  0.4988
  471TIP3    H122904   5.052   0.084   2.917 -0.9794  1.6773 -1.1912
  471TIP3    H222905   5.121   0.120   3.046 -1.5665 -2.0424  0.2866
  472TIP3   OH222906   1.876   0.743  12.028 -0.2213  0.3458 -0.5944
  472TIP3    H122907   1.929   0.666  12.050  0.6085  1.1671  0.3374
  472TIP3    H222908   1.920   0.781  11.952 -0.6419 -0.0839 -1.0672
  473TIP3   OH222909   0.242   3.935  14.474  0.4200 -0.6552  0.0563
  473TIP3    H122910   0.315   3.984  14.435  0.2609 -1.1417 -0.8859
  473TIP3    H222911   0.279   3.897  14.554  0.6297  0.7110  0.6305
  474TIP3   OH222912   6.064   2.637   1.063 -0.0354 -0.5000 -0.7031
  474TIP3    H122913   6.007   2.714   1.062  1.9539  1.0705  0.1815
  474TIP3    H222914   6.054   2.601   1.151  1.3127  0.6158 -0.0522
  475TIP3   OH222915   3.139   2.378  10.675  0.6623  0.3570 -0.3637
  475TIP3    H122916   3.206   2.443  10.655  1.4514 -0.8629 -1.9403
  475TIP3    H222917   3.183   2.293  10.662 -1.2682 -0.4836 -1.9300
  476TIP3   OH222918   3.099   6.650  10.896 -0.1298 -0.4054 -0.2868
  476TIP3    H122919   3.135   6.721  10.950  0.6352  1.4294 -3.0195
  476TIP3    H222920   3.176   6.604  10.863 -0.5183 -0.6926 -0.8013
  477TIP3   OH222921   5.102   4.276   1.170  0.6486  0.0907 -0.1813
  477TIP3    H122922   5.174   4.329   1.205 -0.2699  0.0474  1.9249
  477TIP3    H222923   5.063   4.330   1.102  2.0102  0.5332 -0.6460
  478TIP3   OH222924   3.694   2.424   0.242  0.1590 -0.5927 -0.0292
  478TIP3    H122925   3.733   2.470   0.316  0.9446 -1.7610  0.3059
  478TIP3    H222926   3.750   2.447   0.167 -1.2936  1.5162 -0.5611
  479TIP3   OH222927   0.465   1.295  13.453 -0.5144 -0.2017  0.1853
  479TIP3    H122928   0.508   1.248  13.382 -0.3868  1.6856 -1.0412
  479TIP3    H222929   0.533   1.307  13.519 -0.2837 -0.8279  0.0669
  480TIP3   OH222930   4.030   5.362  13.586  0.1580 -0.0971  0.2383
  480TIP3    H122931   3.969   5.390  13.517 -1.0723  0.3733  1.4691
  480TIP3    H222932   4.041   5.439  13.641  0.7794 -0.5885  0.8059
  481TIP3   OH222933   2.092   3.281  14.054 -0.2263 -0.1978 -0.5096
  481TIP3    H122934   2.005   3.304  14.087 -0.7812  1.3637 -2.8335
  481TIP3    H222935   2.150   3.347  14.094 -0.2525 -0.5962  0.2099
  482TIP3   OH222936   2.625   3.077   5.105  0.4891  0.0203 -0.2055
  482TIP3    H122937   2.716   3.080   5.136 -0.1121  0.4716  1.6290
  482TIP3    H222938   2.592   2.992   5.135  0.2738 -0.1347 -0.8505
  483TIP3   OH222939   1.293   1.121  16.203  0.4194 -0.1536  0.1942
  483TIP3    H122940   1.372   1.176  16.193  0.9209 -0.7440  0.8579
  483TIP3    H222941   1.279   1.116  16.297 -0.8650  0.5492  0.0653
  484TIP3   OH222942   0.150   1.700   1.058 -0.1758 -0.6522 -0.9093
  484TIP3    H122943   0.084   1.678   0.992  0.2630 -2.1774 -0.8901
  484TIP3    H222944   0.196   1.617   1.074 -0.0699 -0.2667  1.0988
  485TIP3   OH222945   3.621   1.845   5.374  0.4978  0.5789 -0.0723
  485TIP3    H122946   3.677   1.845   5.297 -0.8212  0.2944 -1.0556
  485TIP3    H222947   3.572   1.763   5.368  0.3047  0.5899  1.0312
  486TIP3   OH222948   4.548   2.181   4.293  0.3580 -0.6398 -0.4242
  486TIP3    H122949   4.631   2.226   4.277  1.3619 -1.1779  2.6293
  486TIP3    H222950   4.485   2.226   4.236  1.8986  2.6179  0.2098
  487TIP3   OH222951   6.254   3.169  16.871 -0.0799 -0.0227  0.1104
  487TIP3    H122952   6.171   3.128  16.895 -1.1996  0.7277 -2.2046
  487TIP3    H222953   6.262   3.153  16.777  2.2579  0.2270  0.2133
  488TIP3   OH222954   2.801   1.283  15.507  0.2482 -0.1497 -0.4622
  488TIP3    H122955   2.845   1.206  15.541  1.2106  0.9534  0.8810
  488TIP3    H222956   2.711   1.277  15.541  0.1653 -0.9044 -0.7890
  489TIP3   OH222957   1.167   2.193  16.601  0.1577 -0.1539 -0.0686
  489TIP3    H122958   1.226   2.252  16.554  2.4477 -0.9968  1.5817
  489TIP3    H222959   1.130   2.137  16.532  1.3594  0.3435 -1.1667
  490TIP3   OH222960   3.326   3.134  11.580  0.6951 -0.4129  0.4082
  490TIP3    H122961   3.334   3.229  11.569  1.2015 -0.5315 -0.3532
  490TIP3    H222962   3.235   3.115  11.558  0.0677  0.1075  2.3668
  491TIP3   OH222963   0.059   1.211   3.818 -0.0655 -0.3190 -0.0051
  491TIP3    H122964   0.128   1.277   3.815  0.0776 -0.4339  0.6263
  491TIP3    H222965   0.067   1.165   3.735  1.0670 -0.7733  0.3287
  492TIP3   OH222966   5.510   2.211  11.564 -0.6028  0.3573 -0.1793
  492TIP3    H122967   5.420   2.215  11.534 -0.7788  0.1313  0.3033
  492TIP3    H222968   5.563   2.237  11.488 -1.0054 -0.5942 -0.7969
  493TIP3   OH222969   4.461   4.992   5.172  0.4440 -0.4626  0.0804
  493TIP3    H122970   4.522   5.054   5.133  0.5321 -0.6416 -0.0689
  493TIP3    H222971   4.374   5.024   5.147  0.4587  0.0325  0.6535
  494TIP3   OH222972   5.901   1.737   4.474  0.5068 -0.0146  0.1965
  494TIP3    H122973   5.877   1.656   4.428 -0.3756  0.2332  0.2140
  494TIP3    H222974   5.931   1.707   4.560 -0.5980 -0.2779  0.5058
  495TIP3   OH222975   5.798   1.181  16.823  0.4197 -0.2874  0.2617
  495TIP3    H122976   5.884   1.157  16.858  1.5681 -0.2260 -2.3071
  495TIP3    H222977   5.778   1.112  16.760 -1.2415 -0.0591  0.5085
  496TIP3   OH222978   3.942   5.830  14.814  0.1582  0.1819 -0.2681
  496TIP3    H122979   3.960   5.848  14.722 -1.9903  1.2403 -0.5486
  496TIP3    H222980   3.912   5.914  14.850 -2.5816 -0.9663  0.3995
  497TIP3   OH222981   6.787   3.942   3.102  0.1178  0.5042 -0.0761
  497TIP3    H122982   6.813   4.006   3.168  1.0922 -0.2392  0.2784
  497TIP3    H222983   6.800   3.988   3.019  0.7985  0.7680  0.1716
  498TIP3   OH222984   3.362   4.553   1.787  0.7521 -0.4319  0.8165
  498TIP3    H122985   3.366   4.457   1.794 -1.5262 -0.4720  2.4917
  498TIP3    H222986   3.270   4.574   1.803  1.5500  2.1904  2.4698
  499TIP3   OH222987   0.718   5.540   3.645 -0.1078  0.0809 -0.5187
  499TIP3    H122988   0.801   5.589   3.648 -0.1843  0.2193  2.6379
  499TIP3    H222989   0.718   5.488   3.725 -3.0220 -0.0256 -0.4941
  500TIP3   OH222990   4.280   1.743  13.814 -0.0445  0.5290 -1.0388
  500TIP3    H122991   4.281   1.648  13.802 -1.1492  0.2750  0.5844
  500TIP3    H222992   4.371   1.766  13.833 -0.1684 -0.6433  1.3228
  501TIP3   OH222993   2.772   1.260  12.817 -0.0235  0.4396  0.1185
  501TIP3    H122994   2.862   1.291  12.824 -0.1958  0.8913  0.3374
  501TIP3    H222995   2.762   1.236  12.725  0.1723  0.8367 -0.0059
  502TIP3   OH222996   0.756   5.367  15.159 -0.4169  0.6651  0.8066
  502TIP3    H122997   0.727   5.449  15.118 -0.5712 -0.0550 -0.5863
  502TIP3    H222998   0.767   5.389  15.251 -0.0644  2.3549  0.3922
  503TIP3   OH222999   4.000   2.095  11.671 -0.4460  0.0713 -0.8359
  503TIP3    H123000   4.056   2.120  11.745 -0.8630  0.3997 -0.6253
  503TIP3    H223001   3.945   2.025  11.705  1.3441 -1.8589 -1.6918
  504TIP3   OH223002   0.735   5.336   0.888 -0.3711 -0.0277  0.0262
  504TIP3    H123003   0.716   5.372   0.975 -1.2352  2.2826 -1.0355
  504TIP3    H223004   0.689   5.252   0.887 -0.5679  0.0256  1.7088
  505TIP3   OH223005   5.593   5.453  12.105 -0.8634  0.3117  0.1622
  505TIP3    H123006   5.629   5.431  12.020 -1.1048 -0.3287  0.2255
  505TIP3    H223007   5.658   5.422  12.168 -1.7054 -1.2483  0.2960
  506TIP3   OH223008   4.673   4.168   5.759  0.3519 -0.5086  0.1042
  506TIP3    H123009   4.728   4.212   5.824  0.4343 -0.7881  0.2256
  506TIP3    H223010   4.617   4.238   5.724 -0.2419 -0.4983  1.0330
  507TIP3   OH223011   2.152   4.039  15.903 -0.2215  0.1990  0.9434
  507TIP3    H123012   2.190   3.993  15.828  0.9353  1.3062  0.8242
  507TIP3    H223013   2.103   3.971  15.950 -1.6974 -0.3467 -1.2362
  508TIP3   OH223014   3.459   2.319   3.637  0.1203  0.0939  0.1336
  508TIP3    H123015   3.371   2.315   3.673 -0.0441 -0.5392 -0.3463
  508TIP3    H223016   3.484   2.411   3.648 -1.3475  0.7282 -1.5152
  509TIP3   OH223017   5.865   1.883   4.028 -0.1404  0.0216  0.2219
  509TIP3    H123018   5.914   1.824   4.086  1.0204 -2.2972 -2.8805
  509TIP3    H223019   5.790   1.832   3.999 -0.6474  1.0945 -0.4093
  510TIP3   OH223020   3.050   1.039   0.999 -0.1709 -0.0173 -0.2613
  510TIP3    H123021   3.019   1.125   0.971 -0.9948 -0.1917  0.0617
  510TIP3    H223022   2.973   0.982   0.989 -0.1084 -0.3691  1.0285
  511TIP3   OH223023   3.837   1.017  16.545  0.1684  0.1278  0.2553
  511TIP3    H123024   3.758   1.070  16.538 -0.0920 -0.3361 -0.3621
  511TIP3    H223025   3.907   1.075  16.516  0.2641  0.9654  1.9963
  512TIP3   OH223026   5.188   4.671  13.426 -0.3475  0.6541  0.0768
  512TIP3    H123027   5.104   4.633  13.400  1.1833 -2.6023 -0.5552
  512TIP3    H223028   5.242   4.666  13.347  1.2069  0.2756  1.1224
  513TIP3   OH223029   0.397   0.786   2.564 -0.5995 -0.0613  0.1084
  513TIP3    H123030   0.428   0.801   2.475 -0.7621  0.2184  0.0995
  513TIP3    H223031   0.382   0.873   2.600 -0.2091 -0.1631  0.5262
  514TIP3   OH223032   4.795   0.927   5.889  0.2389  0.3330  0.1357
  514TIP3    H123033   4.763   0.874   5.815 -0.9951  0.2582  0.6869
  514TIP3    H223034   4.865   0.981   5.852 -1.3910  1.4532 -1.4993
  515TIP3   OH223035   3.654   1.934   3.087 -0.0685  0.4297  0.3353
  515TIP3    H123036   3.635   1.951   3.180  0.7971 -1.7410  0.9778
  515TIP3    H223037   3.593   1.865   3.063  2.0704 -1.5937  0.3952
  516TIP3   OH223038   1.999   3.860  12.052 -0.1299 -0.8691 -0.3154
  516TIP3    H123039   2.018   3.878  12.144  0.9785  0.9843 -0.8519
  516TIP3    H223040   1.906   3.879  12.042  0.1914  1.0626  0.0122
  517TIP3   OH223041   2.631   3.916   3.351  0.1450 -0.1540  0.2948
  517TIP3    H123042   2.669   3.985   3.297  1.5765 -0.9051  0.3034
  517TIP3    H223043   2.705   3.877   3.396 -0.3537 -2.8113 -0.9725
  518TIP3   OH223044   5.972   4.376   0.299  0.2861 -0.0386  0.0966
  518TIP3    H123045   6.005   4.410   0.381  1.9282 -0.1554 -0.4901
  518TIP3    H223046   5.960   4.453   0.243 -2.5885  0.2757  0.9551
  519TIP3   OH223047   2.716   1.998   1.482 -0.2251 -0.2253  0.0433
  519TIP3    H123048   2.784   1.930   1.481 -0.1453 -0.1436 -0.0688
  519TIP3    H223049   2.679   1.994   1.570 -0.5353 -0.7295 -0.1050
  520TIP3   OH223050   6.716   5.309  16.430  0.1704 -0.3182 -0.2922
  520TIP3    H123051   6.633   5.263  16.415  0.0752  0.3229 -2.0133
  520TIP3    H223052   6.753   5.268  16.507 -0.7795 -2.0191 -0.6872
  521TIP3   OH223053   4.540   0.052   0.209  0.0515  0.3693  0.2893
  521TIP3    H123054   4.616   0.060   0.268  0.4676 -1.8961  0.1288
  521TIP3    H223055   4.559  -0.025   0.156 -1.2791  1.1678 -1.4472
  522TIP3   OH223056   3.142   3.769  13.825  0.2726 -0.5800 -0.3304
  522TIP3    H123057   3.100   3.800  13.905  0.9564 -0.7418  0.1001
  522TIP3    H223058   3.069   3.747  13.767 -0.2755  2.0679 -0.7762
  523TIP3   OH223059   6.842   2.984  13.664  0.3105  0.9611 -0.8213
  523TIP3    H123060   6.885   3.069  13.675  1.3778  0.5890 -1.8969
  523TIP3    H223061   6.855   2.940  13.749  1.2030  1.2539 -0.7894
  524TIP3   OH223062   4.170   6.812  15.136  0.0169  0.2675  0.3203
  524TIP3    H123063   4.097   6.772  15.183 -1.3220  1.0058 -1.0712
  524TIP3    H223064   4.208   6.740  15.085 -0.4705  0.1275  0.1538
  525TIP3   OH223065   2.850   5.542   5.602 -0.2191  0.5809  0.1349
  525TIP3    H123066   2.799   5.609   5.557 -0.4459 -0.3731 -1.0715
  525TIP3    H223067   2.939   5.578   5.604  0.2932 -0.1862 -3.0603
  526TIP3   OH223068   2.715   2.962  16.361  0.0935 -0.2557 -0.1750
  526TIP3    H123069   2.692   3.050  16.390  0.8934 -0.2977  0.6315
  526TIP3    H223070   2.660   2.904  16.415  1.0175 -0.3049  0.7507
  527TIP3   OH223071   0.343   2.343  11.971  0.6957 -0.5881 -0.6221
  527TIP3    H123072   0.295   2.367  12.050  1.1787  1.8628 -0.9916
  527TIP3    H223073   0.284   2.285  11.923 -0.7813  0.1606  0.2128
  528TIP3   OH223074   0.603   4.865   1.632 -0.2749  0.2364 -0.5134
  528TIP3    H123075   0.613   4.857   1.727  0.7281 -1.1774 -0.7035
  528TIP3    H223076   0.510   4.848   1.616 -0.5874  1.1333  0.2492
  529TIP3   OH223077   0.092   0.624  16.184 -0.6897 -0.8494 -0.0885
  529TIP3    H123078   0.000   0.641  16.208 -0.4198 -0.2893  0.6139
  529TIP3    H223079   0.120   0.555  16.244 -0.0266  0.5163  1.2550
  530TIP3   OH223080   2.841   5.464   1.712  0.2163  0.2542 -0.7602
  530TIP3    H123081   2.842   5.462   1.616 -1.7238 -0.0911 -0.8228
  530TIP3    H223082   2.811   5.552   1.734  3.4309  1.3749 -0.3185
  531TIP3   OH223083   3.830   4.925   1.973 -0.1862  0.2673 -0.4389
  531TIP3    H123084   3.849   4.917   2.066 -1.3093 -0.3362 -0.2395
  531TIP3    H223085   3.914   4.914   1.930  0.2268 -0.2579  0.4696
  532TIP3   OH223086   1.504   4.061   5.775 -0.0183 -0.7907 -0.3310
  532TIP3    H123087   1.430   4.032   5.828  0.1215 -3.7535 -1.5248
  532TIP3    H223088   1.580   4.023   5.818  0.2789 -1.7001 -1.5876
  533TIP3   OH223089   1.007   1.334   0.660 -0.1987  0.0812 -0.0614
  533TIP3    H123090   0.973   1.371   0.579  1.0652  0.0082 -0.6316
  533TIP3    H223091   1.086   1.385   0.679 -2.1484  2.4046  2.9241
  534TIP3   OH223092   1.015   2.968   4.209  0.1039  0.1550  0.0330
  534TIP3    H123093   0.929   2.974   4.252  0.1529  1.3584  0.0049
  534TIP3    H223094   1.038   2.875   4.214 -1.2694 -0.2160 -0.1028
  535TIP3   OH223095   6.475   5.445   3.444  0.4050 -0.1152 -0.0354
  535TIP3    H123096   6.470   5.361   3.491  0.6068 -0.1209 -0.0245
  535TIP3    H223097   6.425   5.506   3.499 -1.1654 -0.5970 -0.8588
  536TIP3   OH223098   6.339   2.508  11.044 -0.2797 -0.0816  0.0129
  536TIP3    H123099   6.370   2.425  11.080 -0.5561  0.0421  0.5626
  536TIP3    H223100   6.317   2.489  10.953  2.0463 -0.0025 -0.6055
  537TIP3   OH223101   5.200   2.663  12.762 -0.0651 -0.0323  0.4193
  537TIP3    H123102   5.215   2.622  12.847 -0.3410 -1.2531 -0.0960
  537TIP3    H223103   5.227   2.597  12.698 -0.3725  0.6565 -0.4465
  538TIP3   OH223104   3.465   1.461   3.780  0.0285  0.3198 -0.2248
  538TIP3    H123105   3.484   1.378   3.824 -0.6629  0.3360  0.1088
  538TIP3    H223106   3.551   1.493   3.753  0.5136  0.4712  1.4049
  539TIP3   OH223107   3.555   5.132  13.509 -0.0529  0.0302  0.0939
  539TIP3    H123108   3.513   5.050  13.538 -0.6305  0.1480 -0.3893
  539TIP3    H223109   3.629   5.103  13.456  0.6909 -0.1840  1.2350
  540TIP3   OH223110   1.757   6.013   2.060 -0.2177  0.4071  0.4842
  540TIP3    H123111   1.791   5.990   2.147 -0.7416 -0.1638  0.5448
  540TIP3    H223112   1.677   6.063   2.078  0.4384  1.5343  0.3402
  541TIP3   OH223113   6.056   3.929   5.133  0.1679 -0.3691 -0.0207
  541TIP3    H123114   6.101   3.854   5.095  0.1875 -0.2600 -0.2140
  541TIP3    H223115   6.008   3.893   5.207  0.2279 -0.5621 -0.0753
  542TIP3   OH223116   0.748   5.256   0.623  0.2723  0.0135 -0.1832
  542TIP3    H123117   0.762   5.267   0.717 -0.6917 -4.9475  0.8512
  542TIP3    H223118   0.654   5.266   0.611  0.3386  0.2374 -0.5239
  543TIP3   OH223119   0.032   0.797   3.720  0.1648 -0.3751  0.0990
  543TIP3    H123120   0.052   0.809   3.813 -1.8820  1.3457  0.3948
  543TIP3    H223121   0.046   0.704   3.705  2.7973 -0.2997  1.5098
  544TIP3   OH223122   0.345   3.493  12.408  0.1589 -0.0598 -0.7351
  544TIP3    H123123   0.426   3.448  12.382  1.1873  1.4078 -0.1947
  544TIP3    H223124   0.298   3.506  12.326  0.1236 -1.5248 -0.9820
  545TIP3   OH223125   2.826   0.922  14.251  0.2463 -0.7084 -0.4935
  545TIP3    H123126   2.798   0.832  14.271  0.7840 -0.7383  0.1772
  545TIP3    H223127   2.759   0.955  14.192 -0.6549 -1.1170  0.2695
  546TIP3   OH223128   4.886   0.801  12.867 -0.1126  0.4486  0.0664
  546TIP3    H123129   4.896   0.837  12.779  1.5371  0.3860  0.1855
  546TIP3    H223130   4.899   0.707  12.856 -0.1522  0.4105  0.3382
  547TIP3   OH223131   5.291   6.165   4.001  0.4889 -0.0334 -0.7750
  547TIP3    H123132   5.362   6.111   4.036  0.1075 -0.8134 -1.1747
  547TIP3    H223133   5.255   6.209   4.078  2.5516  1.8032 -0.7903
  548TIP3   OH223134   1.108   6.490  13.009 -0.1579 -0.1194 -0.1647
  548TIP3    H123135   1.137   6.412  12.962 -2.1178 -0.7938 -0.3525
  548TIP3    H223136   1.087   6.553  12.941 -0.7554 -0.2600 -0.1180
  549TIP3   OH223137   4.857   5.762  13.160  0.0652  0.0736 -0.0000
  549TIP3    H123138   4.911   5.686  13.138 -0.8803 -0.9522  1.0811
  549TIP3    H223139   4.919   5.826  13.196  0.3686 -1.9832  3.4991
  550TIP3   OH223140   5.291   4.006   0.094  0.3555 -0.2727  0.0943
  550TIP3    H123141   5.274   4.027   0.002  0.7592  1.3085  0.3402
  550TIP3    H223142   5.257   3.918   0.106  0.4477 -0.5705 -1.6147
  551TIP3   OH223143   1.453   0.478   0.523 -0.1679  0.7758 -0.2264
  551TIP3    H123144   1.499   0.394   0.522 -1.1553  0.2071  0.3725
  551TIP3    H223145   1.521   0.543   0.505  0.4074 -0.2326 -1.8971
  552TIP3   OH223146   6.326   5.511  12.289 -0.0049 -0.0768  0.4219
  552TIP3    H123147   6.403   5.455  12.295 -1.0965 -1.5759  1.0698
  552TIP3    H223148   6.334   5.555  12.204  1.1284 -0.8493  0.1187
  553TIP3   OH223149   1.643   1.674  16.243 -0.3878 -0.6256 -0.2919
  553TIP3    H123150   1.678   1.610  16.305  0.6134 -1.7002 -1.8802
  553TIP3    H223151   1.582   1.726  16.294  1.5404 -0.4191  1.9879
  554TIP3   OH223152   2.730   5.861   0.056 -0.3789  0.0930  0.3760
  554TIP3    H123153   2.820   5.841   0.081 -0.0558  1.2190  0.1882
  554TIP3    H223154   2.721   5.955   0.072 -1.3977  0.0722  0.0255
  555TIP3   OH223155   5.726   4.707  16.266  0.5203 -0.5114 -0.2017
  555TIP3    H123156   5.803   4.651  16.277  0.2504 -0.9370 -0.4507
  555TIP3    H223157   5.652   4.651  16.289  0.2446 -0.2598 -0.4629
  556TIP3   OH223158   1.187   1.885  11.728 -0.0993 -0.2044 -0.2663
  556TIP3    H123159   1.199   1.803  11.682  1.8813  0.1956 -0.5609
  556TIP3    H223160   1.133   1.863  11.804  0.1601 -1.7033 -0.5003
  557TIP3   OH223161   2.504   4.328  10.610 -0.4106  0.1259 -0.3503
  557TIP3    H123162   2.446   4.288  10.544 -1.2781  0.2777  0.2985
  557TIP3    H223163   2.503   4.421  10.589 -0.4894  0.1424 -0.2741
  558TIP3   OH223164   1.606   6.099  15.254  0.1896 -0.1037 -0.2684
  558TIP3    H123165   1.633   6.066  15.168 -0.3395  2.0758 -1.3482
  558TIP3    H223166   1.514   6.122  15.243  0.2777  0.7651  0.6841
  559TIP3   OH223167   0.630   6.506   6.085  0.3890  0.3359 -0.0944
  559TIP3    H123168   0.556   6.505   6.024 -0.2738 -0.3886  0.6903
  559TIP3    H223169   0.621   6.590   6.131  2.1381  1.9024 -2.4015
  560TIP3   OH223170   1.927   4.918  14.669  0.3747  0.7685  0.0694
  560TIP3    H123171   2.008   4.969  14.671  0.6992  0.2523  1.1920
  560TIP3    H223172   1.869   4.962  14.732  0.5073  0.0300  0.7371
  561TIP3   OH223173   6.772   3.016  14.308  0.4023  0.3152  0.0472
  561TIP3    H123174   6.720   2.937  14.296  0.1316  0.4910  0.0695
  561TIP3    H223175   6.767   3.035  14.401  3.0235 -1.4050  0.6438
  562TIP3   OH223176   0.661   5.530  11.750 -0.2727  0.6743  0.1765
  562TIP3    H123177   0.592   5.511  11.813 -0.3014  0.4478  0.0750
  562TIP3    H223178   0.703   5.610  11.783 -0.7595  0.9670  0.0961
  563TIP3   OH223179   2.842   2.334  14.291 -0.2149  0.1949 -0.2251
  563TIP3    H123180   2.755   2.359  14.260  0.3714 -0.1894 -2.3375
  563TIP3    H223181   2.902   2.382  14.235  0.9381 -0.7484  0.1637
  564TIP3   OH223182   3.591   5.527   2.695  0.2918 -0.1755  0.1371
  564TIP3    H123183   3.685   5.513   2.688  0.3557  0.3872 -0.1543
  564TIP3    H223184   3.582   5.614   2.733 -0.1156 -0.1588  0.0094
  565TIP3   OH223185   6.064   0.506  16.061  0.6231  0.1142 -0.4817
  565TIP3    H123186   5.982   0.553  16.046 -0.8174 -2.2894 -0.7007
  565TIP3    H223187   6.078   0.456  15.981  0.0054 -2.6469  1.0116
  566TIP3   OH223188   2.643   3.771   1.624 -0.4905  0.0023 -0.1431
  566TIP3    H123189   2.658   3.800   1.714 -1.7471  1.6193 -0.4068
  566TIP3    H223190   2.572   3.827   1.592 -0.2657 -0.7218 -2.0590
  567TIP3   OH223191   0.659   6.236   2.446  0.0618 -0.4853 -0.3461
  567TIP3    H123192   0.647   6.221   2.353  1.7574 -0.4115 -0.6133
  567TIP3    H223193   0.701   6.156   2.478  0.2392 -0.1854  0.1811
  568TIP3   OH223194   5.901   5.715   1.902 -0.8413 -0.0652  0.0870
  568TIP3    H123195   5.899   5.783   1.970  2.2199  2.1527 -1.8077
  568TIP3    H223196   5.880   5.761   1.821  0.0364 -1.6715 -1.0979
  569TIP3   OH223197   2.435   6.878  14.909  0.0540 -0.0426  0.2518
  569TIP3    H123198   2.428   6.783  14.918 -3.3055  0.1256  0.8512
  569TIP3    H223199   2.486   6.906  14.984  0.8963 -1.3441  0.1876
  570TIP3   OH223200   2.132   0.718   3.645 -0.2617  0.0867  0.2730
  570TIP3    H123201   2.060   0.759   3.693  1.0976  1.3401  1.3473
  570TIP3    H223202   2.139   0.769   3.564  0.4574  1.0910  0.9339
  571TIP3   OH223203   0.894   3.476   3.530  0.5938  0.3000  0.3187
  571TIP3    H123204   0.949   3.549   3.500  0.6707  0.5311  1.0007
  571TIP3    H223205   0.882   3.422   3.452  2.5523 -0.2425  0.3430
  572TIP3   OH223206   4.576   2.318  15.059 -0.1879 -0.0653  0.1379
  572TIP3    H123207   4.485   2.345  15.047 -0.1524 -0.2418 -0.5728
  572TIP3    H223208   4.595   2.339  15.151 -0.8023  0.3845  0.1721
  573TIP3   OH223209   5.414   5.815  13.372  0.3545  0.0061  0.2645
  573TIP3    H123210   5.341   5.839  13.429  0.7239  1.6578  0.0979
  573TIP3    H223211   5.439   5.727  13.401 -1.3794 -0.4067  0.6232
  574TIP3   OH223212   4.776   1.011   1.566  0.5902 -0.3216 -0.9561
  574TIP3    H123213   4.722   0.978   1.638  3.0468  0.8052  1.6010
  574TIP3    H223214   4.862   0.972   1.580  2.2334  2.9922 -0.7691
  575TIP3   OH223215   1.601   3.151   3.241  0.5610 -0.2846 -0.1565
  575TIP3    H123216   1.620   3.245   3.237 -1.5881  0.2732  0.9801
  575TIP3    H223217   1.684   3.111   3.266  1.3988  1.3771 -0.1191
  576TIP3   OH223218   1.036   3.882  13.583 -0.1910 -0.1954 -0.2064
  576TIP3    H123219   1.004   3.914  13.668 -1.4154  1.0742 -1.0888
  576TIP3    H223220   1.126   3.855  13.600 -0.5914 -0.5224  1.6204
  577TIP3   OH223221   2.393   5.225  13.324  0.1539  0.8616  0.4646
  577TIP3    H123222   2.319   5.202  13.380 -0.4551  0.4607 -0.4651
  577TIP3    H223223   2.372   5.312  13.290  1.4962  2.0141  2.4040
  578TIP3   OH223224   3.724   2.874   4.491  0.0328  0.0846 -0.0425
  578TIP3    H123225   3.639   2.911   4.465 -1.3738  0.5752  4.3521
  578TIP3    H223226   3.789   2.927   4.446 -1.9921  1.9376 -0.9407
  579TIP3   OH223227   0.369   0.195  14.118 -0.2339 -0.0978 -0.2877
  579TIP3    H123228   0.415   0.254  14.059 -1.4394  0.3688 -0.7971
  579TIP3    H223229   0.432   0.126  14.137  0.9859  0.9948 -0.1985
  580TIP3   OH223230   1.622   2.988  16.236 -0.0705  0.2509 -0.1519
  580TIP3    H123231   1.538   3.032  16.235 -0.5342 -0.6114  0.1259
  580TIP3    H223232   1.683   3.051  16.198 -0.7352  1.0804  0.1457
  581TIP3   OH223233   4.540   0.929   5.569  0.0393 -0.3243 -0.8011
  581TIP3    H123234   4.572   1.003   5.517  0.3387 -0.2939 -0.5749
  581TIP3    H223235   4.472   0.967   5.625  0.4699 -0.1406 -0.4022
  582TIP3   OH223236   1.575   4.028  12.239  0.1759 -0.6492  0.5976
  582TIP3    H123237   1.560   3.961  12.306 -1.2665 -0.5126  0.4452
  582TIP3    H223238   1.644   3.992  12.184  0.4000 -1.3842  1.3280
  583TIP3   OH223239   2.687   5.857  10.582  0.3633 -0.1742  0.0400
  583TIP3    H123240   2.658   5.814  10.501 -0.1719  1.5504 -0.7368
  583TIP3    H223241   2.766   5.905  10.555  0.7454 -0.3681  0.7974
  584TIP3   OH223242   1.037   2.141  16.953 -0.0598  0.4079  0.2380
  584TIP3    H123243   1.079   2.226  16.959  1.6090 -0.3491 -0.2860
  584TIP3    H223244   0.991   2.131  17.037  0.8116  1.2519  0.8314
  585TIP3   OH223245   1.030   3.107  13.179  0.2988 -0.6237  0.2587
  585TIP3    H123246   1.003   3.063  13.098  0.2282 -0.8873  0.4232
  585TIP3    H223247   1.100   3.051  13.215 -0.0912 -0.8357  0.6941
  586TIP3   OH223248   1.898   6.565   2.481  0.6338 -0.8710 -0.3904
  586TIP3    H123249   1.964   6.552   2.412  0.5797 -1.8269 -0.2733
  586TIP3    H223250   1.950   6.590   2.558  0.6007  1.6542 -1.0770
  587TIP3   OH223251   3.306   4.793   6.681  0.2579  0.3181 -0.0991
  587TIP3    H123252   3.357   4.740   6.620 -0.8090 -0.2260 -0.5467
  587TIP3    H223253   3.276   4.732   6.747 -0.9436  0.3472 -0.5909
  588TIP3   OH223254   6.885   3.546   5.744 -0.2288 -0.2930 -0.0774
  588TIP3    H123255   6.834   3.625   5.764  0.0291 -0.4654  1.3560
  588TIP3    H223256   6.897   3.504   5.829  0.6135 -1.2872 -0.6789
  589TIP3   OH223257   5.335   2.007  13.030  0.3041 -0.4438  0.7342
  589TIP3    H123258   5.351   2.079  12.970 -0.0263 -0.3814  0.7225
  589TIP3    H223259   5.251   2.027  13.071  0.7639 -0.2220  1.5982
  590TIP3   OH223260   2.480   0.552  16.900 -0.0607 -0.2286 -0.3377
  590TIP3    H123261   2.572   0.577  16.892 -0.3511  1.4700  0.9968
  590TIP3    H223262   2.478   0.486  16.969  0.1330 -0.0881 -0.1957
  591TIP3   OH223263   0.785   4.679   5.109  0.5701  0.2027  0.8226
  591TIP3    H123264   0.829   4.755   5.071 -0.4954  0.3382 -0.1982
  591TIP3    H223265   0.800   4.609   5.045  0.1508 -0.0080  0.9581
  592TIP3   OH223266   3.192   4.154   1.499  0.4273  0.1082 -0.1567
  592TIP3    H123267   3.199   4.243   1.466 -0.8660  0.0149 -0.7552
  592TIP3    H223268   3.109   4.153   1.547  0.6933 -0.6325  0.2959
  593TIP3   OH223269   0.754   0.179  14.645 -0.1264  0.9121  0.6635
  593TIP3    H123270   0.818   0.242  14.613 -0.3396 -0.2101 -2.2662
  593TIP3    H223271   0.803   0.123  14.705  1.2639  1.0561 -0.2883
  594TIP3   OH223272   3.335   6.103  15.697 -0.1724 -1.0553  0.1523
  594TIP3    H123273   3.312   6.127  15.607  0.1215 -0.0294  0.3413
  594TIP3    H223274   3.342   6.007  15.695  0.3022 -1.0130 -1.0275
  595TIP3   OH223275   0.183   4.397   2.608  0.3439 -0.0063 -0.4903
  595TIP3    H123276   0.098   4.441   2.613 -0.1348 -0.8167 -1.2562
  595TIP3    H223277   0.238   4.443   2.672 -0.6915  0.4785  0.0666
  596TIP3   OH223278   5.436   0.044   0.716 -0.1214 -0.0813 -0.0119
  596TIP3    H123279   5.456  -0.037   0.669  1.0537  0.3493 -0.3017
  596TIP3    H223280   5.372   0.089   0.662 -1.3010 -1.1171  0.4901
  597TIP3   OH223281   0.191   3.101   3.749 -0.2590  0.7162 -0.2963
  597TIP3    H123282   0.169   3.118   3.657  1.4392 -0.2536 -0.9382
  597TIP3    H223283   0.226   3.184   3.782  1.3670  0.4635 -1.2762
  598TIP3   OH223284   6.027   3.768  12.931  0.1633 -0.0425 -0.2261
  598TIP3    H123285   5.952   3.717  12.901  0.0819  1.4296 -2.7915
  598TIP3    H223286   6.099   3.741  12.873  0.8836  0.5978  0.3432
  599TIP3   OH223287   6.212   0.068   2.906 -0.3654 -0.4352 -0.2427
  599TIP3    H123288   6.207   0.136   2.973 -1.3344  0.6426 -1.3671
  599TIP3    H223289   6.220  -0.014   2.956 -1.3536  0.2958  1.2050
  600TIP3   OH223290   5.022   6.652  12.012  0.3088  0.3051 -0.2348
  600TIP3    H123291   5.011   6.609  11.927  1.3503 -0.9253  0.2124
  600TIP3    H223292   5.026   6.580  12.075 -0.4600  1.1967  0.8702
  601TIP3   OH223293   1.489   1.309   0.945 -0.1040  0.2572 -0.0316
  601TIP3    H123294   1.481   1.297   1.040  1.1351  1.7703  0.3163
  601TIP3    H223295   1.433   1.384   0.926  0.2734  0.4562 -0.3598
  602TIP3   OH223296   0.746   0.408   4.353  0.2871 -0.7978 -0.6191
  602TIP3    H123297   0.813   0.365   4.407 -0.1059 -1.5137 -0.6885
  602TIP3    H223298   0.746   0.359   4.271 -0.8930 -1.3406 -0.3098
  603TIP3   OH223299   4.871   1.996   1.556  0.0938  0.8000  0.6197
  603TIP3    H123300   4.874   2.047   1.475  0.3989  1.8643  1.2711
  603TIP3    H223301   4.801   1.933   1.542  1.2597 -0.2137 -1.1204
  604TIP3   OH223302   5.919   6.465   0.189  0.2039 -0.5317 -0.3124
  604TIP3    H123303   5.860   6.411   0.242 -0.6415 -0.0790 -0.7564
  604TIP3    H223304   5.935   6.414   0.110  1.4105 -1.1775  0.3230
  605TIP3   OH223305   5.585   4.847  12.949  0.0634  0.4047 -0.2686
  605TIP3    H123306   5.557   4.928  12.907 -0.8557  0.9849  1.4024
  605TIP3    H223307   5.679   4.857  12.962  0.1491  0.7109 -1.0659
  606TIP3   OH223308   0.735   0.801  10.850  0.0389  0.2654 -0.0959
  606TIP3    H123309   0.729   0.897  10.859 -1.7652  0.0720  1.3607
  606TIP3    H223310   0.661   0.778  10.793  0.1377 -0.3209  0.0087
  607TIP3   OH223311   1.657   3.959   1.619  0.5534  0.5076 -0.4327
  607TIP3    H123312   1.625   4.043   1.587 -0.7732  0.9788  1.9262
  607TIP3    H223313   1.634   3.897   1.549  0.1477  1.8387 -1.5264
  608TIP3   OH223314   0.283   4.314  10.708  0.7970 -0.1681  0.0362
  608TIP3    H123315   0.280   4.314  10.613  0.9061 -0.3805  0.0333
  608TIP3    H223316   0.305   4.224  10.732  1.7592  0.0997  0.2280
  609TIP3   OH223317   1.635   6.076   0.622 -0.2986 -0.4195 -0.4328
  609TIP3    H123318   1.622   5.991   0.579 -0.6540 -0.7897  0.3945
  609TIP3    H223319   1.668   6.133   0.552  0.7297 -1.4375 -0.8105
  610TIP3   OH223320   2.843   5.261  10.625  0.5837  0.3622 -0.0643
  610TIP3    H123321   2.810   5.217  10.703  0.1529  1.3032  0.2967
  610TIP3    H223322   2.802   5.214  10.552  1.0636 -0.5869  0.2521
  611TIP3   OH223323   1.622   3.516   4.915  0.6255 -0.0456 -0.2322
  611TIP3    H123324   1.634   3.423   4.933 -1.3503  0.0466  2.1045
  611TIP3    H223325   1.531   3.523   4.885  0.7005  1.1576 -0.2204
  612TIP3   OH223326   0.077   3.461  12.154  0.0243 -0.2660  0.2177
  612TIP3    H123327   0.060   3.531  12.216 -1.5957  0.2378 -0.7449
  612TIP3    H223328   0.081   3.382  12.207 -0.3529  0.2733  1.0606
  613TIP3   OH223329   2.826   6.087  10.450  0.0571  0.1755 -0.3048
  613TIP3    H123330   2.914   6.120  10.467 -0.4879  1.0474  1.0307
  613TIP3    H223331   2.775   6.166  10.431 -0.3703 -0.3594 -1.4565
  614TIP3   OH223332   6.189   4.424   4.207  0.3193  0.2489  0.2284
  614TIP3    H123333   6.156   4.379   4.129  0.3323 -0.5070  0.6519
  614TIP3    H223334   6.246   4.493   4.172  1.6028 -1.0974 -0.4125
  615TIP3   OH223335   4.631   1.722   0.670  0.5014  0.0626 -0.5338
  615TIP3    H123336   4.541   1.725   0.703  1.4338  0.5058  2.2349
  615TIP3    H223337   4.625   1.675   0.587 -2.2383 -0.1130 -0.3148
  616TIP3   OH223338   0.250   0.785   0.565  0.0837 -0.2859  0.1074
  616TIP3    H123339   0.286   0.772   0.652  1.0147 -0.0463 -0.2281
  616TIP3    H223340   0.306   0.733   0.507  0.3431  0.6503 -0.5126
  617TIP3   OH223341   1.987   1.533   1.741 -0.1989  0.0476  0.5233
  617TIP3    H123342   1.940   1.509   1.821 -0.4535 -1.2798 -0.0027
  617TIP3    H223343   1.919   1.553   1.678 -0.0090  2.5679  0.9977
  618TIP3   OH223344   6.037   2.458   5.462 -0.2160 -0.6392  0.1334
  618TIP3    H123345   6.024   2.372   5.423 -0.9853 -0.9982  1.1239
  618TIP3    H223346   5.958   2.473   5.515 -0.0934  0.6667 -0.0070
  619TIP3   OH223347   2.803   5.314   3.422  0.0154 -0.2469  0.8955
  619TIP3    H123348   2.864   5.388   3.423  0.2583 -0.1203 -3.3084
  619TIP3    H223349   2.858   5.237   3.437  0.3966  0.1805  1.7157
  620TIP3   OH223350   4.627   1.335  11.432 -0.0143 -0.2728  0.5399
  620TIP3    H123351   4.629   1.243  11.459  2.5501 -0.2241  0.7536
  620TIP3    H223352   4.694   1.377  11.487 -0.5197  1.5446 -0.1767
  621TIP3   OH223353   2.256   5.526  15.886  0.4640  0.7912 -1.0069
  621TIP3    H123354   2.168   5.490  15.875  1.4504 -2.0193 -0.5741
  621TIP3    H223355   2.307   5.454  15.923  2.1681  3.3879  2.2056
  622TIP3   OH223356   6.881   5.275   2.528 -0.5041  0.0048  0.3656
  622TIP3    H123357   6.889   5.248   2.436  0.1359  1.0683  0.0872
  622TIP3    H223358   6.797   5.322   2.531 -1.0027 -0.8791  0.5616
  623TIP3   OH223359   5.957   4.124   2.406  0.1184 -0.0278 -0.2237
  623TIP3    H123360   5.985   4.042   2.366 -0.5712  0.5736 -2.0229
  623TIP3    H223361   5.861   4.124   2.397 -0.3000 -0.6465  3.0364
  624TIP3   OH223362   4.036   2.021  13.286 -0.1649 -0.0468 -0.1684
  624TIP3    H123363   3.950   2.062  13.294  0.6116  1.4479  1.1586
  624TIP3    H223364   4.024   1.951  13.222 -2.2594  0.3832 -0.3044
  625TIP3   OH223365   0.412   0.756  15.515 -0.1107  0.0657 -0.4647
  625TIP3    H123366   0.344   0.753  15.582  0.7067 -0.1978  0.3790
  625TIP3    H223367   0.397   0.839  15.470 -1.4834 -0.3699 -0.8476
  626TIP3   OH223368   2.804   4.837   3.421 -0.1779 -0.3767  0.6123
  626TIP3    H123369   2.846   4.753   3.439  0.6681 -0.6211 -2.0424
  626TIP3    H223370   2.834   4.860   3.333 -1.0250  2.3390  0.9498
  627TIP3   OH223371   2.355   5.614  11.398 -0.6033 -0.3229 -0.1162
  627TIP3    H123372   2.306   5.532  11.407  1.2156 -1.3132  1.7232
  627TIP3    H223373   2.415   5.598  11.325  0.8288 -1.3321  1.1921
  628TIP3   OH223374   2.262   3.697  14.609  0.2381  0.5387 -0.4708
  628TIP3    H123375   2.187   3.666  14.557  1.7276 -1.8134 -1.3938
  628TIP3    H223376   2.225   3.718  14.694 -1.2940 -2.1769 -0.3573
  629TIP3   OH223377   1.962   1.814  16.376  0.1924  0.2100 -0.2399
  629TIP3    H123378   1.902   1.853  16.313  0.9296  2.9852  0.6486
  629TIP3    H223379   2.041   1.868  16.371  0.6984 -0.1871  2.2196
  630TIP3   OH223380   4.759   6.034  14.646 -0.5467 -0.1994  0.2306
  630TIP3    H123381   4.739   5.941  14.657 -0.3117 -0.2670  0.0933
  630TIP3    H223382   4.792   6.062  14.731  2.4352 -1.0166 -0.5677
  631TIP3   OH223383   6.369   6.794  12.973 -0.4339  0.0754  0.2145
  631TIP3    H123384   6.300   6.750  13.023  0.2162 -0.8293  0.3525
  631TIP3    H223385   6.325   6.866  12.928 -2.2582 -2.6198 -2.6632
  632TIP3   OH223386   6.132   1.571   3.393  0.2002 -0.5572 -0.4197
  632TIP3    H123387   6.076   1.647   3.404  1.3973  0.2702  0.1080
  632TIP3    H223388   6.109   1.537   3.307  0.9100  1.4753 -1.4721
  633TIP3   OH223389   1.111   4.389  11.013  0.3310  0.3744 -0.0567
  633TIP3    H123390   1.161   4.313  11.044 -0.1066  0.4265  0.7883
  633TIP3    H223391   1.056   4.354  10.943 -1.8237 -0.7084  2.0520
  634TIP3   OH223392   2.887   3.661  16.137 -0.0168 -0.2124  0.1030
  634TIP3    H123393   2.866   3.616  16.055  1.1812 -0.5576 -0.0396
  634TIP3    H223394   2.976   3.694  16.123 -0.0963  0.3948  0.9873
  635TIP3   OH223395   3.176   2.782   5.433 -0.0582 -0.0140 -0.0092
  635TIP3    H123396   3.259   2.745   5.404 -0.9423 -1.6727 -0.6026
  635TIP3    H223397   3.111   2.717   5.407 -1.4834  0.9441  0.9924
  636TIP3   OH223398   1.828   4.596  11.129 -0.3058  0.0429 -0.2195
  636TIP3    H123399   1.804   4.504  11.142  0.7980 -0.2306 -0.0003
  636TIP3    H223400   1.810   4.614  11.037 -0.5663 -0.3775 -0.2506
  637TIP3   OH223401   3.660   3.239  11.589 -0.4407  0.4713 -0.3010
  637TIP3    H123402   3.749   3.235  11.554 -0.3390  2.1450 -0.3167
  637TIP3    H223403   3.624   3.152  11.573  0.9635 -0.0317 -0.8941
  638TIP3   OH223404   2.253   1.850  15.563 -0.2434 -0.3957  0.7267
  638TIP3    H123405   2.164   1.844  15.529 -0.2875 -1.3754  0.9806
  638TIP3    H223406   2.244   1.828  15.656  0.2283 -0.2781  0.8009
  639TIP3   OH223407   4.547   2.457  14.126 -0.4919 -0.1622  0.0227
  639TIP3    H123408   4.489   2.453  14.049  1.3772 -0.4431 -1.4447
  639TIP3    H223409   4.604   2.532  14.110  1.0902 -1.2681  0.2362
  640TIP3   OH223410   3.863   3.184  11.817  0.2361  0.5889  0.1812
  640TIP3    H123411   3.826   3.160  11.732  1.0025  0.4848 -0.1342
  640TIP3    H223412   3.912   3.264  11.800  1.4895 -0.1355  0.2078
  641TIP3   OH223413   0.771   5.811   0.604  0.2917 -0.3939  0.1925
  641TIP3    H123414   0.693   5.842   0.558 -0.2442  0.6129  1.6807
  641TIP3    H223415   0.805   5.740   0.550 -0.9941 -0.0832 -1.0807
  642TIP3   OH223416   6.640   1.989   3.330 -0.2246 -0.3546  0.7514
  642TIP3    H123417   6.626   1.930   3.403 -2.1223 -0.7121  0.1525
  642TIP3    H223418   6.555   1.994   3.286  0.3772  1.3188 -0.3320
  643TIP3   OH223419   6.109   6.422   4.391  0.2399 -0.2824 -0.3299
  643TIP3    H123420   6.177   6.356   4.405 -0.0703 -0.5508 -0.0818
  643TIP3    H223421   6.118   6.481   4.466  0.2017 -0.3185 -0.2964
  644TIP3   OH223422   4.464   5.326  11.545  0.6451 -0.1251  0.2147
  644TIP3    H123423   4.444   5.378  11.467 -1.9612  1.3176  1.6689
  644TIP3    H223424   4.535   5.373  11.588  0.0905  0.7976  0.1568
  645TIP3   OH223425   5.904   4.076  14.976  0.0070  0.4527 -0.0928
  645TIP3    H123426   5.987   4.028  14.969  0.1395  0.8580 -1.4438
  645TIP3    H223427   5.847   4.017  15.025  1.1645  0.2836  1.1187
  646TIP3   OH223428   5.171   3.289   1.402  0.2167 -0.8272  0.1459
  646TIP3    H123429   5.243   3.226   1.395  0.1517 -0.8027 -0.8341
  646TIP3    H223430   5.190   3.355   1.336 -0.7441 -0.8533 -0.1681
  647TIP3   OH223431   3.778   2.089   2.089 -0.1888 -0.3213 -0.7212
  647TIP3    H123432   3.821   2.108   2.006 -0.6110 -0.6647 -1.0216
  647TIP3    H223433   3.754   2.175   2.125  1.4008 -0.0700 -0.1853
  648TIP3   OH223434   5.017   3.506  12.608  0.2053 -0.5637  0.2415
  648TIP3    H123435   4.957   3.548  12.669  0.0078 -1.0592  0.3925
  648TIP3    H223436   4.962   3.486  12.532  0.3320 -0.4217  0.1122
  649TIP3   OH223437   6.293   0.912   3.009 -0.4271 -0.3375  0.0653
  649TIP3    H123438   6.317   0.906   2.916  0.6459  1.1207  0.2198
  649TIP3    H223439   6.360   0.861   3.054 -1.2549 -1.4984  0.0232
  650TIP3   OH223440   3.906   6.582   2.617 -0.4306 -0.4867 -0.1435
  650TIP3    H123441   3.821   6.622   2.637  0.8187  3.2492 -1.4762
  650TIP3    H223442   3.913   6.588   2.521  1.1804 -1.1484 -0.0901
  651TIP3   OH223443   0.390   2.578  11.488  0.7457 -0.1044  0.0848
  651TIP3    H123444   0.419   2.498  11.442 -2.4179 -1.8946  0.8837
  651TIP3    H223445   0.409   2.561  11.580  1.1256  0.6161  0.1444
  652TIP3   OH223446   4.508   2.492  16.062 -0.2775 -0.1061 -0.5674
  652TIP3    H123447   4.589   2.499  16.012 -0.7255 -0.3080 -1.3336
  652TIP3    H223448   4.438   2.495  15.996 -0.8487 -1.3239 -0.0461
  653TIP3   OH223449   4.195   2.839   2.775 -0.0474 -0.2036  0.0835
  653TIP3    H123450   4.253   2.764   2.785  0.4869  0.0580 -0.9866
  653TIP3    H223451   4.161   2.832   2.686 -1.2690 -0.0661  0.5175
  654TIP3   OH223452   0.358   0.984   2.299  0.4214 -0.4939 -0.0040
  654TIP3    H123453   0.286   1.037   2.267  1.1779  0.1945 -0.6077
  654TIP3    H223454   0.366   1.006   2.391  0.5108  0.1898 -0.1727
  655TIP3   OH223455   5.100   4.877   2.572 -0.2033 -0.1442  0.2239
  655TIP3    H123456   5.099   4.941   2.500 -0.2545 -1.1926 -0.7244
  655TIP3    H223457   5.021   4.825   2.560  0.4806 -1.2129  0.2215
  656TIP3   OH223458   0.157   1.954   6.619  0.0846 -0.3467  0.4296
  656TIP3    H123459   0.084   2.008   6.590 -0.5152 -2.1047 -1.6628
  656TIP3    H223460   0.235   2.003   6.592 -0.3255  0.8713  1.3814
  657TIP3   OH223461   1.351   1.205   0.727  0.5612  0.1612 -0.2240
  657TIP3    H123462   1.422   1.220   0.790 -0.1116  0.8466  0.3920
  657TIP3    H223463   1.295   1.282   0.735 -0.8188 -0.8221  0.0846
  658TIP3   OH223464   0.842   0.516  16.914 -0.4660 -0.5313  0.1483
  658TIP3    H123465   0.785   0.440  16.902  1.4426 -2.1203  0.7723
  658TIP3    H223466   0.872   0.510  17.005 -0.4183  1.1103  0.2785
  659TIP3   OH223467   1.669   5.924  14.815  0.0695 -0.1025  0.2231
  659TIP3    H123468   1.632   5.958  14.734 -0.3361 -1.1618 -0.0544
  659TIP3    H223469   1.696   5.835  14.793  2.0748  0.3480  0.6312
  660TIP3   OH223470   3.175   2.127  11.786  0.0308  0.0311 -0.7647
  660TIP3    H123471   3.090   2.097  11.819  0.4322 -0.6444 -0.3268
  660TIP3    H223472   3.239   2.071  11.829  0.7619  1.0664 -0.4567
  661TIP3   OH223473   1.979   0.427  13.610  0.4852 -0.1541 -0.2792
  661TIP3    H123474   1.987   0.345  13.660 -1.5085 -0.1635  0.1394
  661TIP3    H223475   1.960   0.493  13.677 -3.0254 -0.2986 -0.9140
  662TIP3   OH223476   5.507   3.566   3.306 -0.6576 -0.0444  0.6136
  662TIP3    H123477   5.560   3.539   3.381  1.2545  0.7671 -0.3762
  662TIP3    H223478   5.552   3.527   3.230 -3.3480 -2.0665 -0.0690
  663TIP3   OH223479   3.518   5.014  15.950  0.1390 -0.0303 -0.2162
  663TIP3    H123480   3.558   5.098  15.970  2.1404 -0.9919  0.0954
  663TIP3    H223481   3.512   4.969  16.035  2.0154 -1.3702 -0.7363
  664TIP3   OH223482   5.345   4.448  11.107  0.2328  0.8397  0.2715
  664TIP3    H123483   5.416   4.385  11.122  1.0183  2.1437  2.4480
  664TIP3    H223484   5.265   4.400  11.126  0.4793 -0.5608 -1.8708
  665TIP3   OH223485   0.367   4.939   3.013  0.3631  0.0324  0.1185
  665TIP3    H123486   0.384   4.952   3.107  2.8832 -0.9723 -0.0947
  665TIP3    H223487   0.426   5.001   2.970  0.5801 -0.7699 -0.7731
  666TIP3   OH223488   3.503   0.716  16.702 -0.2396  0.4759  0.1891
  666TIP3    H123489   3.427   0.681  16.749  0.7678 -3.1220 -0.5595
  666TIP3    H223490   3.569   0.730  16.770 -0.5261  0.5040  0.4652
  667TIP3   OH223491   1.172   5.451   2.957  0.9657 -0.6892 -0.5012
  667TIP3    H123492   1.259   5.468   2.920  0.8880 -2.7430 -1.7665
  667TIP3    H223493   1.170   5.357   2.973 -1.2029 -0.7822 -0.9737
  668TIP3   OH223494   0.347   3.735  14.738  0.6742 -0.7880 -0.2972
  668TIP3    H123495   0.409   3.788  14.688  1.3341 -1.0746  0.2004
  668TIP3    H223496   0.311   3.795  14.803  0.5814 -0.6716 -0.4546
  669TIP3   OH223497   1.519   5.827  12.837  0.0327  0.1966  0.0857
  669TIP3    H123498   1.553   5.848  12.924  0.5759  0.1030 -0.1055
  669TIP3    H223499   1.578   5.872  12.776  1.1926 -1.7819 -0.3424
  670TIP3   OH223500   3.797   0.631   6.070 -0.8735  0.9007 -0.7151
  670TIP3    H123501   3.841   0.615   6.154 -1.7429  1.0588 -0.2134
  670TIP3    H223502   3.719   0.576   6.073 -1.9932  2.4247 -0.5248
  671TIP3   OH223503   6.585   3.397  13.345 -0.2833 -0.4366  0.4011
  671TIP3    H123504   6.560   3.326  13.404  0.8700 -0.7344  0.5566
  671TIP3    H223505   6.621   3.353  13.268 -0.9607 -0.0318 -0.1648
  672TIP3   OH223506   0.777   3.128   4.616  0.3712 -0.2542  0.4035
  672TIP3    H123507   0.859   3.176   4.617  1.4281 -1.9112 -1.1429
  672TIP3    H223508   0.800   3.040   4.648 -0.6046 -0.9666 -0.7448
  673TIP3   OH223509   4.139   1.689  10.779  0.3649  0.7372  0.0812
  673TIP3    H123510   4.067   1.632  10.751  1.4719 -0.6440 -0.0687
  673TIP3    H223511   4.216   1.654  10.733  1.3019  1.5941  0.9609
  674TIP3   OH223512   6.530   4.964  16.319  0.5071  0.5340 -0.0286
  674TIP3    H123513   6.623   4.943  16.317  0.6919  1.0924 -2.9565
  674TIP3    H223514   6.527   5.058  16.336  0.5253  0.5789 -0.2620
  675TIP3   OH223515   0.561   3.352  12.326 -0.3408 -0.2598 -0.1949
  675TIP3    H123516   0.544   3.258  12.325 -0.1324 -0.2901 -0.9724
  675TIP3    H223517   0.608   3.367  12.408  1.3222 -1.1307 -0.9568
  676TIP3   OH223518   3.079   3.355  15.139  0.5410  0.5285  0.2164
  676TIP3    H123519   3.057   3.307  15.218 -2.7875 -1.9746 -1.9382
  676TIP3    H223520   3.078   3.447  15.164 -0.7786 -0.1532  2.9668
  677TIP3   OH223521   3.695   1.405  15.593 -0.2838 -0.4161 -0.7075
  677TIP3    H123522   3.611   1.427  15.554  0.3084 -0.3232 -1.9545
  677TIP3    H223523   3.753   1.477  15.569  0.1697 -0.4870  0.1210
  678TIP3   OH223524   0.510   4.763   1.008  0.3732 -0.8566 -0.5872
  678TIP3    H123525   0.507   4.780   1.103  2.7729 -2.0875 -0.2186
  678TIP3    H223526   0.477   4.674   0.999 -1.6504 -0.0939 -1.1931
  679TIP3   OH223527   0.200   0.181   4.715  0.0689  0.1240  0.3886
  679TIP3    H123528   0.125   0.136   4.676  0.1561  2.1282 -2.3106
  679TIP3    H223529   0.276   0.142   4.673  0.3360  0.3860  0.6257
  680TIP3   OH223530   1.342   4.085   2.124  0.0516  0.9381  0.2422
  680TIP3    H123531   1.292   4.058   2.201  0.0750  1.2991  0.3870
  680TIP3    H223532   1.425   4.039   2.131 -0.3016  0.2333 -0.0653
  681TIP3   OH223533   5.394   0.816  14.437  0.2085 -0.1108 -0.0603
  681TIP3    H123534   5.301   0.795  14.443 -0.3310  1.5612 -1.6934
  681TIP3    H223535   5.437   0.732  14.422 -1.0292 -0.9015  0.6906
  682TIP3   OH223536   0.136   1.824  16.289 -0.1618 -0.2758 -1.0667
  682TIP3    H123537   0.089   1.786  16.364  4.3806 -2.2698  1.1702
  682TIP3    H223538   0.104   1.914  16.284 -3.0767 -1.0327  1.0410
  683TIP3   OH223539   5.470   1.613  13.469 -0.1845 -0.2061 -0.9454
  683TIP3    H123540   5.538   1.579  13.527  0.5509 -0.1641 -1.7671
  683TIP3    H223541   5.508   1.608  13.382 -0.5716  1.4463 -1.2400
  684TIP3   OH223542   2.466   4.313   2.570 -0.3251  0.0443 -0.0909
  684TIP3    H123543   2.518   4.348   2.498  0.4268 -1.1386 -0.1490
  684TIP3    H223544   2.426   4.390   2.611 -1.2344  0.7147 -2.1041
  685TIP3   OH223545   5.521   3.112   2.726 -0.0935 -0.7074 -0.5060
  685TIP3    H123546   5.497   3.188   2.672  0.5885 -0.8629 -1.0432
  685TIP3    H223547   5.450   3.050   2.712  0.1076 -0.7791 -1.3059
  686TIP3   OH223548   6.624   1.977   0.983  0.1608 -0.2809 -0.2255
  686TIP3    H123549   6.553   2.032   0.953 -0.1240 -0.4408  0.1446
  686TIP3    H223550   6.620   1.982   1.079  1.4538  0.7409 -0.1950
  687TIP3   OH223551   3.091   4.858  13.299  0.4753  0.1861  0.2195
  687TIP3    H123552   3.109   4.768  13.270  1.2026  0.5887 -0.6155
  687TIP3    H223553   3.018   4.886  13.244  0.0778  0.0196  0.6605
  688TIP3   OH223554   5.354   3.655  12.914  0.4359 -0.4876 -0.0867
  688TIP3    H123555   5.421   3.612  12.966  1.2691 -1.5311 -1.9357
  688TIP3    H223556   5.277   3.599  12.922  0.0071  0.2630  1.3503
  689TIP3   OH223557   6.607   6.054   4.766 -0.1370  0.1238  0.2447
  689TIP3    H123558   6.604   5.975   4.711  0.3699  0.4179 -0.2165
  689TIP3    H223559   6.614   6.021   4.855 -0.6711 -0.3597  0.1120
  690TIP3   OH223560   5.747   3.179  13.994  0.2357  0.2173 -0.0369
  690TIP3    H123561   5.701   3.118  13.937  0.5433  1.6873 -1.9496
  690TIP3    H223562   5.702   3.171  14.079 -1.6740 -0.4675 -1.0471
  691TIP3   OH223563   3.825   2.047  15.045 -0.1140 -0.1227 -0.1772
  691TIP3    H123564   3.914   2.021  15.068  0.4824  2.0160  0.1347
  691TIP3    H223565   3.833   2.082  14.956 -0.2807  1.5406  0.4234
  692TIP3   OH223566   6.854   0.564  13.250 -0.1960 -0.0350 -0.5328
  692TIP3    H123567   6.871   0.563  13.155 -1.3626 -3.8260 -0.8870
  692TIP3    H223568   6.763   0.593  13.257 -0.1100  0.2444 -0.5541
  693TIP3   OH223569   2.914   1.510  13.074  0.5268 -0.4625  0.3865
  693TIP3    H123570   2.999   1.536  13.038  0.4728 -1.4735 -0.5363
  693TIP3    H223571   2.908   1.556  13.157  0.3958  2.5077 -1.1226
  694TIP3   OH223572   6.351   3.150  11.414 -0.0718  0.0271  0.3806
  694TIP3    H123573   6.420   3.083  11.412 -2.0362 -2.1223 -2.0043
  694TIP3    H223574   6.396   3.231  11.393  2.0978 -0.8190  1.4200
  695TIP3   OH223575   4.409   5.982  11.541 -0.0054  0.0138 -1.0862
  695TIP3    H123576   4.462   6.059  11.518 -0.3979  0.0085 -2.0710
  695TIP3    H223577   4.384   5.945  11.456 -0.6533 -0.6276 -0.6207
  696TIP3   OH223578   0.414   1.491   5.284 -0.0184  0.2159  0.1780
  696TIP3    H123579   0.499   1.534   5.296  0.4584 -1.1442  2.3783
  696TIP3    H223580   0.350   1.555   5.314  0.0857  1.5785 -2.3118
  697TIP3   OH223581   1.498   3.880  15.690  0.2335 -0.1145  0.2298
  697TIP3    H123582   1.445   3.810  15.730  0.6365  0.9918  2.8954
  697TIP3    H223583   1.449   3.960  15.708  1.6269  0.6764  0.6427
  698TIP3   OH223584   0.919   2.512   1.058 -0.1195 -0.0243 -0.1117
  698TIP3    H123585   0.955   2.444   1.115 -0.2541  0.8667  1.0674
  698TIP3    H223586   0.947   2.486   0.970  1.2460 -0.7204  0.4893
  699TIP3   OH223587   3.362   5.486  12.285 -0.2804  0.2361 -0.7065
  699TIP3    H123588   3.431   5.551  12.296  0.2043 -0.5045  0.8985
  699TIP3    H223589   3.281   5.533  12.304  0.0685  0.3730  0.4684
  700TIP3   OH223590   1.197   5.850   5.104  0.1631  0.0234 -0.1730
  700TIP3    H123591   1.248   5.900   5.041  0.0462  0.5128  0.1126
  700TIP3    H223592   1.106   5.877   5.089  0.2947  1.6255  1.4584
  701TIP3   OH223593   5.334   4.829   2.436 -0.0695 -0.2983  0.1790
  701TIP3    H123594   5.322   4.923   2.423 -0.2870 -0.4448 -0.6940
  701TIP3    H223595   5.268   4.805   2.501 -1.0655 -0.1363 -0.7557
  702TIP3   OH223596   5.573   2.208  14.686 -0.2417  0.2508 -0.5798
  702TIP3    H123597   5.527   2.171  14.762 -0.3132  0.0682 -0.7112
  702TIP3    H223598   5.596   2.132  14.633  0.5572  0.3063 -0.3235
  703TIP3   OH223599   6.812   2.503  12.617 -0.8096 -0.1603  0.4591
  703TIP3    H123600   6.811   2.409  12.598 -0.0167 -0.1183  0.1362
  703TIP3    H223601   6.742   2.516  12.680 -1.2662 -0.8844  0.1131
  704TIP3   OH223602   6.847   4.106  15.406 -0.1561  0.1340 -0.1671
  704TIP3    H123603   6.856   4.165  15.481  2.6836 -1.5648  0.9715
  704TIP3    H223604   6.766   4.058  15.424  1.8888 -2.3413  3.5814
  705TIP3   OH223605   4.757   5.003  11.429 -0.0141 -0.4950 -0.4934
  705TIP3    H123606   4.774   5.005  11.523  0.9460  1.0879 -0.6619
  705TIP3    H223607   4.665   5.028  11.421 -0.4568 -1.8639  0.0664
  706TIP3   OH223608   2.758   4.865  13.296  0.1266  0.1472 -0.5433
  706TIP3    H123609   2.822   4.795  13.286  0.4548  0.4570 -0.6369
  706TIP3    H223610   2.684   4.838  13.240  0.5596  0.2399 -1.1722
  707TIP3   OH223611   5.627   2.758  11.613 -0.8200  0.4395 -0.0153
  707TIP3    H123612   5.584   2.792  11.691 -0.0795 -0.4715  0.8120
  707TIP3    H223613   5.573   2.790  11.540 -1.8482  0.8297  0.8904
  708TIP3   OH223614   3.905   4.696  13.757  0.2062  0.3258  0.3278
  708TIP3    H123615   3.974   4.711  13.692  1.1152  0.1827  1.2158
  708TIP3    H223616   3.837   4.760  13.735  0.8725  0.8627 -0.2486
  709TIP3   OH223617   1.991   6.289  12.947 -0.4443 -0.6018 -0.2333
  709TIP3    H123618   1.907   6.251  12.923 -0.5366  0.1969 -1.2092
  709TIP3    H223619   1.977   6.325  13.035 -1.5460  0.7327 -0.9162
  710TIP3   OH223620   5.200   0.573  16.825 -0.8483 -0.5439 -0.0589
  710TIP3    H123621   5.161   0.640  16.769  0.0755 -0.8198 -1.0582
  710TIP3    H223622   5.275   0.616  16.866  0.9863 -1.4333 -2.2407
  711TIP3   OH223623   3.911   3.170  11.510 -0.5477  0.1900 -0.1123
  711TIP3    H123624   3.921   3.079  11.538  0.0543  0.1423 -0.4670
  711TIP3    H223625   3.976   3.181  11.441 -2.2359  0.2119 -1.7747
  712TIP3   OH223626   1.297   3.820   5.920 -0.5026 -0.1880  0.6055
  712TIP3    H123627   1.215   3.794   5.961 -0.9033  0.5331  0.2742
  712TIP3    H223628   1.295   3.781   5.833  0.5499 -2.0996  1.3772
  713TIP3   OH223629   3.965   6.118   5.859 -0.2630  0.5016 -0.0917
  713TIP3    H123630   4.010   6.201   5.874 -0.0785  0.6937 -1.5394
  713TIP3    H223631   4.034   6.052   5.861 -0.4113  0.3507  1.0710
  714TIP3   OH223632   1.076   4.775  15.587 -0.0263 -0.0827  0.2829
  714TIP3    H123633   1.042   4.728  15.664 -0.1458  0.0914  0.3388
  714TIP3    H223634   1.073   4.711  15.517 -0.2989 -0.1288  0.3323
  715TIP3   OH223635   1.935   3.743   5.061 -0.1114 -0.4204  0.1683
  715TIP3    H123636   1.964   3.760   4.972 -0.9917 -0.8486 -0.2220
  715TIP3    H223637   1.955   3.650   5.075  1.1723 -0.0482  0.8810
  716TIP3   OH223638   5.658   6.032   5.271 -0.1782 -0.3696 -0.3534
  716TIP3    H123639   5.730   6.025   5.334 -1.7543 -1.0990  1.4415
  716TIP3    H223640   5.697   6.076   5.196  1.6977  0.9447  1.2847
  717TIP3   OH223641   4.346   1.263   0.211 -0.1080  0.2935  0.3912
  717TIP3    H123642   4.424   1.239   0.159  0.8417  0.5427  1.6593
  717TIP3    H223643   4.279   1.200   0.184  0.7113 -0.3159 -0.2836
  718TIP3   OH223644   6.583   1.204   5.307 -0.0150  0.1588 -0.3204
  718TIP3    H123645   6.634   1.132   5.270  1.6334  1.6363 -1.1190
  718TIP3    H223646   6.634   1.234   5.382 -1.2542 -0.1766  0.6969
  719TIP3   OH223647   6.791   3.190   2.788  0.1669  0.4571  0.4080
  719TIP3    H123648   6.715   3.172   2.842  0.2978 -0.3776  0.3192
  719TIP3    H223649   6.844   3.251   2.841  0.1200 -0.0661  1.0728
  720TIP3   OH223650   3.143   1.780   4.925 -0.7069 -0.1838  0.3495
  720TIP3    H123651   3.238   1.787   4.915 -0.8156  2.3043  0.2713
  720TIP3    H223652   3.131   1.742   5.012  0.3654 -0.5669  0.3461
  721TIP3   OH223653   5.300   3.320   5.416  0.6321 -0.5683 -0.2498
  721TIP3    H123654   5.214   3.337   5.455  0.5351 -1.3315 -0.1036
  721TIP3    H223655   5.362   3.334   5.487  0.4256 -2.3422  0.3347
  722TIP3   OH223656   0.888   3.500   4.590  0.5767  0.2125  0.1840
  722TIP3    H123657   0.862   3.495   4.682  0.6021 -0.7981  0.1475
  722TIP3    H223658   0.934   3.418   4.573  1.0458  0.6237 -0.5919
  723TIP3   OH223659   3.917   1.974   5.324  0.0539  0.7333  0.2444
  723TIP3    H123660   3.881   2.012   5.404  1.1682  1.3366  0.4657
  723TIP3    H223661   4.004   2.012   5.315  0.3732 -0.1568 -0.6739
  724TIP3   OH223662   5.697   4.282   4.960  0.1372  0.1680 -0.2794
  724TIP3    H123663   5.724   4.211   4.901  2.3297 -0.2294  1.0867
  724TIP3    H223664   5.650   4.237   5.030  0.0739  0.2729 -0.2558
  725TIP3   OH223665   6.496   1.390  16.334  0.5005 -0.1304 -0.6253
  725TIP3    H123666   6.505   1.301  16.300 -0.7397  0.0374 -1.4620
  725TIP3    H223667   6.439   1.434  16.271  0.3598  0.9959  0.2623
  726TIP3   OH223668   4.932   5.976   4.947  0.3158  0.0634  0.3952
  726TIP3    H123669   4.996   6.030   4.902  0.7707 -0.3395  0.5435
  726TIP3    H223670   4.897   5.918   4.879 -0.9886  1.2587 -0.0106
  727TIP3   OH223671   1.184   1.988   5.090  0.7481 -0.6268 -0.1539
  727TIP3    H123672   1.184   1.929   5.165  1.6563 -0.7268 -0.2229
  727TIP3    H223673   1.231   2.066   5.120 -1.0482  0.4056  0.1756
  728TIP3   OH223674   5.111   2.869   5.133  0.5421 -0.4152  0.3303
  728TIP3    H123675   5.086   2.916   5.212 -1.8256  0.1677 -0.6920
  728TIP3    H223676   5.142   2.938   5.073  0.5764 -0.6118  0.1194
  729TIP3   OH223677   4.445   0.231   3.479 -0.4872 -0.6874 -0.0016
  729TIP3    H123678   4.366   0.255   3.527 -1.5538 -1.1432 -1.4548
  729TIP3    H223679   4.482   0.158   3.529  0.3190  0.9815  1.9542
  730TIP3   OH223680   2.595   5.052  11.799 -0.2118  0.2086 -0.0111
  730TIP3    H123681   2.570   5.012  11.882 -0.0261  0.6159  0.2435
  730TIP3    H223682   2.657   5.120  11.823 -0.9407  1.0256 -0.3793
  731TIP3   OH223683   5.932   3.907   3.045 -0.3913 -0.0014 -0.4751
  731TIP3    H123684   5.881   3.964   2.986 -1.9354 -1.5774 -0.7353
  731TIP3    H223685   6.015   3.895   3.000  0.3239  2.6561 -0.0410
  732TIP3   OH223686   2.849   1.208   0.639  0.1110  0.4554 -0.2065
  732TIP3    H123687   2.904   1.129   0.643  0.1337  0.5464  2.5881
  732TIP3    H223688   2.894   1.265   0.576 -0.3570 -1.9877 -3.0184
  733TIP3   OH223689   0.587   5.228  16.664 -0.0621  0.3792  0.2106
  733TIP3    H123690   0.598   5.314  16.624 -2.5120  0.2331 -1.0201
  733TIP3    H223691   0.497   5.229  16.697 -0.0991 -1.6512  0.2960
  734TIP3   OH223692   0.945   3.248   5.128  0.1557 -0.3211 -0.6135
  734TIP3    H123693   0.934   3.341   5.147  2.7286  0.3143 -1.7392
  734TIP3    H223694   0.963   3.208   5.213 -0.0551  0.3657 -0.2351
  735TIP3   OH223695   1.138   6.765  15.523  0.2625  0.3537 -0.4113
  735TIP3    H123696   1.099   6.727  15.601 -0.5769 -0.0046 -0.9894
  735TIP3    H223697   1.096   6.719  15.450 -1.2407  2.7403 -1.1658
  736TIP3   OH223698   0.150   3.141   1.914 -0.1831 -0.8703 -0.7444
  736TIP3    H123699   0.154   3.158   1.820 -0.6233  0.2393 -0.5699
  736TIP3    H223700   0.167   3.226   1.954 -0.7447 -1.1899  0.1792
  737TIP3   OH223701   6.338   5.821   1.631  0.1536 -0.5646 -0.5905
  737TIP3    H123702   6.390   5.881   1.684  1.1280 -1.0858 -0.9295
  737TIP3    H223703   6.253   5.863   1.622  1.3932  1.7490 -2.5371
  738TIP3   OH223704   1.229   0.892  13.600  0.8968  0.0048 -0.3366
  738TIP3    H123705   1.266   0.959  13.657  1.5550  0.3149 -1.1005
  738TIP3    H223706   1.136   0.915  13.594  1.2892  1.4674 -1.3658
  739TIP3   OH223707   4.879   5.991  16.627 -0.0901 -0.1256  0.1195
  739TIP3    H123708   4.927   5.909  16.616  0.0532 -0.0546  0.2239
  739TIP3    H223709   4.881   6.031  16.540 -1.6185 -1.0273 -0.3937
  740TIP3   OH223710   5.865   2.887   6.601 -0.4109 -0.1438  0.7479
  740TIP3    H123711   5.808   2.962   6.618 -2.8226 -1.8145  0.5552
  740TIP3    H223712   5.826   2.815   6.651  1.6448 -1.3579  0.7128
  741TIP3   OH223713   1.229   6.855  16.413  0.9638  0.5556  0.0769
  741TIP3    H123714   1.319   6.852  16.382  0.6646  1.5381 -0.9498
  741TIP3    H223715   1.186   6.781  16.369  0.8773  1.1122 -0.8037
  742TIP3   OH223716   3.608   0.512  15.843  0.3968  0.3528  0.0039
  742TIP3    H123717   3.527   0.562  15.830  1.5118  2.0190 -1.0163
  742TIP3    H223718   3.652   0.556  15.916  0.4132 -0.5413  0.5508
  743TIP3   OH223719   5.645   2.841  11.095 -0.5070  0.3435  0.3058
  743TIP3    H123720   5.598   2.923  11.109 -2.2778 -0.6155  0.3163
  743TIP3    H223721   5.725   2.866  11.050  0.4659  2.3934  2.9545
  744TIP3   OH223722   2.975   6.716  10.369  0.3657 -0.2550  0.1231
  744TIP3    H123723   2.988   6.752  10.281 -1.2167 -0.4307 -0.2128
  744TIP3    H223724   3.042   6.758  10.422  1.1708  0.0704 -1.1062
  745TIP3   OH223725   2.871   5.257   5.513  0.4678 -0.0061  0.2849
  745TIP3    H123726   2.857   5.351   5.528  0.5215  0.1244 -0.4753
  745TIP3    H223727   2.896   5.224   5.600  0.4526  0.6791  0.5648
  746TIP3   OH223728   1.556   5.691  15.117 -0.2712 -0.0306 -0.2815
  746TIP3    H123729   1.488   5.673  15.052 -2.1276  2.5768  0.7413
  746TIP3    H223730   1.576   5.606  15.155 -1.6559 -1.1437 -1.8659
  747TIP3   OH223731   0.450   4.961  15.431 -0.0648 -0.0805  0.1709
  747TIP3    H123732   0.372   4.919  15.467 -1.0789 -0.0941 -1.8602
  747TIP3    H223733   0.501   4.888  15.395  0.0307  0.0795 -0.0186
  748TIP3   OH223734   4.226   4.333   3.440  0.0025 -0.2414 -0.1644
  748TIP3    H123735   4.259   4.243   3.439  0.0429 -0.2268 -0.9476
  748TIP3    H223736   4.287   4.380   3.496 -0.9243 -1.0191  1.5670
  749TIP3   OH223737   5.804   1.930  11.544 -0.0098 -0.7930 -0.3058
  749TIP3    H123738   5.840   1.867  11.606 -2.0974 -1.1551  0.6352
  749TIP3    H223739   5.730   1.884  11.504 -1.6023  1.0183  0.4024
  750TIP3   OH223740   4.310   5.906  16.431  0.2307  0.3281 -0.5270
  750TIP3    H123741   4.261   5.919  16.350 -1.1512  1.9010  0.5048
  750TIP3    H223742   4.386   5.964  16.424 -0.6588  1.5720 -0.1123
  751TIP3   OH223743   0.519   0.569   1.607 -0.2550  0.3008 -0.0064
  751TIP3    H123744   0.534   0.477   1.586 -1.3347  0.2492 -0.6026
  751TIP3    H223745   0.445   0.569   1.667 -0.5043  0.7992 -0.3023
  752TIP3   OH223746   3.464   3.686   6.368  0.1658 -1.0394  0.1663
  752TIP3    H123747   3.424   3.696   6.455  0.4240  1.5042  0.0881
  752TIP3    H223748   3.554   3.661   6.387  0.2034 -0.5740  0.6533
  753TIP3   OH223749   5.851   6.506   1.554  0.0655  0.0930 -0.3674
  753TIP3    H123750   5.832   6.448   1.480 -1.3673 -0.3058  0.2667
  753TIP3    H223751   5.871   6.446   1.626 -0.9751  0.3731  0.1796
  754TIP3   OH223752   0.456   4.700  14.957 -0.5051 -0.1653 -0.1046
  754TIP3    H123753   0.542   4.658  14.954 -0.7341 -0.6282 -0.3896
  754TIP3    H223754   0.394   4.628  14.945 -0.9057  0.2694 -0.7159
  755TIP3   OH223755   6.360   0.796   3.906 -0.2443 -0.1007  0.1158
  755TIP3    H123756   6.429   0.817   3.969 -0.9293 -1.3693  1.3664
  755TIP3    H223757   6.284   0.777   3.961 -0.4236 -2.9181 -0.9577
  756TIP3   OH223758   3.193   6.313  11.616  0.1584 -0.2742  0.5394
  756TIP3    H123759   3.105   6.279  11.634 -0.0165  0.9484  2.2893
  756TIP3    H223760   3.251   6.240  11.637 -0.4248 -1.4073 -1.5234
  757TIP3   OH223761   2.189   3.538  12.514 -0.3559 -0.2281  0.0995
  757TIP3    H123762   2.276   3.497  12.511 -0.1662  0.0970  0.9587
  757TIP3    H223763   2.132   3.472  12.553 -0.0816  0.2460  1.3423
  758TIP3   OH223764   2.721   1.686  12.307  0.5558 -0.3089  0.4017
  758TIP3    H123765   2.739   1.750  12.238  0.8054 -0.4747  0.3103
  758TIP3    H223766   2.798   1.630  12.308  0.4825 -0.4050  0.7094
  759TIP3   OH223767   5.900   6.778   2.143  0.3820  0.3696  0.1826
  759TIP3    H123768   5.846   6.793   2.066  1.4047  1.5731 -0.3428
  759TIP3    H223769   5.895   6.860   2.193  1.7921  0.5783  0.0351
  760TIP3   OH223770   4.335   5.224  14.432 -0.1262  0.1722  0.2445
  760TIP3    H123771   4.400   5.245  14.365 -0.9978  1.1026 -0.3507
  760TIP3    H223772   4.383   5.228  14.515  0.8511 -0.4811 -0.2767
  761TIP3   OH223773   5.942   6.855  13.357  0.3278  0.2244 -0.0559
  761TIP3    H123774   5.906   6.800  13.288  1.4087 -1.1644  0.4573
  761TIP3    H223775   5.867   6.874  13.414  0.4541 -3.6132  1.6646
  762TIP3   OH223776   6.709   3.205  11.653 -0.5578  0.6251  0.5380
  762TIP3    H123777   6.749   3.120  11.632 -3.3491 -0.4819 -0.9075
  762TIP3    H223778   6.780   3.268  11.643  1.4497 -1.4255  0.9282
  763TIP3   OH223779   2.664   3.857  15.688 -0.4730  0.0508  0.1185
  763TIP3    H123780   2.689   3.794  15.755 -0.3790  0.0782  0.1081
  763TIP3    H223781   2.606   3.807  15.630 -0.4350 -0.0130  0.1352
  764TIP3   OH223782   1.768   4.120  11.831  0.6132  0.7533 -0.4204
  764TIP3    H123783   1.674   4.138  11.832 -0.3187 -3.0446 -1.7746
  764TIP3    H223784   1.809   4.206  11.822 -2.7180  2.5228 -0.2675
  765TIP3   OH223785   1.649   6.134   2.480  0.6982  0.1516 -0.1208
  765TIP3    H123786   1.565   6.166   2.448  1.2841  0.9029 -0.9476
  765TIP3    H223787   1.689   6.211   2.521  0.3507 -0.5620  1.6995
  766TIP3   OH223788   1.520   2.010   5.451  0.2774  0.0785  0.1976
  766TIP3    H123789   1.587   2.023   5.383 -0.6006 -0.6938 -0.8562
  766TIP3    H223790   1.543   1.927   5.492  1.2593  0.9217  1.4175
  767TIP3   OH223791   0.122   0.303  16.891 -0.3424 -0.5562 -1.0509
  767TIP3    H123792   0.065   0.377  16.911 -0.8126 -1.3373  0.7026
  767TIP3    H223793   0.189   0.306  16.959 -0.8193 -2.1494 -0.4641
  768TIP3   OH223794   3.871   6.222  12.604  0.3699  1.3051  0.4855
  768TIP3    H123795   3.848   6.273  12.683  1.2766 -0.0774  1.6908
  768TIP3    H223796   3.786   6.192  12.570  0.0022  1.2948  1.3776
  769TIP3   OH223797   0.025   6.073   3.213  0.7160  0.2831 -0.2525
  769TIP3    H123798   0.080   5.998   3.237  1.2821  0.8318  0.2023
  769TIP3    H223799   0.038   6.082   3.119 -0.3823 -0.9826 -0.5670
  770TIP3   OH223800   6.090   6.079  15.414 -0.0378  0.3240 -0.1287
  770TIP3    H123801   6.074   5.988  15.441 -2.1664  0.3829 -1.0392
  770TIP3    H223802   6.099   6.127  15.496 -0.8534 -0.4006  0.4041
  771TIP3   OH223803   6.216   6.793   0.279 -0.3780  0.0236 -0.2287
  771TIP3    H123804   6.179   6.769   0.363  1.1864  1.4412  0.9507
  771TIP3    H223805   6.285   6.856   0.301 -1.2588  2.0059 -2.7258
  772TIP3   OH223806   1.024   3.832   1.005 -0.2485  0.3377 -0.6988
  772TIP3    H123807   1.001   3.917   0.967  0.5444  0.7831 -0.2074
  772TIP3    H223808   1.069   3.787   0.933 -0.2690  0.5078 -0.8213
  773TIP3   OH223809   5.224   2.530   2.251  0.2411 -0.3531  0.2921
  773TIP3    H123810   5.233   2.575   2.167 -0.4653  0.2603  0.5242
  773TIP3    H223811   5.160   2.460   2.234 -1.4385  0.9902  0.7332
  774TIP3   OH223812   3.752   6.849  13.039 -0.0311 -0.6846 -0.0912
  774TIP3    H123813   3.683   6.787  13.016  0.7768 -1.3969 -0.6322
  774TIP3    H223814   3.754   6.911  12.966 -0.7811 -0.0414  0.4107
  775TIP3   OH223815   5.828   3.858  11.447  0.5914  0.6149 -0.2073
  775TIP3    H123816   5.917   3.843  11.478  0.8699 -0.6319 -1.5128
  775TIP3    H223817   5.772   3.827  11.518  1.1247  3.0828  1.4013
  776TIP3   OH223818   5.308   6.525  14.471  0.5521  1.3692  0.9694
  776TIP3    H123819   5.379   6.527  14.408 -1.0923  1.4264 -0.9860
  776TIP3    H223820   5.231   6.551  14.421 -1.7640 -2.9616  1.7224
  777TIP3   OH223821   0.037   1.821  12.958 -0.0013 -0.0187 -0.3631
  777TIP3    H123822   0.016   1.728  12.971  1.0016 -0.3502 -0.9549
  777TIP3    H223823   0.066   1.825  12.866  0.4913  0.7713 -0.1763
  778TIP3   OH223824   5.679   3.726  16.576 -0.3011  0.0663 -0.1602
  778TIP3    H123825   5.714   3.663  16.640  0.8008  2.3475  1.6626
  778TIP3    H223826   5.742   3.723  16.503 -0.0055 -0.6015  0.1133
  779TIP3   OH223827   5.246   5.616  12.958  0.0978  0.2828  0.1351
  779TIP3    H123828   5.171   5.619  13.018 -1.3541  2.2943 -1.6303
  779TIP3    H223829   5.221   5.553  12.891 -1.2044  2.6391 -1.7519
  780TIP3   OH223830   4.714   1.524  10.316  0.1548 -0.4035  0.3856
  780TIP3    H123831   4.675   1.577  10.245  1.6622  1.2085  0.6968
  780TIP3    H223832   4.652   1.534  10.388  0.0950  0.4426  0.2377
  781TIP3   OH223833   3.674   5.283   5.987  0.2560 -0.2920 -0.0255
  781TIP3    H123834   3.631   5.243   5.912  1.6737  0.6755 -1.4169
  781TIP3    H223835   3.635   5.240   6.063 -1.7992 -0.7235 -1.2562
  782TIP3   OH223836   2.199   0.715   2.563 -0.0546 -0.5049  0.5608
  782TIP3    H123837   2.214   0.706   2.468 -0.5319 -0.9491  0.5191
  782TIP3    H223838   2.275   0.673   2.603  1.5355  2.0653  0.4182
  783TIP3   OH223839   6.497   2.613   1.084  0.0066 -0.2476  0.0284
  783TIP3    H123840   6.532   2.526   1.067  2.6412  0.4673  1.1346
  783TIP3    H223841   6.474   2.612   1.177  1.4387  0.5960  0.4242
  784TIP3   OH223842   1.139   2.444   1.803 -0.4815 -0.2110 -0.0441
  784TIP3    H123843   1.131   2.350   1.818 -2.7425 -0.1791 -0.6467
  784TIP3    H223844   1.050   2.473   1.783 -0.0259  2.2398  1.0657
  785TIP3   OH223845   3.742   4.709   3.869  0.1734  0.2358  0.3042
  785TIP3    H123846   3.789   4.750   3.942 -1.4317  1.5487  0.6575
  785TIP3    H223847   3.700   4.782   3.824 -0.5909 -0.7826 -0.6697
  786TIP3   OH223848   6.140   5.867   0.142 -0.0825  0.0796 -0.2548
  786TIP3    H123849   6.115   5.839   0.053  1.5318 -2.4739 -0.0238
  786TIP3    H223850   6.231   5.895   0.133 -0.7433  2.6368  0.1527
  787TIP3   OH223851   4.170   5.000  15.222 -0.1763 -0.3360 -0.1935
  787TIP3    H123852   4.100   4.974  15.162  0.1364 -2.1477  0.1831
  787TIP3    H223853   4.186   4.923  15.276  3.0384 -0.4928 -1.1459
  788TIP3   OH223854   2.295   3.181  12.304 -0.0216  0.4379 -0.2597
  788TIP3    H123855   2.218   3.224  12.342 -0.0199 -1.3888  2.0121
  788TIP3    H223856   2.343   3.252  12.262 -2.7010  1.7132 -1.4126
  789TIP3   OH223857   5.729   5.677  10.492  0.2927  0.2513 -0.1832
  789TIP3    H123858   5.730   5.604  10.431 -0.2526  0.7119 -0.7498
  789TIP3    H223859   5.818   5.680  10.528 -0.0266 -1.5619  0.9051
  790TIP3   OH223860   2.351   4.771  14.154 -0.6106 -0.3237 -0.0474
  790TIP3    H123861   2.404   4.749  14.077  1.1088 -1.1787  1.2983
  790TIP3    H223862   2.395   4.726  14.226 -2.9206 -0.6496  1.2479
  791TIP3   OH223863   1.441   4.021   1.433 -0.0078  0.3691  0.5683
  791TIP3    H123864   1.493   3.964   1.376 -0.8900 -0.0577  0.1670
  791TIP3    H223865   1.352   3.986   1.426 -0.5533  1.7524  0.3809
  792TIP3   OH223866   1.289   5.889  13.548 -0.8686 -0.6670  0.1351
  792TIP3    H123867   1.281   5.887  13.643 -1.0115 -1.8472  0.1145
  792TIP3    H223868   1.282   5.797  13.521 -1.2398 -0.3132 -1.0479
  793TIP3   OH223869   0.874   6.509  14.803 -0.0521 -0.3581  0.4207
  793TIP3    H123870   0.936   6.450  14.759 -1.7615 -1.5589 -0.5320
  793TIP3    H223871   0.840   6.565  14.733  0.2857  0.6076  1.0147
  794TIP3   OH223872   3.149   1.924   0.160 -0.0783 -0.5093 -0.0694
  794TIP3    H123873   3.238   1.938   0.127  1.1043 -2.3368  2.0216
  794TIP3    H223874   3.123   1.840   0.124 -0.7906 -0.2119 -0.2699
  795TIP3   OH223875   4.046   1.286  15.764  0.1775  0.4455  0.2209
  795TIP3    H123876   4.092   1.305  15.846  1.4266 -0.9477 -0.1088
  795TIP3    H223877   3.979   1.222  15.789 -0.4957  1.2166  0.4144
  796TIP3   OH223878   0.415   4.611  11.969  0.1186 -0.4584 -0.6695
  796TIP3    H123879   0.342   4.660  11.930 -0.2246  2.1106  2.7330
  796TIP3    H223880   0.493   4.657  11.939  0.0454 -0.3493 -0.6922
  797TIP3   OH223881   3.589   3.536   2.071  0.5307  0.3517 -0.5557
  797TIP3    H123882   3.671   3.532   2.022 -0.0866 -2.2010 -1.5173
  797TIP3    H223883   3.606   3.484   2.150 -0.7992 -2.4082 -1.9492
  798TIP3   OH223884   1.637   4.752   6.658  0.0995  0.0924  0.3471
  798TIP3    H123885   1.635   4.687   6.728 -0.7003 -0.5915 -0.2904
  798TIP3    H223886   1.557   4.803   6.671 -0.5030 -0.5928 -0.5671
  799TIP3   OH223887   0.750   4.015  13.711  0.2690  0.2795  0.2350
  799TIP3    H123888   0.707   4.083  13.762  1.1823  0.5207  0.7068
  799TIP3    H223889   0.686   3.944  13.706  0.3293  0.0369  2.1877
  800TIP3   OH223890   3.691   1.794  13.423  0.1406  0.3581  0.2483
  800TIP3    H123891   3.682   1.886  13.447 -0.4608  0.4406 -0.2836
  800TIP3    H223892   3.609   1.772  13.378 -1.4653 -1.4481  3.6134
  801TIP3   OH223893   5.745   0.181  12.164 -0.3827  1.0464 -0.3623
  801TIP3    H123894   5.800   0.227  12.228 -0.3782  0.0813  0.3514
  801TIP3    H223895   5.657   0.183  12.203 -0.3387  0.2609 -0.2020
  802TIP3   OH223896   2.765   2.032   1.060  0.3011 -0.2196 -0.2144
  802TIP3    H123897   2.789   2.114   1.016  1.2470 -0.7163 -0.6617
  802TIP3    H223898   2.736   1.975   0.989 -0.9690 -0.0762  0.1717
  803TIP3   OH223899   2.888   6.560   3.725  0.1408 -0.2740  0.2460
  803TIP3    H123900   2.900   6.467   3.703 -2.2605 -0.3376 -1.0258
  803TIP3    H223901   2.796   6.568   3.749  0.2475  1.8465  0.1196
  804TIP3   OH223902   1.379   6.138   0.725 -0.3231  0.2154  0.3421
  804TIP3    H123903   1.462   6.127   0.680  0.4163  0.7973  1.5273
  804TIP3    H223904   1.316   6.157   0.655 -0.1316 -3.1982 -0.9556
  805TIP3   OH223905   3.647   0.180   2.245  0.2386 -0.9846  0.2623
  805TIP3    H123906   3.733   0.212   2.218  0.1954 -1.6649 -0.7235
  805TIP3    H223907   3.664   0.132   2.326  0.8072 -1.2121  0.0147
  806TIP3   OH223908   6.739   3.371   3.201 -0.3792 -0.5811 -0.4418
  806TIP3    H123909   6.797   3.422   3.257 -0.4426 -0.5815 -0.3758
  806TIP3    H223910   6.652   3.385   3.238 -0.2327 -1.9327  0.4856
  807TIP3   OH223911   3.201   6.148   6.241 -0.1285 -0.2266 -0.2835
  807TIP3    H123912   3.144   6.187   6.307  0.5748  0.2764  0.0354
  807TIP3    H223913   3.268   6.101   6.291  0.8427  0.7650 -0.6027
  808TIP3   OH223914   3.451   2.863   6.476  0.0132 -0.4135 -0.3075
  808TIP3    H123915   3.495   2.838   6.558 -1.7580 -0.7109  0.5995
  808TIP3    H223916   3.444   2.781   6.428 -2.6356 -1.1244  1.1192
  809TIP3   OH223917   0.759   4.084   2.861 -0.4500 -0.0810  0.8015
  809TIP3    H123918   0.701   4.159   2.877  0.5448  1.3760 -1.7947
  809TIP3    H223919   0.716   4.035   2.791  0.0668 -0.6305  0.8611
  810TIP3   OH223920   3.013   3.891   3.168  0.0380 -1.0080 -0.0890
  810TIP3    H123921   3.063   3.921   3.092 -0.1216  1.1600  0.5959
  810TIP3    H223922   3.047   3.943   3.241 -2.8104  0.1945  0.5039
  811TIP3   OH223923   0.892   4.469   3.526  0.4565 -0.5340 -0.0042
  811TIP3    H123924   0.833   4.480   3.600  0.3603  0.8036 -0.2476
  811TIP3    H223925   0.834   4.453   3.451  0.4034  0.3122 -0.1596
  812TIP3   OH223926   2.280   0.799   5.035 -0.0117 -0.1740  0.2165
  812TIP3    H123927   2.235   0.820   4.952  1.1317  1.4584 -0.0280
  812TIP3    H223928   2.233   0.850   5.101  0.0062 -0.3228  0.3436
  813TIP3   OH223929   6.510   6.731  11.558  0.4315 -0.1134  0.2776
  813TIP3    H123930   6.550   6.809  11.519 -2.5735  1.9518  0.9984
  813TIP3    H223931   6.548   6.727  11.646 -0.4084  1.4487  0.7475
  814TIP3   OH223932   6.821   2.794   1.925  0.2255 -0.5491  0.1780
  814TIP3    H123933   6.895   2.751   1.968 -0.5844 -3.1929 -0.8388
  814TIP3    H223934   6.749   2.789   1.988 -0.6520 -3.4395 -0.8589
  815TIP3   OH223935   2.950   1.972  13.833  0.5271 -0.4747  0.0882
  815TIP3    H123936   2.864   1.931  13.836  0.7428 -0.9167  0.3828
  815TIP3    H223937   2.991   1.937  13.753  0.8556 -1.1489  0.5363
  816TIP3   OH223938   1.798   6.783   4.238 -0.0425 -0.4393  0.0365
  816TIP3    H123939   1.873   6.731   4.209  0.4623  0.6315 -0.6148
  816TIP3    H223940   1.832   6.836   4.309 -0.1572  0.0961 -0.3033
  817TIP3   OH223941   1.469   3.800  13.552  0.1907  0.0913  0.6215
  817TIP3    H123942   1.382   3.782  13.587  0.1762  0.7172  0.9236
  817TIP3    H223943   1.514   3.716  13.555 -0.2048 -0.1100  1.0267
  818TIP3   OH223944   4.624   5.745  13.264 -0.2031  0.3047 -0.6407
  818TIP3    H123945   4.690   5.768  13.198  0.6586  1.8241  0.6668
  818TIP3    H223946   4.675   5.727  13.342 -1.2855  0.1346  0.0380
  819TIP3   OH223947   6.816   2.714   5.969 -0.2008  0.3289  0.0836
  819TIP3    H123948   6.892   2.767   5.946 -1.2378  2.4939  1.3789
  819TIP3    H223949   6.813   2.715   6.065 -1.4230 -0.3583  0.0808
  820TIP3   OH223950   1.052   0.796  16.701  0.1401 -0.5634  0.0129
  820TIP3    H123951   1.021   0.826  16.786 -1.3338 -0.5254 -0.5172
  820TIP3    H223952   1.073   0.704  16.713  0.7255 -0.3607  0.6073
  821TIP3   OH223953   5.506   3.259  13.153  0.0284 -0.3170  0.0936
  821TIP3    H123954   5.588   3.210  13.160 -0.4829 -1.0509  1.2267
  821TIP3    H223955   5.452   3.207  13.093  0.1901 -0.1157 -0.2289
  822TIP3   OH223956   4.303   1.997  12.267  0.4919  0.7147  0.1276
  822TIP3    H123957   4.385   2.008  12.315  0.5562 -2.7382  1.0679
  822TIP3    H223958   4.325   1.937  12.196 -1.1921 -0.1191  0.2784
  823TIP3   OH223959   6.614   4.432  11.201 -0.7878  0.3654  0.1777
  823TIP3    H123960   6.575   4.357  11.156 -2.3023  0.7196  0.8344
  823TIP3    H223961   6.609   4.409  11.294 -0.0981  0.7548  0.3171
  824TIP3   OH223962   5.248   5.286   1.320 -0.1981 -0.5805 -0.4684
  824TIP3    H123963   5.290   5.280   1.234 -0.8844  0.0908 -0.8664
  824TIP3    H223964   5.311   5.333   1.375 -0.7494  1.2199 -1.3017
  825TIP3   OH223965   4.530   0.340  13.844 -0.4237 -0.1523 -0.5010
  825TIP3    H123966   4.552   0.250  13.867  0.1661  0.2087  0.3752
  825TIP3    H223967   4.562   0.351  13.754  1.0840 -0.2833  0.0030
  826TIP3   OH223968   6.575   6.279   5.096  0.1319  0.3390  0.2333
  826TIP3    H123969   6.611   6.235   5.019 -0.0287 -0.8318  0.7957
  826TIP3    H223970   6.650   6.289   5.155  0.1979  0.9694  0.0459
  827TIP3   OH223971   6.214   6.573   6.456  0.0001 -0.5350  0.1896
  827TIP3    H123972   6.196   6.611   6.369  1.0779  0.8093  0.5085
  827TIP3    H223973   6.128   6.542   6.487 -0.9830  1.6539 -0.1371
  828TIP3   OH223974   4.469   3.445  14.853 -0.3404 -1.1982  0.3081
  828TIP3    H123975   4.459   3.398  14.936  1.5106 -1.6789  0.2936
  828TIP3    H223976   4.563   3.450  14.839 -0.4429  2.0778  0.0368
  829TIP3   OH223977   0.697   1.373   1.732 -0.8543 -0.3761  0.9218
  829TIP3    H123978   0.615   1.341   1.694 -0.2481  2.2808 -3.1860
  829TIP3    H223979   0.679   1.465   1.753  1.1909  0.5102 -0.8550
  830TIP3   OH223980   6.231   6.773  15.972 -0.1559  0.8429 -0.0606
  830TIP3    H123981   6.165   6.843  15.977 -1.4308 -0.3432  0.7246
  830TIP3    H223982   6.200   6.708  16.035  1.8220  0.2443  0.3510
  831TIP3   OH223983   3.870   1.196   3.202  0.8071  0.4123 -0.9198
  831TIP3    H123984   3.870   1.220   3.109  2.7008  0.3677 -0.9859
  831TIP3    H223985   3.963   1.183   3.222  0.4370  0.6119  1.0360
  832TIP3   OH223986   0.566   6.074   5.005  0.1262 -0.4425  0.4391
  832TIP3    H123987   0.478   6.097   4.977  1.0790  1.7403 -1.0329
  832TIP3    H223988   0.622   6.095   4.930  2.2547  1.1945  2.3170
  833TIP3   OH223989   5.804   2.230   5.381 -0.8234  0.3577  0.1256
  833TIP3    H123990   5.896   2.219   5.358 -0.9051  0.8909 -0.4684
  833TIP3    H223991   5.768   2.141   5.378 -0.2431  0.0960  0.7648
  834TIP3   OH223992   0.058   0.744  14.070 -0.2276  0.3255 -0.0438
  834TIP3    H123993   0.092   0.817  14.121  0.3458 -1.4090  2.2120
  834TIP3    H223994   0.042   0.675  14.134 -1.2497 -1.3807 -2.0001
  835TIP3   OH223995   3.668   6.881  10.982 -0.3982 -0.5230 -0.2455
  835TIP3    H123996   3.763   6.886  10.989 -0.5731  0.6887  2.4213
  835TIP3    H223997   3.640   6.972  10.970 -1.2207 -0.9328 -1.6250
  836TIP3   OH223998   6.400   1.336   3.120  0.3266  0.8543  0.1774
  836TIP3    H123999   6.428   1.427   3.113  1.9969  0.3324 -0.2139
  836TIP3    H224000   6.403   1.317   3.214 -0.9084  1.4463  0.3536
  837TIP3   OH224001   1.094   3.570  13.763  0.1235 -0.0745  0.0459
  837TIP3    H124002   1.091   3.546  13.670 -0.6594  0.9845 -0.2236
  837TIP3    H224003   1.137   3.495  13.806 -0.4785 -1.0639 -1.0101
  838TIP3   OH224004   5.962   3.917  11.067  0.3532 -0.4829 -0.9150
  838TIP3    H124005   5.991   3.896  10.979  0.0875  1.1491 -1.4260
  838TIP3    H224006   6.041   3.913  11.121  0.6648 -0.6554 -1.3856
  839TIP3   OH224007   1.776   0.837  16.514  0.0479  0.9244 -0.4847
  839TIP3    H124008   1.813   0.760  16.558  0.6499  1.7426  0.4782
  839TIP3    H224009   1.764   0.809  16.423 -0.8018 -0.6624  0.0734
  840TIP3   OH224010   1.092   0.896  14.109 -0.5584  0.2005  0.2683
  840TIP3    H124011   1.044   0.846  14.044 -1.7299  0.3127  1.0179
  840TIP3    H224012   1.077   0.987  14.085 -1.0282  0.2424  0.7156
  841TIP3   OH224013   6.864   6.368  13.153  0.2864 -0.0621 -0.2344
  841TIP3    H124014   6.891   6.455  13.181 -0.8571 -0.0325  0.8543
  841TIP3    H224015   6.947   6.322  13.137  0.9814  0.5673  1.2775
  842TIP3   OH224016   3.245   5.324   2.891  0.0288 -0.3714 -0.1578
  842TIP3    H124017   3.205   5.403   2.854  0.8802  0.2030  0.1339
  842TIP3    H224018   3.238   5.335   2.985 -0.3023 -0.8896 -0.1176
  843TIP3   OH224019   3.302   0.425   0.242 -0.5022 -0.1708  0.0416
  843TIP3    H124020   3.221   0.421   0.190 -0.1347 -0.8038 -0.5037
  843TIP3    H224021   3.288   0.498   0.302 -1.4570 -0.2327 -0.0852
  844TIP3   OH224022   0.730   3.270  14.550  0.3815  0.1150  0.1748
  844TIP3    H124023   0.684   3.187  14.561  1.6110 -0.3358  2.7467
  844TIP3    H224024   0.822   3.248  14.564  0.9667  1.5897 -1.1377
  845TIP3   OH224025   4.587   5.979  16.381  0.3851 -0.9188  0.2243
  845TIP3    H124026   4.630   5.954  16.299  1.4272  1.3573 -0.0020
  845TIP3    H224027   4.600   5.904  16.439  0.1809 -2.3287 -1.4459
  846TIP3   OH224028   0.551   1.222  11.115 -0.0270  0.1232  0.3232
  846TIP3    H124029   0.506   1.294  11.071 -0.4150 -0.5841 -0.4741
  846TIP3    H224030   0.483   1.156  11.128  0.2173  0.0902  1.4933
  847TIP3   OH224031   1.011   1.860   0.575 -0.1987 -0.6249 -0.1002
  847TIP3    H124032   0.931   1.833   0.621  0.8293 -2.2354  0.8375
  847TIP3    H224033   1.038   1.941   0.619 -0.3381 -1.0465  0.7741
  848TIP3   OH224034   6.670   2.437   2.307  0.2110  0.1983  0.2845
  848TIP3    H124035   6.597   2.392   2.351  1.9466 -0.4061  2.7058
  848TIP3    H224036   6.655   2.530   2.324 -1.0598  0.2988 -1.0734
  849TIP3   OH224037   0.014   2.433  11.933 -0.7545  0.2569 -0.0042
  849TIP3    H124038   0.106   2.442  11.909  0.2611 -4.7116  0.9930
  849TIP3    H224039   0.012   2.445  12.028 -0.5465 -2.1182  0.3533
  850TIP3   OH224040   3.689   4.669   4.797 -0.0996 -0.0346 -0.3432
  850TIP3    H124041   3.731   4.647   4.714 -0.1621  0.5228 -0.5209
  850TIP3    H224042   3.604   4.624   4.792  0.0642 -0.3420 -0.4030
  851TIP3   OH224043   4.633   3.715   2.284  0.3630 -0.1495 -0.0901
  851TIP3    H124044   4.539   3.713   2.267  0.3072  1.2026 -0.0816
  851TIP3    H224045   4.666   3.632   2.249 -0.6917 -0.2172 -0.9807
  852TIP3   OH224046   1.133   4.670   3.126  0.0709 -0.4532 -0.3991
  852TIP3    H124047   1.152   4.683   3.219 -1.9355  0.1979 -0.0353
  852TIP3    H224048   1.153   4.755   3.085  0.6262 -0.6352 -0.5119
  853TIP3   OH224049   0.640   0.177   1.180 -0.2067  0.7613 -0.5485
  853TIP3    H124050   0.598   0.101   1.220  0.2796  0.0716 -1.3239
  853TIP3    H224051   0.715   0.195   1.237 -0.9110  1.3315  0.2300
  854TIP3   OH224052   3.864   4.907   1.246 -0.0193 -0.3443  0.0016
  854TIP3    H124053   3.869   4.984   1.303  0.0786 -0.6327  0.3833
  854TIP3    H224054   3.827   4.838   1.301  1.0715 -0.9240  0.0375
  855TIP3   OH224055   5.115   5.632  13.408  0.6451 -0.0408  0.3764
  855TIP3    H124056   5.177   5.607  13.476  1.3489  3.2612  1.1582
  855TIP3    H224057   5.042   5.671  13.456  1.3765  2.8210 -0.6452
  856TIP3   OH224058   3.710   5.182   4.139 -0.2321  0.7328  0.2353
  856TIP3    H124059   3.742   5.269   4.114 -0.1120  0.8812  0.8750
  856TIP3    H224060   3.694   5.189   4.233 -0.1113  0.0298  0.3144
  857TIP3   OH224061   5.353   0.592  15.393  0.7150 -0.8591  0.7330
  857TIP3    H124062   5.413   0.641  15.337  0.1667 -1.1494 -0.1257
  857TIP3    H224063   5.407   0.566  15.468  1.3151  0.0065  0.6189
  858TIP3   OH224064   5.089   5.380  10.935 -0.0481  0.2640  0.1045
  858TIP3    H124065   5.144   5.409  10.863  1.1291 -0.6065  0.6246
  858TIP3    H224066   5.003   5.367  10.895 -0.3119  3.0489 -0.4229
  859TIP3   OH224067   0.856   1.150  15.840  0.0124 -0.0862 -0.3094
  859TIP3    H124068   0.927   1.182  15.897 -0.6265  0.0738  0.4194
  859TIP3    H224069   0.873   1.057  15.831 -0.0252 -0.1699  0.3910
  860TIP3   OH224070   3.024   0.132   1.497  0.0872  0.2104 -0.2776
  860TIP3    H124071   3.005   0.120   1.589  2.8022  0.6788  0.4354
  860TIP3    H224072   3.026   0.227   1.484  1.3864  0.1843 -0.3860
  861TIP3   OH224073   1.313   0.764  14.555 -0.1509 -0.3588  0.0733
  861TIP3    H124074   1.246   0.718  14.504  0.2546 -1.3656  0.4181
  861TIP3    H224075   1.279   0.764  14.644 -0.3740  0.4624 -0.0074
  862TIP3   OH224076   0.559   1.372  13.698  0.1633 -0.5060 -0.3349
  862TIP3    H124077   0.601   1.455  13.721 -0.5988  0.2015 -1.3984
  862TIP3    H224078   0.465   1.389  13.709 -0.1296 -0.6237 -2.3677
  863TIP3   OH224079   5.275   1.516   0.974  0.5980  0.4496 -0.2568
  863TIP3    H124080   5.257   1.544   0.884  2.0811 -1.1353 -1.1262
  863TIP3    H224081   5.192   1.526   1.020  0.0642  2.2992 -1.5198
  864TIP3   OH224082   2.381   3.927   2.759 -0.1588  0.1678  0.9141
  864TIP3    H124083   2.455   3.977   2.722  0.4405 -2.3495 -1.6219
  864TIP3    H224084   2.311   3.992   2.766  0.6789  1.5497 -1.8258
  865TIP3   OH224085   2.710   5.693  16.503 -0.6664 -0.2952 -0.4481
  865TIP3    H124086   2.686   5.730  16.588 -0.7468 -0.0136 -0.5935
  865TIP3    H224087   2.806   5.688  16.505 -0.6562 -0.0775 -0.4293
  866TIP3   OH224088   3.752   2.321  16.279 -0.1049 -0.2281 -0.1448
  866TIP3    H124089   3.694   2.395  16.263  0.7731  0.4822 -0.0685
  866TIP3    H224090   3.838   2.359  16.293  0.2418 -1.2110  0.5767
  867TIP3   OH224091   5.520   5.823  16.421  0.4287 -0.1592  0.8027
  867TIP3    H124092   5.496   5.906  16.379  0.2804 -0.1936  0.8172
  867TIP3    H224093   5.613   5.814  16.405 -0.0971 -1.5981 -2.0435
  868TIP3   OH224094   2.968   2.649  12.521  0.3213 -0.6481 -0.0231
  868TIP3    H124095   3.050   2.616  12.557  0.3536 -1.0160 -0.4291
  868TIP3    H224096   2.914   2.571  12.510 -1.1108 -0.1805  2.7515
  869TIP3   OH224097   2.139   5.524   3.379  0.8417 -0.1907  0.2382
  869TIP3    H124098   2.124   5.585   3.451 -0.9608 -1.0780  0.6815
  869TIP3    H224099   2.168   5.443   3.421 -1.1944 -1.0328  0.1299
  870TIP3   OH224100   0.583   5.365  14.215 -0.3895 -0.1389  0.6908
  870TIP3    H124101   0.555   5.273  14.206 -0.6497 -0.2462  2.1912
  870TIP3    H224102   0.669   5.359  14.257  0.2698  0.2889 -0.5619
  871TIP3   OH224103   1.287   4.094  15.019 -0.6382  0.4172 -0.2563
  871TIP3    H124104   1.299   4.168  15.078 -1.1806  1.4667 -1.4189
  871TIP3    H224105   1.359   4.102  14.955  0.1879 -0.9358  0.4426
  872TIP3   OH224106   4.412   4.420   4.235 -0.0789 -0.0252  0.0368
  872TIP3    H124107   4.412   4.353   4.304  0.5340  0.6486  0.7035
  872TIP3    H224108   4.462   4.381   4.164 -1.0520 -0.8852 -0.2049
  873TIP3   OH224109   5.910   4.874   1.601 -0.2609  0.4288 -0.0408
  873TIP3    H124110   5.981   4.926   1.562 -1.0819  1.9288  0.3768
  873TIP3    H224111   5.833   4.931   1.597 -1.6678 -1.4270 -1.1651
  874TIP3   OH224112   2.617   0.840   4.451 -0.3171  0.6709  0.1427
  874TIP3    H124113   2.581   0.759   4.416  1.2355  0.1415 -0.3040
  874TIP3    H224114   2.633   0.895   4.374  1.1291  0.3294  0.1656
  875TIP3   OH224115   3.438   4.623   5.541 -0.7126 -0.1123 -0.1706
  875TIP3    H124116   3.522   4.576   5.542  0.4831  1.8101  2.6572
  875TIP3    H224117   3.460   4.709   5.504 -1.6557  0.0993 -0.2587
  876TIP3   OH224118   4.694   0.348   5.797  0.1968 -0.4203 -0.1284
  876TIP3    H124119   4.788   0.339   5.811  0.0215 -0.0491  1.4819
  876TIP3    H224120   4.658   0.361   5.885 -1.3995 -0.9216 -0.6774
  877TIP3   OH224121   3.736   3.783  14.830 -0.5065  0.1259  0.0750
  877TIP3    H124122   3.803   3.798  14.763 -0.0844  0.2892  0.5277
  877TIP3    H224123   3.676   3.720  14.790 -0.4653  0.4948 -0.5959
  878TIP3   OH224124   6.506   1.050  16.663  0.1697 -0.4461 -0.1480
  878TIP3    H124125   6.562   1.118  16.625 -0.1708  0.5723  1.0618
  878TIP3    H224126   6.486   1.084  16.751 -2.4173 -0.7130 -0.5681
  879TIP3   OH224127   3.809   1.680  13.168 -0.2119 -0.5573  0.1919
  879TIP3    H124128   3.864   1.752  13.138  0.7228 -1.1867  0.3377
  879TIP3    H224129   3.791   1.701  13.260 -0.0617 -0.4337  0.1945
  880TIP3   OH224130   0.561   4.307   3.484  0.0178 -0.1433  0.0529
  880TIP3    H124131   0.616   4.294   3.561  0.2976  0.1627 -0.0909
  880TIP3    H224132   0.619   4.347   3.420  0.3812 -2.2901 -1.0624
  881TIP3   OH224133   0.307   0.191  15.647 -0.3341  0.3171  0.2215
  881TIP3    H124134   0.267   0.150  15.724  0.2767  0.7811  0.7944
  881TIP3    H224135   0.273   0.280  15.646 -0.7728  0.1542 -0.3774
  882TIP3   OH224136   2.329   5.074   2.716  0.3170  0.0692 -0.3965
  882TIP3    H124137   2.295   5.125   2.642 -0.7023 -2.0253 -1.4581
  882TIP3    H224138   2.368   5.139   2.774  0.1512  1.9150 -2.2347
  883TIP3   OH224139   3.167   4.750   3.361 -0.9235  0.4649 -0.1833
  883TIP3    H124140   3.184   4.706   3.278  2.0146 -0.9052  1.0169
  883TIP3    H224141   3.097   4.699   3.401  0.3090 -1.2960 -0.1717
  884TIP3   OH224142   6.424   3.208   2.293  0.0207 -0.7171 -0.5376
  884TIP3    H124143   6.364   3.156   2.345  0.8810 -0.0822  1.1741
  884TIP3    H224144   6.487   3.145   2.257  0.2045 -1.0271  0.3161
  885TIP3   OH224145   2.688   1.361  14.634  0.4080 -0.3256  0.3074
  885TIP3    H124146   2.690   1.318  14.549 -0.5294  0.4141 -0.1038
  885TIP3    H224147   2.690   1.288  14.697  1.8476 -0.8524 -0.3131
  886TIP3   OH224148   0.043   5.909  11.321  0.1636 -0.1406 -0.0621
  886TIP3    H124149  -0.053   5.908  11.316  0.2023 -1.0041 -1.0966
  886TIP3    H224150   0.063   5.918  11.414 -0.9158  0.7131  0.1023
  887TIP3   OH224151   2.484   1.731  11.288 -0.6338 -0.4114  0.2421
  887TIP3    H124152   2.390   1.719  11.304 -0.2785 -3.4577  0.6853
  887TIP3    H224153   2.496   1.826  11.285 -3.7210  0.0807  0.0893
  888TIP3   OH224154   4.857   3.437   5.094 -0.8059  1.0017  0.6050
  888TIP3    H124155   4.765   3.421   5.118 -0.9910  1.3136  0.1148
  888TIP3    H224156   4.869   3.531   5.108 -0.6552  1.0198  0.3560
  889TIP3   OH224157   1.157   5.020  16.165 -0.4639 -0.4682  0.8493
  889TIP3    H124158   1.110   4.938  16.178  1.4772 -2.4135 -2.8432
  889TIP3    H224159   1.093   5.079  16.126 -1.4033 -0.8375  1.7792
  890TIP3   OH224160   1.591   1.123   3.903  0.5984  0.6731 -0.6535
  890TIP3    H124161   1.515   1.135   3.960  0.7887  0.6727 -0.4010
  890TIP3    H224162   1.584   1.194   3.839 -0.0410  0.2092 -1.1053
  891TIP3   OH224163   2.819   6.153  13.359  0.4112  0.1130  0.2079
  891TIP3    H124164   2.900   6.183  13.319  0.0259  0.9821  0.0691
  891TIP3    H224165   2.847   6.088  13.424  1.1528 -0.1532 -0.3666
  892TIP3   OH224166   0.729   2.764   2.380  0.6820 -1.2288  0.2903
  892TIP3    H124167   0.750   2.819   2.305  2.8358 -0.8011  1.1290
  892TIP3    H224168   0.665   2.701   2.347  0.8708 -0.4784 -1.6293
  893TIP3   OH224169   2.656   1.871   0.848 -0.2591  0.0545 -0.0527
  893TIP3    H124170   2.659   1.776   0.848 -1.9630 -0.0507  1.0849
  893TIP3    H224171   2.576   1.893   0.800 -0.2643  0.8681  0.3039
  894TIP3   OH224172   1.900   6.162   1.866  0.2936  0.3575  0.3226
  894TIP3    H124173   1.818   6.140   1.910  0.9199  1.6842  2.2835
  894TIP3    H224174   1.966   6.107   1.908  0.6567  0.4187 -0.1549
  895TIP3   OH224175   2.033   5.355   2.492  0.4308  0.7271 -0.2369
  895TIP3    H124176   2.003   5.387   2.577 -1.3739  2.2664 -1.3770
  895TIP3    H224177   2.033   5.260   2.500 -2.5843  0.7032  0.6462
  896TIP3   OH224178   4.557   2.001  12.388  0.1658 -0.6715 -0.3300
  896TIP3    H124179   4.583   1.910  12.400  0.6495 -0.6485 -1.1638
  896TIP3    H224180   4.625   2.052  12.431  0.7236 -0.6602 -1.2093
  897TIP3   OH224181   4.366   1.761   1.913  0.5551 -0.0981 -0.4992
  897TIP3    H124182   4.297   1.808   1.960  0.0437 -0.6697 -0.6672
  897TIP3    H224183   4.440   1.821   1.912  0.9256 -0.4005  1.9032
  898TIP3   OH224184   6.802   6.694  12.931 -0.4984 -0.1646 -0.3979
  898TIP3    H124185   6.861   6.675  13.003  0.9221  0.6152 -1.3102
  898TIP3    H224186   6.769   6.782  12.949 -1.1529 -0.4689 -0.0627
  899TIP3   OH224187   6.363   1.367   3.877  0.3051 -0.0423  0.6253
  899TIP3    H124188   6.432   1.411   3.926 -1.2195  2.5424  0.5967
  899TIP3    H224189   6.406   1.340   3.795  1.7812 -0.5236  1.5149
  900TIP3   OH224190   4.138   1.152   0.977 -0.1261 -0.6986  0.4072
  900TIP3    H124191   4.159   1.081   0.916  0.1777 -0.1773 -0.1100
  900TIP3    H224192   4.170   1.231   0.933 -0.0271 -0.2977  1.1874
  901TIP3   OH224193   1.724   6.265  15.802  0.8637  0.0274 -0.1076
  901TIP3    H124194   1.651   6.213  15.837  0.1171 -0.0496 -1.6775
  901TIP3    H224195   1.700   6.356  15.823  1.9303 -0.1560  2.2026
  902TIP3   OH224196   3.935   4.960  11.629  0.1070  0.3686 -0.5728
  902TIP3    H124197   3.961   4.875  11.665  0.0960  0.5440 -0.1448
  902TIP3    H224198   3.843   4.948  11.603 -0.2857  0.6048  0.6421
  903TIP3   OH224199   0.903   3.821  12.051 -0.1645 -0.3475 -0.5280
  903TIP3    H124200   0.857   3.747  12.011  1.6380 -2.0129  0.3465
  903TIP3    H224201   0.931   3.875  11.977  0.2762 -1.6413 -1.3267
  904TIP3   OH224202   1.356   1.819  12.245 -0.1047 -0.3564 -0.1543
  904TIP3    H124203   1.341   1.879  12.318 -2.9130 -0.4153 -0.5711
  904TIP3    H224204   1.402   1.745  12.285 -0.1973  0.2866  1.2234
  905TIP3   OH224205   5.510   3.198   4.970  0.0792  0.4242 -0.1569
  905TIP3    H124206   5.554   3.277   4.940 -0.5319  0.2310 -1.6232
  905TIP3    H224207   5.460   3.225   5.047  1.1412  1.0839  0.3175
  906TIP3   OH224208   5.261   3.458   2.310 -0.1400  0.5481 -0.8099
  906TIP3    H124209   5.170   3.476   2.336 -0.5916 -0.3729 -1.6936
  906TIP3    H224210   5.312   3.524   2.357 -0.7267 -1.5531  3.2063
  907TIP3   OH224211   3.404   5.791  12.062  0.0435  0.1301 -0.0788
  907TIP3    H124212   3.479   5.842  12.031 -1.2936  2.2262 -0.0348
  907TIP3    H224213   3.392   5.723  11.995 -0.0200  1.8081 -1.8525
  908TIP3   OH224214   5.460   1.360  15.307 -0.7474  0.1116 -0.4051
  908TIP3    H124215   5.374   1.325  15.286 -0.2108 -1.6351  0.1278
  908TIP3    H224216   5.491   1.307  15.380  0.4393  1.2575 -0.0315
  909TIP3   OH224217   3.664   5.883  14.230 -0.4391 -0.2781  0.3836
  909TIP3    H124218   3.733   5.883  14.296  0.3920  1.4780 -0.3953
  909TIP3    H224219   3.644   5.976  14.216 -2.4410 -0.7066  0.0268
  910TIP3   OH224220   6.553   0.810   1.725 -0.5590 -0.4950  0.2537
  910TIP3    H124221   6.586   0.721   1.734  1.7314 -0.0658 -2.4102
  910TIP3    H224222   6.553   0.846   1.814 -0.3554 -2.7335  1.2067
  911TIP3   OH224223   6.369   4.169  14.141  0.5968  0.4375  0.7016
  911TIP3    H124224   6.393   4.181  14.232 -0.6900 -0.6775  1.2350
  911TIP3    H224225   6.283   4.126  14.144 -0.0317  1.4521 -1.0388
  912TIP3   OH224226   2.154   5.051  16.609  0.2610 -0.1071  0.1474
  912TIP3    H124227   2.245   5.076  16.596  0.2288 -0.5903 -1.1486
  912TIP3    H224228   2.157   4.958  16.629  0.0322 -0.2019 -0.2489
  913TIP3   OH224229   1.251   2.016  12.042 -0.3285  0.4579 -0.3448
  913TIP3    H124230   1.301   2.097  12.032 -0.5945  0.6625 -0.0421
  913TIP3    H224231   1.314   1.953  12.077 -0.5448  1.0392  1.1998
  914TIP3   OH224232   0.845   6.370  13.665  0.4309  0.8100 -0.1491
  914TIP3    H124233   0.767   6.416  13.634 -0.0335  0.3560  0.3236
  914TIP3    H224234   0.909   6.439  13.682  1.0365  1.0664 -2.9295
  915TIP3   OH224235   0.315   5.063  15.835 -0.2133  0.3171 -0.2958
  915TIP3    H124236   0.269   5.102  15.761 -2.1849 -0.7132  0.3118
  915TIP3    H224237   0.368   5.135  15.872  0.0129  1.0929 -2.0457
  916TIP3   OH224238   3.175   0.996  13.236 -1.0058 -0.2130 -0.3500
  916TIP3    H124239   3.156   0.951  13.318 -0.6105 -0.1411 -0.2147
  916TIP3    H224240   3.119   1.074  13.238 -0.9177 -0.1550 -0.0960
  917TIP3   OH224241   5.641   3.964   6.269  0.0943  0.3223  0.1020
  917TIP3    H124242   5.551   3.938   6.288  0.4167  0.1964  1.5179
  917TIP3    H224243   5.646   4.056   6.295 -0.2360  1.0692 -2.1838
  918TIP3   OH224244   4.751   5.690  15.258 -0.0489  0.2177 -0.4163
  918TIP3    H124245   4.779   5.669  15.347 -0.0121  1.0214 -0.2310
  918TIP3    H224246   4.818   5.650  15.202 -0.7580 -1.4176 -0.1615
  919TIP3   OH224247   3.276   2.783  13.440 -0.1178 -0.6098 -0.5576
  919TIP3    H124248   3.247   2.694  13.458  0.6374 -0.9352 -0.8756
  919TIP3    H224249   3.270   2.828  13.524 -1.5927 -0.6308 -0.6354
  920TIP3   OH224250   0.627   3.930  11.061 -0.6181 -0.3349  0.1196
  920TIP3    H124251   0.675   3.874  11.000  1.2769 -0.2423  1.4427
  920TIP3    H224252   0.594   4.002  11.006  0.6740 -0.4685 -0.8792
  921TIP3   OH224253   1.374   4.553  16.389 -0.2670 -0.2117 -0.0409
  921TIP3    H124254   1.400   4.619  16.324  0.2573 -0.2001  0.1806
  921TIP3    H224255   1.456   4.515  16.420 -0.5623 -1.0038 -0.1927
  922TIP3   OH224256   0.710   1.591  13.067 -0.0789  0.1213 -0.4718
  922TIP3    H124257   0.662   1.623  13.143 -0.3388 -3.2347  0.9522
  922TIP3    H224258   0.802   1.601  13.089 -0.1480  0.6527 -0.4274
  923TIP3   OH224259   2.428   3.519  13.118 -0.3410 -0.2323  0.1364
  923TIP3    H124260   2.412   3.464  13.195 -0.3630 -0.7660 -0.2519
  923TIP3    H224261   2.372   3.483  13.050  1.1178 -1.0138 -0.7218
  924TIP3   OH224262   2.032   4.048   0.778 -0.5731 -0.1678  0.0985
  924TIP3    H124263   1.963   3.987   0.806 -0.6736  0.1806  0.6352
  924TIP3    H224264   1.984   4.120   0.737 -0.4446 -0.5143 -0.6757
  925TIP3   OH224265   4.951   5.920   3.011  0.1366  0.1354  0.3600
  925TIP3    H124266   4.871   5.968   2.988  0.6454  0.8996  0.1957
  925TIP3    H224267   4.919   5.833   3.035 -0.6270 -0.0305 -1.1252
  926TIP3   OH224268   1.979   4.818   3.364 -0.1644  0.1523  0.5259
  926TIP3    H124269   1.976   4.872   3.442 -1.6335  0.4808  0.2745
  926TIP3    H224270   2.014   4.734   3.394 -1.7586 -0.1089  1.7953
  927TIP3   OH224271   1.014   1.775  12.802  0.0302 -0.3095  0.2200
  927TIP3    H124272   0.942   1.767  12.864 -0.3556  0.8726 -0.0393
  927TIP3    H224273   1.077   1.708  12.828  0.6453  1.1698  2.8985
  928TIP3   OH224274   6.154   4.093   5.334 -0.0331  0.7575 -0.1597
  928TIP3    H124275   6.249   4.106   5.327  0.5173 -2.5505 -1.0249
  928TIP3    H224276   6.136   4.020   5.274 -3.2835  1.7617 -0.5715
  929TIP3   OH224277   4.901   4.510  12.015  0.5872  0.2837 -1.1126
  929TIP3    H124278   4.856   4.454  12.079  2.0662  1.6849  1.2885
  929TIP3    H224279   4.887   4.466  11.931  1.5664 -3.6435  0.5537
  930TIP3   OH224280   4.915   6.869   3.446  0.7589 -0.0203 -0.0339
  930TIP3    H124281   4.850   6.889   3.379 -0.2413  1.4678  1.2971
  930TIP3    H224282   4.993   6.918   3.420 -0.6521  3.3795  1.4883
  931TIP3   OH224283   5.748   0.952  11.758  0.1629 -0.1773 -0.4439
  931TIP3    H124284   5.757   0.925  11.849 -2.7315 -0.3804 -0.1363
  931TIP3    H224285   5.736   0.870  11.709 -0.0535  0.0299 -0.7447
  932TIP3   OH224286   0.679   1.040   4.983 -0.1205  0.0986 -1.1385
  932TIP3    H124287   0.612   1.043   4.915 -2.7633  5.6461  1.0985
  932TIP3    H224288   0.645   0.979   5.047 -1.8563  0.8955 -1.2305
  933TIP3   OH224289   4.213   3.304   0.340  0.0538 -0.0091  1.2333
  933TIP3    H124290   4.268   3.265   0.408 -0.8218  0.8277  2.4730
  933TIP3    H224291   4.141   3.242   0.329 -0.5513  0.5034  2.1292
  934TIP3   OH224292   2.593   6.552  11.918 -0.5004 -0.1046 -0.0362
  934TIP3    H124293   2.656   6.623  11.905 -1.0742  0.5358  0.5559
  934TIP3    H224294   2.513   6.596  11.946 -0.8129 -0.9991  0.5357
  935TIP3   OH224295   1.536   2.565   4.906 -0.6563  0.1270  0.1917
  935TIP3    H124296   1.515   2.537   4.995 -0.2011  1.0627  0.6164
  935TIP3    H224297   1.607   2.507   4.879  0.0677  0.6405  0.9351
  936TIP3   OH224298   5.162   1.455  16.274  0.7024 -0.1396  0.3263
  936TIP3    H124299   5.076   1.488  16.300  0.5698 -0.8001  0.7490
  936TIP3    H224300   5.143   1.392  16.205  0.9502  0.6080 -0.4384
  937TIP3   OH224301   3.602   6.795  16.041 -0.2674 -0.3803 -0.0709
  937TIP3    H124302   3.696   6.810  16.035  0.2148 -2.2094  1.8416
  937TIP3    H224303   3.593   6.701  16.056 -2.4471 -0.3528 -0.8134
  938TIP3   OH224304   2.219   3.196   4.599  0.7985  0.1260 -0.5210
  938TIP3    H124305   2.133   3.232   4.577  0.2080  0.3147  1.8012
  938TIP3    H224306   2.260   3.263   4.654  0.9783 -1.3574  1.2666
  939TIP3   OH224307   3.718   6.503   3.752  0.6110 -0.4080 -0.3810
  939TIP3    H124308   3.694   6.454   3.673  0.2842  0.5499 -0.8856
  939TIP3    H224309   3.738   6.591   3.720  0.9293 -0.1384  0.5532
  940TIP3   OH224310   6.274   4.084  12.707  0.5760 -0.2953 -0.2302
  940TIP3    H124311   6.205   4.132  12.753  0.9204  1.2720 -1.2699
  940TIP3    H224312   6.228   4.015  12.660 -0.0332 -0.5021  0.6392
  941TIP3   OH224313   3.611   0.221  14.674 -0.0658  0.0014 -0.4020
  941TIP3    H124314   3.577   0.259  14.755  0.9421 -0.9404  0.4862
  941TIP3    H224315   3.647   0.296  14.626  1.2714  0.3278  1.0119
  942TIP3   OH224316   4.203   3.580   0.042  0.5534  0.0286  0.3979
  942TIP3    H124317   4.260   3.631   0.099  0.1717  1.6576 -0.6071
  942TIP3    H224318   4.246   3.495   0.034  0.9480 -0.0119  2.5424
  943TIP3   OH224319   1.040   5.532  11.127  0.1986 -0.5790 -0.2934
  943TIP3    H124320   1.033   5.551  11.033  1.4116 -0.4767 -0.3724
  943TIP3    H224321   1.078   5.444  11.130  0.8966 -0.2607  0.1124
  944TIP3   OH224322   0.112   0.198   0.830 -0.3416  0.3345 -0.0108
  944TIP3    H124323   0.157   0.145   0.895  0.4905  0.0655 -0.7863
  944TIP3    H224324   0.044   0.140   0.795  0.0339  0.0504 -0.2759
  945TIP3   OH224325   6.557   0.908  11.644  0.2247  0.2378  0.7408
  945TIP3    H124326   6.589   0.829  11.601  0.2978 -0.0396  1.2981
  945TIP3    H224327   6.520   0.961  11.572 -2.0397 -1.3431  0.6145
  946TIP3   OH224328   2.351   4.384  13.919 -0.0295  0.1058 -0.1472
  946TIP3    H124329   2.447   4.385  13.930 -0.0534 -1.2917  0.4263
  946TIP3    H224330   2.332   4.299  13.881 -0.7414  1.8277 -4.1790
  947TIP3   OH224331   0.422   4.581   2.682  0.7267 -0.3101  0.6493
  947TIP3    H124332   0.480   4.618   2.748 -0.2974  0.9711  0.8734
  947TIP3    H224333   0.474   4.512   2.640  2.9734  1.6996 -0.1350
  948TIP3   OH224334   0.634   0.269   1.539 -0.2891 -0.5475 -0.1002
  948TIP3    H124335   0.640   0.237   1.629  0.1390 -2.4546 -0.7549
  948TIP3    H224336   0.548   0.241   1.509 -1.4719  2.2121  0.4094
  949TIP3   OH224337   4.173   6.679   2.583 -0.2848  0.2177  0.2076
  949TIP3    H124338   4.168   6.635   2.498 -0.2672  1.3237 -0.3836
  949TIP3    H224339   4.088   6.660   2.625  0.5558 -2.2628  0.9649
  950TIP3   OH224340   0.727   2.530   4.082 -0.6599  0.2937 -0.4226
  950TIP3    H124341   0.644   2.572   4.060 -0.3949  0.8753 -0.3317
  950TIP3    H224342   0.755   2.573   4.162  0.5678  1.3220 -1.3658
  951TIP3   OH224343   1.079   3.219  15.574 -0.2613  0.0664  0.7181
  951TIP3    H124344   1.099   3.258  15.659  0.5768 -0.8113  0.9391
  951TIP3    H224345   1.153   3.243  15.518 -0.4333 -0.0086  0.4571
  952TIP3   OH224346   6.709   0.685  12.860  0.4121  0.8646  0.3416
  952TIP3    H124347   6.751   0.611  12.815 -0.0982  1.2827 -0.8353
  952TIP3    H224348   6.634   0.708  12.805  0.5458  2.2526  0.7076
  953TIP3   OH224349   2.591   0.560   4.385  0.6166 -0.1569 -0.3515
  953TIP3    H124350   2.614   0.537   4.476  0.8427 -1.1439 -0.6436
  953TIP3    H224351   2.502   0.526   4.374 -0.9479  3.2249  0.6243
  954TIP3   OH224352   1.032   0.083   6.104 -0.1543  0.0637  0.0475
  954TIP3    H124353   1.094   0.144   6.063 -0.4933  0.8159  0.6405
  954TIP3    H224354   0.968   0.139   6.147 -2.1701 -0.6519 -1.8429
  955TIP3   OH224355   1.708   6.193  11.737  0.6667  0.2010 -0.3449
  955TIP3    H124356   1.640   6.148  11.688 -0.3227  0.3389  0.8535
  955TIP3    H224357   1.669   6.210  11.822  1.2522  2.6721 -0.4974
  956TIP3   OH224358   4.208   1.864  16.574 -0.4134  0.5152  0.0391
  956TIP3    H124359   4.175   1.844  16.661 -0.2508  1.7916  0.4160
  956TIP3    H224360   4.261   1.943  16.586  0.5404  0.0583 -1.0242
  957TIP3   OH224361   2.440   6.831  13.706  0.2440  0.1269 -0.5025
  957TIP3    H124362   2.441   6.820  13.611 -1.7802  0.9014 -0.6652
  957TIP3    H224363   2.366   6.889  13.723  1.4943  1.2868  1.4481
  958TIP3   OH224364   5.033   6.194  14.456 -0.3202 -0.1283 -0.1414
  958TIP3    H124365   5.120   6.209  14.418 -0.2695  1.1473  0.4200
  958TIP3    H224366   5.030   6.100  14.474  0.2939 -0.4887 -1.7127
  959TIP3   OH224367   0.618   5.094  12.509 -0.3852 -0.8906 -0.0316
  959TIP3    H124368   0.688   5.064  12.567  1.4518  2.2944 -0.3633
  959TIP3    H224369   0.633   5.046  12.427  0.3795 -1.4561  0.4268
  960TIP3   OH224370   1.535   3.609  16.488 -0.0925  0.3104  0.3157
  960TIP3    H124371   1.446   3.602  16.452 -0.5558  0.4328  1.3898
  960TIP3    H224372   1.564   3.697  16.464  0.7974 -0.5952 -2.2870
  961TIP3   OH224373   1.592   0.010   3.583  0.0156 -0.5044  0.8437
  961TIP3    H124374   1.529  -0.001   3.654 -1.7342  0.3022 -0.5018
  961TIP3    H224375   1.540  -0.001   3.503  1.6066  0.0926 -0.3231
  962TIP3   OH224376   6.590   1.996   2.151  0.1113 -0.5288 -0.3869
  962TIP3    H124377   6.623   1.921   2.102  2.9648 -0.3093  1.0211
  962TIP3    H224378   6.609   2.072   2.096  0.3396 -0.5614 -0.3540
  963TIP3   OH224379   0.685   0.699   4.196 -0.3877  0.1837 -0.0521
  963TIP3    H124380   0.663   0.632   4.260  1.8694  1.2055  1.9585
  963TIP3    H224381   0.743   0.654   4.134  0.0358 -0.0477  0.5070
  964TIP3   OH224382   6.383   0.921  15.208 -0.2103  0.6065  0.2850
  964TIP3    H124383   6.365   0.970  15.288  2.2242  2.0587  0.0638
  964TIP3    H224384   6.350   0.978  15.138  1.7253  1.6116  0.0893
  965TIP3   OH224385   1.433   5.240  15.428 -0.6718  0.7376 -0.1342
  965TIP3    H124386   1.355   5.291  15.406 -0.8199  0.8873  0.7212
  965TIP3    H224387   1.470   5.283  15.505  0.8547  1.2969 -1.1284
  966TIP3   OH224388   4.222   4.322  15.091  0.1230 -0.0195  0.3242
  966TIP3    H124389   4.238   4.243  15.039 -0.8250 -0.1034  0.1310
  966TIP3    H224390   4.259   4.393  15.039  1.0459 -0.3423  0.5315
  967TIP3   OH224391   5.670   4.610  16.846  0.2734  0.0169 -0.4352
  967TIP3    H124392   5.671   4.527  16.893  0.3168  0.8967  1.1945
  967TIP3    H224393   5.722   4.669  16.900 -0.0182  1.2068 -1.3974
  968TIP3   OH224394   0.760   5.294  15.581  0.3346 -0.6360  0.0545
  968TIP3    H124395   0.715   5.230  15.527 -0.2172 -1.1332  1.0617
  968TIP3    H224396   0.776   5.368  15.523 -1.9542 -0.3603 -0.3069
  969TIP3   OH224397   1.612   2.829   1.475  0.3534  0.5127 -0.0855
  969TIP3    H124398   1.661   2.811   1.555  1.3353  0.1210 -0.7614
  969TIP3    H224399   1.546   2.760   1.471 -0.5626  1.2993  1.0577
  970TIP3   OH224400   0.669   2.741   5.510 -0.2798 -0.1279 -1.1017
  970TIP3    H124401   0.641   2.716   5.422 -1.3878 -0.6645 -0.6286
  970TIP3    H224402   0.698   2.831   5.502 -2.9616  0.7836 -1.5282
  971TIP3   OH224403   5.670   0.620  15.441  0.7858 -0.0196  0.3005
  971TIP3    H124404   5.734   0.551  15.458  2.2359  0.4571 -2.5346
  971TIP3    H224405   5.681   0.640  15.348 -1.1410  2.5030  0.5064
  972TIP3   OH224406   0.994   1.068  12.035  0.1849 -0.3696 -0.4223
  972TIP3    H124407   0.915   1.123  12.031  0.8670  0.7499  0.7322
  972TIP3    H224408   1.019   1.069  12.127  1.7791 -0.3774 -0.8344
  973TIP3   OH224409   3.815   1.430   0.785  0.0177 -0.3460 -0.2122
  973TIP3    H124410   3.853   1.356   0.739 -0.1016 -1.8437  1.9415
  973TIP3    H224411   3.871   1.443   0.861 -0.1882  1.5603 -0.3430
  974TIP3   OH224412   5.122   6.507   5.997 -0.8731  0.6179 -0.2726
  974TIP3    H124413   5.112   6.503   6.092 -0.5383 -1.6001 -0.2896
  974TIP3    H224414   5.212   6.538   5.985 -0.2781 -0.8352  0.1955
  975TIP3   OH224415   6.481   4.789  15.089 -0.2792 -0.3263 -0.9517
  975TIP3    H124416   6.453   4.784  14.998 -2.2150 -0.3116 -0.3970
  975TIP3    H224417   6.429   4.860  15.126  1.2772  0.4117 -0.0848
  976TIP3   OH224418   6.205   4.746   0.573  0.1007 -0.2905 -0.1940
  976TIP3    H124419   6.286   4.701   0.598 -1.1239 -1.3546  2.1719
  976TIP3    H224420   6.207   4.828   0.623 -0.0568 -0.0555 -0.5671
  977TIP3   OH224421   5.738   4.854   3.378  0.8023 -0.1442  0.6452
  977TIP3    H124422   5.783   4.770   3.364  0.4987 -0.5538  2.0039
  977TIP3    H224423   5.648   4.829   3.397  0.5400  0.5469  0.3176
  978TIP3   OH224424   0.497   1.196   4.455  0.5051  0.1255  0.4087
  978TIP3    H124425   0.553   1.241   4.392 -1.6965  2.7530  0.1483
  978TIP3    H224426   0.517   1.239   4.539  0.9243 -0.9399  0.8679
  979TIP3   OH224427   2.062   0.065  12.500  0.1378  0.2659  0.1922
  979TIP3    H124428   1.970   0.062  12.471 -0.0340  1.0424  0.6316
  979TIP3    H224429   2.060   0.029  12.589  0.6962 -2.3147 -0.7547
  980TIP3   OH224430   3.787   3.708  11.409  0.5137  0.5124  0.1597
  980TIP3    H124431   3.764   3.731  11.319  0.1791 -2.0140 -0.4892
  980TIP3    H224432   3.704   3.685  11.450  0.8311  0.2697  0.6773
  981TIP3   OH224433   5.436   2.710   5.641 -0.7163  0.3593  0.1134
  981TIP3    H124434   5.520   2.729   5.599 -0.0405  0.6604  1.5511
  981TIP3    H224435   5.450   2.627   5.687 -1.1079  0.5605  0.6129
  982TIP3   OH224436   6.269   0.420  13.053 -0.2401 -0.1146 -0.3805
  982TIP3    H124437   6.192   0.453  13.008 -1.5099 -1.0567  1.0133
  982TIP3    H224438   6.322   0.380  12.983 -0.4115  1.5449 -1.5200
  983TIP3   OH224439   0.443   0.611  16.368 -0.1720 -0.4663  0.3085
  983TIP3    H124440   0.438   0.596  16.274  0.7764 -1.6486  0.4247
  983TIP3    H224441   0.477   0.700  16.377  1.0818 -0.8421 -0.4844
  984TIP3   OH224442   0.493   5.791  11.993  0.4987 -0.4281  0.1328
  984TIP3    H124443   0.418   5.748  11.952  1.5336 -3.8427  1.4535
  984TIP3    H224444   0.566   5.776  11.932  0.4098  1.8579 -0.6071
  985TIP3   OH224445   6.307   1.904  11.485  0.4066  0.6047  0.1508
  985TIP3    H124446   6.285   1.997  11.473  0.4197  0.4551 -1.1311
  985TIP3    H224447   6.329   1.873  11.398  1.3914 -0.3690  0.7124
  986TIP3   OH224448   5.464   2.465  11.769  0.2325 -0.4281 -0.2328
  986TIP3    H124449   5.509   2.409  11.832  0.2225 -2.1320 -1.6446
  986TIP3    H224450   5.394   2.409  11.734 -1.0893  1.1643 -0.2517
  987TIP3   OH224451   0.185   0.462   1.554 -0.3632  0.2464  0.2527
  987TIP3    H124452   0.210   0.395   1.490 -0.3012  1.1448 -0.6947
  987TIP3    H224453   0.255   0.462   1.618  0.4734  0.5220 -0.6372
  988TIP3   OH224454   0.019   0.076   0.037  0.5436  0.2469 -0.2217
  988TIP3    H124455   0.006   0.080   0.132  2.3897 -0.8672  0.1137
  988TIP3    H224456   0.030   0.167   0.010 -2.1459  0.8116  0.2293
  989TIP3   OH224457   4.426   2.003   1.632 -0.2684 -0.0923  0.2086
  989TIP3    H124458   4.435   2.069   1.564  0.8777  0.8923  1.2714
  989TIP3    H224459   4.502   1.946   1.620  0.3331  0.5012  1.0693
  990TIP3   OH224460   6.328   1.491  15.421 -0.0272  0.4809  0.3274
  990TIP3    H124461   6.293   1.578  15.440 -1.9159 -0.0052 -0.6976
  990TIP3    H224462   6.363   1.499  15.332  1.8256  0.7322  1.0305
  991TIP3   OH224463   3.346   4.689   0.202  0.5407 -0.0899 -0.9165
  991TIP3    H124464   3.417   4.663   0.261  1.0711  0.0351 -1.4894
  991TIP3    H224465   3.268   4.647   0.239  0.8106  0.2022  0.0242
  992TIP3   OH224466   3.103   0.939  12.219  0.5073 -0.4533  0.3230
  992TIP3    H124467   3.081   0.870  12.157  0.9147  0.8497 -1.3579
  992TIP3    H224468   3.177   0.904  12.269  1.9227 -0.6161 -1.7532
  993TIP3   OH224469   0.135   3.444  10.550  0.3564  0.4211 -0.8521
  993TIP3    H124470   0.180   3.500  10.486  0.5370  0.1990 -0.9233
  993TIP3    H224471   0.046   3.478  10.553  0.1168 -0.0804 -1.8390
  994TIP3   OH224472   4.861   3.374   3.907  0.4547  0.1151  0.0463
  994TIP3    H124473   4.793   3.335   3.963  0.3346 -0.2391 -0.3422
  994TIP3    H224474   4.812   3.416   3.836  0.6805 -0.9916 -0.7747
  995TIP3   OH224475   4.607   4.568  12.581  0.8524  0.1776 -0.4181
  995TIP3    H124476   4.559   4.609  12.509  0.5866  1.2974  0.3664
  995TIP3    H224477   4.545   4.507  12.620  0.9258 -0.2713 -0.9844
  996TIP3   OH224478   1.438   1.270   1.228 -0.1518 -0.5140  0.3255
  996TIP3    H124479   1.358   1.321   1.240 -2.1005 -3.2885  0.1015
  996TIP3    H224480   1.493   1.291   1.303 -1.2663  1.1579  0.7067
  997TIP3   OH224481   3.759   1.610  10.927 -0.6064  0.1160  0.0428
  997TIP3    H124482   3.741   1.650  10.842 -0.3187 -0.0828 -0.1153
  997TIP3    H224483   3.674   1.578  10.958 -0.4872 -1.1238 -0.8468
  998TIP3   OH224484   6.871   2.528   0.698  0.6962 -0.4227  0.1391
  998TIP3    H124485   6.878   2.563   0.609  1.5350  0.4640  0.5278
  998TIP3    H224486   6.799   2.577   0.737  0.7059 -0.3940  0.1217
  999TIP3   OH224487   5.212   6.619   4.917  0.0243  0.2111  0.0018
  999TIP3    H124488   5.139   6.638   4.977  1.9638 -0.1225  2.6527
  999TIP3    H224489   5.220   6.524   4.920  0.5381  0.2463 -0.2772
 1000TIP3   OH224490   1.989   2.189   1.319  1.0121 -0.3836  0.1796
 1000TIP3    H124491   1.910   2.215   1.272  1.4370 -0.9525 -0.8701
 1000TIP3    H224492   2.027   2.272   1.349 -0.6728 -0.1573  1.9200
 1001TIP3   OH224493   0.900   6.887  12.185  0.1434 -0.1755  0.1437
 1001TIP3    H124494   0.829   6.883  12.120 -0.1705  1.4989  0.3274
 1001TIP3    H224495   0.973   6.843  12.143 -0.4830 -0.3680 -0.7856
 1002TIP3   OH224496   1.610   1.657  12.291  0.3706  0.2255 -0.2323
 1002TIP3    H124497   1.634   1.662  12.383 -0.1389  2.5093 -0.1656
 1002TIP3    H224498   1.689   1.623  12.247 -0.4857 -4.4202  1.3284
 1003TIP3   OH224499   2.211   2.560  12.750  0.4770 -0.0183 -0.1002
 1003TIP3    H124500   2.142   2.622  12.774  0.9705  0.2621  0.6307
 1003TIP3    H224501   2.282   2.616  12.719  1.2123 -0.1534  1.2873
 1004TIP3   OH224502   4.702   3.338  15.530 -0.0048  0.0979  0.5529
 1004TIP3    H124503   4.608   3.356  15.518 -0.2111 -0.7114  0.9349
 1004TIP3    H224504   4.708   3.295  15.615  0.6058 -0.6715  0.1314
 1005TIP3   OH224505   2.071   5.929   3.525  0.6499  0.2014 -0.6877
 1005TIP3    H124506   1.978   5.909   3.532  0.6058 -0.3738 -2.4510
 1005TIP3    H224507   2.073   6.020   3.495  0.5621 -0.3124 -2.3783
 1006TIP3   OH224508   5.993   6.118   1.381  0.2649 -0.2338  0.0490
 1006TIP3    H124509   5.980   6.095   1.289 -0.4615  1.6779 -0.3522
 1006TIP3    H224510   5.908   6.102   1.422  0.2671  0.0176  0.1507
 1007TIP3   OH224511   6.521   4.185  14.371 -0.1893  0.2025 -0.3189
 1007TIP3    H124512   6.556   4.274  14.373  0.3070  0.0326 -0.9453
 1007TIP3    H224513   6.594   4.132  14.338 -0.1135 -0.6137  1.1075
 1008TIP3   OH224514   0.420   6.855   0.578 -0.1670 -0.4191  0.0783
 1008TIP3    H124515   0.438   6.771   0.537  0.2155  0.1431 -0.9409
 1008TIP3    H224516   0.365   6.834   0.654 -2.9931 -1.2858 -2.0673
 1009TIP3   OH224517   2.548   0.233   4.716 -0.2969  0.4361 -0.0162
 1009TIP3    H124518   2.522   0.258   4.627 -3.1499 -0.7111  0.3662
 1009TIP3    H224519   2.639   0.262   4.724  0.1171  0.4501 -3.3339
 1010TIP3   OH224520   2.795   4.571  16.409  0.1335 -0.3539  0.1385
 1010TIP3    H124521   2.841   4.588  16.491  0.8169 -1.0408 -0.0912
 1010TIP3    H224522   2.865   4.561  16.344 -0.4231  1.1347 -0.7311
 1011TIP3   OH224523   6.074   3.124  11.050  0.3748 -0.0989 -0.0785
 1011TIP3    H124524   6.103   3.148  10.962  1.6986 -2.0123 -0.2251
 1011TIP3    H224525   6.131   3.173  11.109 -1.3121  2.1506 -0.1800
 1012TIP3   OH224526   6.706   2.282  16.805 -0.2937  0.5200  0.4358
 1012TIP3    H124527   6.640   2.253  16.867  0.9039  0.0934  1.5665
 1012TIP3    H224528   6.739   2.364  16.842 -0.5701  1.0232 -0.4117
 1013TIP3   OH224529   5.189   2.932  10.700  0.1317  0.0249  0.2881
 1013TIP3    H124530   5.216   2.850  10.657 -0.0353  0.1212 -0.0088
 1013TIP3    H224531   5.196   2.998  10.630  0.0433  0.2201  0.4643
 1014TIP3   OH224532   1.052   4.732  16.236  0.6555  0.1505 -0.5859
 1014TIP3    H124533   0.970   4.719  16.188  0.2597 -0.4755  0.2380
 1014TIP3    H224534   1.108   4.659  16.209  0.4750 -0.1369 -0.1772
 1015TIP3   OH224535   4.421   2.717   5.144  0.2168  0.3648 -0.4111
 1015TIP3    H124536   4.329   2.714   5.117  0.6288 -2.1114 -1.8627
 1015TIP3    H224537   4.421   2.773   5.222 -2.2797  1.5313 -1.1497
 1016TIP3   OH224538   1.425   2.910   4.442  0.1085  0.2257  0.5588
 1016TIP3    H124539   1.423   2.965   4.364 -0.5953 -0.7626 -0.1449
 1016TIP3    H224540   1.485   2.955   4.502 -0.7510  1.9607  0.1802
 1017TIP3   OH224541   5.680   2.742  13.704  0.2643 -0.6009 -0.2294
 1017TIP3    H124542   5.724   2.711  13.783  3.1433  0.4530 -1.2920
 1017TIP3    H224543   5.686   2.668  13.643 -0.1497 -0.7208 -0.1268
 1018TIP3   OH224544   0.014   5.655  13.315 -0.1034 -0.0759  0.5128
 1018TIP3    H124545   0.091   5.668  13.260 -0.5352  1.7511  0.2404
 1018TIP3    H224546  -0.060   5.673  13.256 -0.7073 -1.1064  0.9364
 1019TIP3   OH224547   6.835   6.627  14.435  0.1432 -0.3541  0.4651
 1019TIP3    H124548   6.867   6.715  14.455  0.5212 -0.5317  0.6572
 1019TIP3    H224549   6.792   6.635  14.350  1.1475 -0.2200 -0.0305
 1020TIP3   OH224550   0.083   6.140   0.909  0.9720 -0.4705 -0.5666
 1020TIP3    H124551   0.153   6.194   0.945  0.4077 -1.2453  1.9096
 1020TIP3    H224552   0.128   6.065   0.869  1.6135 -0.0069 -0.7179
 1021TIP3   OH224553   5.851   0.961   2.280  0.0270 -0.2953 -0.1598
 1021TIP3    H124554   5.758   0.944   2.265  0.3562 -1.5388 -0.8953
 1021TIP3    H224555   5.891   0.960   2.193  0.9649 -1.3525  0.2542
 1022TIP3   OH224556   4.969   6.771  15.002  0.7596 -0.2900 -0.0229
 1022TIP3    H124557   5.046   6.828  14.994 -0.3824  1.4355  0.6833
 1022TIP3    H224558   4.899   6.830  15.030 -0.7496 -1.8803 -0.3213
 1023TIP3   OH224559   2.955   2.984  16.223 -0.6878 -0.2452  0.7249
 1023TIP3    H124560   3.041   2.955  16.255 -0.3089 -1.6256 -1.3576
 1023TIP3    H224561   2.899   2.979  16.300  0.9838  0.3239  2.0612
 1024TIP3   OH224562   0.744   6.079  11.694 -0.1687 -0.3182  0.2943
 1024TIP3    H124563   0.651   6.097  11.684  0.0628  1.7034  1.1752
 1024TIP3    H224564   0.769   6.034  11.614 -1.7137 -0.0107 -0.3945
 1025TIP3   OH224565   1.643   5.024  11.736  0.1854 -0.2956 -0.0452
 1025TIP3    H124566   1.605   5.093  11.682  0.8909 -0.4977 -0.8132
 1025TIP3    H224567   1.725   5.001  11.692  1.0113 -0.1449  1.3575
 1026TIP3   OH224568   1.998   5.960   4.826 -0.2884 -0.3183  0.3432
 1026TIP3    H124569   2.067   5.894   4.819 -0.0818 -0.0286 -0.5965
 1026TIP3    H224570   2.039   6.031   4.875  0.1519 -0.0880 -0.3318
 1027TIP3   OH224571   0.006   6.712   0.116 -0.0166  0.4973 -0.2709
 1027TIP3    H124572  -0.085   6.686   0.103  0.2557 -1.0084  0.5916
 1027TIP3    H224573   0.010   6.803   0.087 -1.8375  0.6560 -0.0820
 1028TIP3   OH224574   1.201   6.825   4.993 -0.1789  0.2685  0.3562
 1028TIP3    H124575   1.122   6.879   4.998 -0.2810  0.0204  2.6936
 1028TIP3    H224576   1.253   6.851   5.069  0.5425 -1.7173  0.6136
 1029TIP3   OH224577   2.257   6.190   0.694 -0.2088 -0.0527  0.0634
 1029TIP3    H124578   2.238   6.282   0.674  0.1779  0.1880  0.7620
 1029TIP3    H224579   2.171   6.149   0.704 -0.4217  0.7231  1.8785
 1030TIP3   OH224580   5.155   6.373   2.877  0.0657  0.8669 -0.2463
 1030TIP3    H124581   5.221   6.407   2.936  1.5993 -1.8236 -0.2516
 1030TIP3    H224582   5.193   6.383   2.789  0.0672  0.1994 -0.3293
 1031TIP3   OH224583   2.962   3.640  15.562 -0.0709  0.2092 -0.5761
 1031TIP3    H124584   2.993   3.729  15.580  0.6614  0.1057 -1.2715
 1031TIP3    H224585   3.007   3.615  15.482  0.9631 -1.3766  0.4504
 1032TIP3   OH224586   2.146   2.125   5.411  0.4450 -0.0510  0.1961
 1032TIP3    H124587   2.145   2.166   5.498 -1.7098 -2.5028  1.4491
 1032TIP3    H224588   2.062   2.149   5.372  1.1715  0.5832 -1.0368
 1033TIP3   OH224589   6.666   3.090  12.818 -0.2311  0.4228  0.1265
 1033TIP3    H124590   6.747   3.060  12.777 -0.4324  0.7025 -0.4983
 1033TIP3    H224591   6.597   3.051  12.764 -0.5042  1.8902 -0.6611
 1034TIP3   OH224592   1.810   3.518   4.422 -0.1142 -0.4476  0.5378
 1034TIP3    H124593   1.788   3.598   4.375  1.2382 -0.7166 -0.6280
 1034TIP3    H224594   1.900   3.498   4.395  0.5202 -0.9761  2.7717
 1035TIP3   OH224595   4.442   0.643   0.204  0.0408  0.2687 -0.4886
 1035TIP3    H124596   4.508   0.654   0.273 -0.7055 -0.3122  0.3391
 1035TIP3    H224597   4.490   0.656   0.122  0.8531  1.4252  0.1481
 1036TIP3   OH224598   0.908   5.460   5.750 -0.3668  0.2195  0.0276
 1036TIP3    H124599   0.975   5.528   5.760 -0.0586  0.0405 -0.7763
 1036TIP3    H224600   0.919   5.404   5.827  0.2422  0.3360  0.0301
 1037TIP3   OH224601   6.032   1.209  16.944  0.6113 -0.0278  0.1185
 1037TIP3    H124602   6.059   1.232  16.855 -2.3994 -2.2865 -1.5298
 1037TIP3    H224603   6.101   1.152  16.976  1.5456  0.4914 -0.8966
 1038TIP3   OH224604   0.908   1.876   0.003  0.1714  0.0223  0.1638
 1038TIP3    H124605   0.916   1.969  -0.020  0.9094  0.3461  1.6142
 1038TIP3    H224606   0.971   1.863   0.074 -0.7391 -1.3212  0.7731
 1039TIP3   OH224607   0.177   4.186   5.158 -0.1937 -0.2473 -0.0860
 1039TIP3    H124608   0.142   4.274   5.150  1.7530  0.6247  0.2670
 1039TIP3    H224609   0.248   4.183   5.094  0.8403 -0.9726  1.0508
 1040TIP3   OH224610   1.798   5.227   2.329 -0.3762  0.5282 -0.2928
 1040TIP3    H124611   1.874   5.213   2.385 -1.0866 -2.0157  0.1573
 1040TIP3    H224612   1.822   5.189   2.245 -1.7828 -2.2891  0.4571
 1041TIP3   OH224613   0.211   3.353   3.841 -0.2691  0.3677  0.1866
 1041TIP3    H124614   0.269   3.393   3.905  2.8518 -1.7613 -1.0624
 1041TIP3    H224615   0.218   3.410   3.764  0.5261 -0.0751 -0.0816
 1042TIP3   OH224616   1.260   5.941   3.236 -0.6129  0.0798 -0.1546
 1042TIP3    H124617   1.322   5.871   3.256 -0.5642 -0.2797 -1.4240
 1042TIP3    H224618   1.184   5.923   3.291  0.1263  0.1168  0.8975
 1043TIP3   OH224619   3.201   2.569  12.643  0.2258 -0.4359  0.4306
 1043TIP3    H124620   3.275   2.510  12.626  0.3940 -0.3292  0.7854
 1043TIP3    H224621   3.233   2.655  12.616  0.2093 -0.4011  0.5203
 1044TIP3   OH224622   1.946   5.518   5.448  0.1227 -0.3602 -0.3564
 1044TIP3    H124623   1.925   5.475   5.365 -0.7316 -0.3564 -0.1477
 1044TIP3    H224624   1.990   5.450   5.500 -0.2527 -0.6597 -0.4318
 1045TIP3   OH224625   5.267   1.707   1.964  0.0708  0.1917  0.0655
 1045TIP3    H124626   5.246   1.679   2.053 -0.1567  1.6509  0.5074
 1045TIP3    H224627   5.201   1.664   1.909  1.2342 -2.0909  0.3292
 1046TIP3   OH224628   3.925   2.385  12.177 -0.4010  1.1140 -0.1230
 1046TIP3    H124629   3.855   2.328  12.147  0.1284 -0.9169  2.1885
 1046TIP3    H224630   4.005   2.332  12.167  0.5235  2.5355 -0.5662
 1047TIP3   OH224631   3.537   4.404  15.854  0.2990 -0.3347  0.2037
 1047TIP3    H124632   3.612   4.345  15.858  1.4931  0.9569 -1.7610
 1047TIP3    H224633   3.504   4.395  15.765 -2.7581 -1.8030  1.3412
 1048TIP3   OH224634   4.967   2.239   3.409  0.4994  0.0192 -0.6566
 1048TIP3    H124635   4.938   2.187   3.334  0.7064 -1.6575  0.3795
 1048TIP3    H224636   5.015   2.312   3.370 -2.0852  1.0159 -2.2900
 1049TIP3   OH224637   4.146   2.980  15.613 -0.4831 -0.8204 -0.0335
 1049TIP3    H124638   4.226   2.951  15.568 -0.8412 -0.4651 -0.9265
 1049TIP3    H224639   4.090   3.012  15.543 -0.6279  0.7751  0.7568
 1050TIP3   OH224640   2.791   4.282  16.458 -0.1087 -0.0770 -0.0216
 1050TIP3    H124641   2.785   4.369  16.419  0.8288 -0.0346 -0.0883
 1050TIP3    H224642   2.860   4.289  16.524  3.5784 -1.9011 -3.2665
 1051TIP3   OH224643   1.777   2.176  13.908  0.0717  0.1124  0.1891
 1051TIP3    H124644   1.849   2.179  13.845  0.8927 -0.1488  1.0910
 1051TIP3    H224645   1.809   2.223  13.984 -1.0557  0.7630  0.2855
 1052TIP3   OH224646   4.442   1.780  16.322  0.1321 -0.7056  0.3859
 1052TIP3    H124647   4.504   1.758  16.253  0.4626 -1.5480  0.9388
 1052TIP3    H224648   4.465   1.722  16.394  0.6231  1.0489  1.6878
 1053TIP3   OH224649   1.291   0.752  13.878  0.4048 -0.3154 -0.0663
 1053TIP3    H124650   1.367   0.799  13.913 -1.1264  1.5096  1.0578
 1053TIP3    H224651   1.239   0.731  13.956 -0.3258 -1.3563 -0.8261
 1054TIP3   OH224652   1.639   1.639   5.784  0.0410 -0.6119  0.2107
 1054TIP3    H124653   1.601   1.554   5.759 -1.3852  0.4685 -1.5023
 1054TIP3    H224654   1.605   1.655   5.872  1.1217 -2.2318  0.9759
 1055TIP3   OH224655   6.375   4.223   0.343  0.3315 -0.1679  0.0393
 1055TIP3    H124656   6.464   4.257   0.345  0.6674 -1.0778  1.4922
 1055TIP3    H224657   6.382   4.139   0.297 -0.1575  0.7059 -1.7147
 1056TIP3   OH224658   4.420   3.547  16.731  0.0649 -0.3103 -0.3274
 1056TIP3    H124659   4.436   3.505  16.815  1.2400  0.5732 -0.0797
 1056TIP3    H224660   4.330   3.581  16.737  0.5948  0.9431  1.1337
 1057TIP3   OH224661   3.729   3.647  15.441 -0.2481 -0.4368 -0.0537
 1057TIP3    H124662   3.645   3.692  15.451 -0.3341 -0.7158  0.4967
 1057TIP3    H224663   3.730   3.619  15.350  0.0179  1.1061 -0.5634
 1058TIP3   OH224664   1.451   5.181  14.985 -0.2084  0.1653  0.1754
 1058TIP3    H124665   1.515   5.212  15.050  0.1060 -0.0118 -0.0442
 1058TIP3    H224666   1.387   5.132  15.036 -0.5005  0.8469  0.4799
 1059TIP3   OH224667   4.892   4.677   1.832 -0.1929 -0.4379 -0.4728
 1059TIP3    H124668   4.924   4.590   1.805  1.2358  0.5371 -2.1177
 1059TIP3    H224669   4.972   4.729   1.842 -1.0441  0.7426  0.3572
 1060TIP3   OH224670   1.279   2.235  14.429 -0.2077  0.1745 -0.4808
 1060TIP3    H124671   1.196   2.205  14.391  1.5239 -0.5538 -4.1835
 1060TIP3    H224672   1.283   2.328  14.408 -0.9655  0.7491  1.6813
 1061TIP3   OH224673   1.237   5.045  11.228 -0.1262  0.1513 -0.3385
 1061TIP3    H124674   1.237   5.021  11.321  2.9764  0.5008 -0.1334
 1061TIP3    H224675   1.205   4.967  11.183 -1.4150 -0.1163  0.9892
 1062TIP3   OH224676   0.359   0.500   0.617  0.0195 -0.2315  0.1073
 1062TIP3    H124677   0.429   0.439   0.641  0.2415  0.4145  1.1979
 1062TIP3    H224678   0.376   0.522   0.525  0.7466 -0.7325  0.1146
 1063TIP3   OH224679   1.967   6.492   1.844  0.2684 -0.0072  0.3171
 1063TIP3    H124680   1.993   6.543   1.767  1.8292 -1.8426 -0.4643
 1063TIP3    H224681   1.874   6.474   1.831  0.0861  1.2332 -0.2020
 1064TIP3   OH224682   1.638   5.827   0.523 -0.6428 -0.0295 -0.0322
 1064TIP3    H124683   1.584   5.748   0.530 -1.7865  0.7879  0.6572
 1064TIP3    H224684   1.719   5.797   0.481  0.5062 -2.3126  3.3846
 1065TIP3   OH224685   2.423   1.616  13.867  0.0017  0.1872  0.2710
 1065TIP3    H124686   2.516   1.641  13.868  0.1328 -0.2014 -0.9603
 1065TIP3    H224687   2.423   1.528  13.830 -1.0376  1.0145 -1.8070
 1066TIP3   OH224688   6.839   3.553  15.062  0.2412  0.4737  0.2644
 1066TIP3    H124689   6.886   3.570  14.981 -0.9432  0.5836 -0.4078
 1066TIP3    H224690   6.892   3.596  15.130  1.3765  0.1604 -0.3922
 1067TIP3   OH224691   3.621   4.221  13.394  0.0419  0.1094  0.3139
 1067TIP3    H124692   3.559   4.234  13.465 -0.3202  1.3420 -0.2125
 1067TIP3    H224693   3.706   4.245  13.432  0.2061 -1.4283  0.9867
 1068TIP3   OH224694   2.232   6.512   5.886  0.1532 -0.1926  0.0465
 1068TIP3    H124695   2.256   6.517   5.793  0.1034  0.2721  0.0562
 1068TIP3    H224696   2.297   6.453   5.924 -0.1133 -0.7693 -0.3763
 1069TIP3   OH224697   2.322   5.046  16.362  0.3951  0.0712  1.2662
 1069TIP3    H124698   2.240   5.069  16.318 -0.7733 -0.6221  2.9964
 1069TIP3    H224699   2.327   4.951  16.355  1.6498  0.1792  0.2372
 1070TIP3   OH224700   4.270   4.194   0.711  0.2833 -0.5962  0.0984
 1070TIP3    H124701   4.319   4.112   0.706  1.1913 -0.0836  0.3718
 1070TIP3    H224702   4.313   4.244   0.781 -2.4961 -1.3508  2.5385
 1071TIP3   OH224703   1.628   5.432  16.498  0.0864  0.0538 -0.4948
 1071TIP3    H124704   1.547   5.479  16.476 -0.4993  0.6129  2.4511
 1071TIP3    H224705   1.676   5.493  16.555  1.6154 -1.0820 -0.5043
 1072TIP3   OH224706   2.175   5.922   1.400 -0.3157  0.0659 -0.0310
 1072TIP3    H124707   2.175   5.958   1.489 -1.5144  0.9152 -0.3487
 1072TIP3    H224708   2.118   5.845   1.407  0.4718 -0.5107  0.1628
 1073TIP3   OH224709   2.596   1.458   2.158  0.2241  0.2541  0.6245
 1073TIP3    H124710   2.640   1.374   2.142  1.0780  0.9409 -0.8051
 1073TIP3    H224711   2.520   1.434   2.212  0.2619 -1.4989 -0.0058
 1074TIP3   OH224712   6.615   5.142  11.639 -0.0577  0.1646 -0.1025
 1074TIP3    H124713   6.526   5.125  11.608 -0.2595  1.1700 -0.1105
 1074TIP3    H224714   6.646   5.213  11.583  0.6805 -0.0484  0.0321
 1075TIP3   OH224715   2.786   4.751   3.967  0.0944 -0.1917  0.0096
 1075TIP3    H124716   2.863   4.729   4.019  0.8829 -0.6727 -1.3073
 1075TIP3    H224717   2.822   4.779   3.882 -1.1156  1.1275 -0.1112
 1076TIP3   OH224718   1.917   3.367   1.152 -0.1458  0.2202  0.2057
 1076TIP3    H124719   1.876   3.445   1.114 -2.2033 -0.0698  1.6567
 1076TIP3    H224720   1.845   3.321   1.195  1.2510 -1.8449  0.4731
 1077TIP3   OH224721   5.661   1.869  10.899  0.0673  0.1806  0.0698
 1077TIP3    H124722   5.738   1.919  10.872 -1.6683  2.6660 -0.6258
 1077TIP3    H224723   5.641   1.814  10.823  0.2956  0.6286 -0.3247
 1078TIP3   OH224724   1.924   2.240   5.282  0.5175  0.8362  0.3926
 1078TIP3    H124725   1.979   2.270   5.210 -0.0823  1.6502  0.2551
 1078TIP3    H224726   1.838   2.227   5.242  0.6808 -0.7784  0.5240
 1079TIP3   OH224727   2.377   4.369  11.677 -0.7111 -0.2855 -0.3453
 1079TIP3    H124728   2.327   4.298  11.635  1.5000 -1.2856 -1.4460
 1079TIP3    H224729   2.455   4.326  11.712  0.1766  1.4598 -0.0832
 1080TIP3   OH224730   4.582   6.668   0.528  0.7846 -0.2139  0.0731
 1080TIP3    H124731   4.561   6.762   0.522  1.1518  0.0295  1.9577
 1080TIP3    H224732   4.677   6.665   0.524  0.8994 -0.2726  2.0230
 1081TIP3   OH224733   4.426   2.736  12.469 -0.1355  0.0287  0.1138
 1081TIP3    H124734   4.347   2.730  12.524  0.3214  0.6736  0.8575
 1081TIP3    H224735   4.452   2.645  12.455  0.5821 -0.1254  2.2206
 1082TIP3   OH224736   5.139   2.981   1.505  0.0737  0.1799 -0.0781
 1082TIP3    H124737   5.175   3.038   1.437  1.4385 -1.4639 -0.8315
 1082TIP3    H224738   5.046   3.001   1.507  0.1249  0.7818 -1.9643
 1083TIP3   OH224739   5.154   3.541   3.645  0.3261 -0.2161 -0.3965
 1083TIP3    H124740   5.067   3.576   3.624 -0.2810 -0.8102  0.9701
 1083TIP3    H224741   5.214   3.595   3.594 -0.7694  1.0078 -0.4677
 1084TIP3   OH224742   6.128   6.110  14.055  0.2472  0.3278  0.6132
 1084TIP3    H124743   6.105   6.194  14.015  1.2252  0.1483 -0.3636
 1084TIP3    H224744   6.181   6.065  13.989 -1.6313 -1.7902  0.4105
 1085TIP3   OH224745   6.812   3.526  13.470  0.4032  0.4290 -0.0342
 1085TIP3    H124746   6.732   3.496  13.427  1.4177 -0.4194 -1.4646
 1085TIP3    H224747   6.861   3.445  13.488  0.6221  0.8810  1.5134
 1086TIP3   OH224748   2.535   4.021  16.028 -0.4910 -0.0079  0.0509
 1086TIP3    H124749   2.562   4.035  16.119  1.8060  0.3989 -0.6461
 1086TIP3    H224750   2.558   3.930  16.010  1.3624  0.5917 -0.8161
 1087TIP3   OH224751   1.351   0.284  14.840  0.4300  0.1348  0.4487
 1087TIP3    H124752   1.276   0.339  14.818 -1.2300 -1.8609  0.7606
 1087TIP3    H224753   1.354   0.219  14.769  3.1771  1.3354 -0.6455
 1088TIP3   OH224754   3.006   3.577   0.050  0.5417 -0.5922  0.1734
 1088TIP3    H124755   2.981   3.661   0.013 -0.6477 -0.7490  0.5984
 1088TIP3    H224756   2.975   3.579   0.140  0.8005 -1.3614  0.2931
 1089TIP3   OH224757   1.034   3.588  15.411 -0.3625 -0.0159 -0.6034
 1089TIP3    H124758   1.032   3.501  15.371 -0.4051 -0.2532 -0.0913
 1089TIP3    H224759   1.122   3.595  15.448 -0.3435  0.1796 -0.6857
 1090TIP3   OH224760   4.419   1.988   0.970 -0.1427 -0.2803  0.3498
 1090TIP3    H124761   4.461   2.026   1.048  0.8559 -1.7643  0.5664
 1090TIP3    H224762   4.363   2.058   0.937  2.5663  1.8799 -0.0264
 1091TIP3   OH224763   5.854   6.108   4.406 -0.8059 -0.5678 -1.0718
 1091TIP3    H124764   5.919   6.038   4.404 -0.0876  0.1188 -2.0729
 1091TIP3    H224765   5.828   6.120   4.315  1.1583  2.3480 -1.3664
 1092TIP3   OH224766   5.777   0.834   5.940 -0.6855 -0.1404  0.0026
 1092TIP3    H124767   5.834   0.781   5.996 -0.1641 -1.0161 -1.3017
 1092TIP3    H224768   5.788   0.923   5.972  2.6268 -0.0198 -1.0925
 1093TIP3   OH224769   2.230   5.270   4.565 -0.2272  0.0607  0.5069
 1093TIP3    H124770   2.278   5.308   4.638  0.8836  0.1460 -0.2389
 1093TIP3    H224771   2.144   5.313   4.567 -0.0435  0.3909  1.4715
 1094TIP3   OH224772   0.577   4.949  14.805  0.3488  0.0008  0.3185
 1094TIP3    H124773   0.644   4.990  14.750 -0.0440 -0.7340 -0.7370
 1094TIP3    H224774   0.541   4.878  14.751 -1.5003  0.5619  0.7450
 1095TIP3   OH224775   0.372   6.526  13.502 -0.1300 -0.1697  0.1422
 1095TIP3    H124776   0.327   6.455  13.456 -0.8116 -0.3098  1.0029
 1095TIP3    H224777   0.317   6.545  13.577  0.1937  1.0873  0.0878
 1096TIP3   OH224778   2.246   1.654   2.839 -0.0305 -0.0891  0.1828
 1096TIP3    H124779   2.268   1.590   2.771 -1.1098 -1.9407  1.5121
 1096TIP3    H224780   2.154   1.674   2.824 -0.2107 -0.3307  0.9707
 1097TIP3   OH224781   5.559   2.829  16.775  0.0685 -0.0036  0.0956
 1097TIP3    H124782   5.584   2.814  16.867 -1.6790 -2.5691  0.2565
 1097TIP3    H224783   5.613   2.768  16.725 -0.9711 -0.6435 -0.2643
 1098TIP3   OH224784   4.099   3.215  10.875 -0.7012  0.0382 -0.7078
 1098TIP3    H124785   4.162   3.166  10.822  0.3584 -1.0819  1.4693
 1098TIP3    H224786   4.018   3.163  10.868 -0.3681 -0.4965 -0.6570
 1099TIP3   OH224787   2.455   4.536  12.533  0.0892  0.0646 -0.2134
 1099TIP3    H124788   2.373   4.512  12.577  0.4702  0.6868  0.8857
 1099TIP3    H224789   2.437   4.621  12.495  0.3717  0.4450  0.4833
 1100TIP3   OH224790   6.384   0.625   3.633  0.2978 -0.1831  0.7646
 1100TIP3    H124791   6.463   0.638   3.579  0.4731 -0.3843  0.9729
 1100TIP3    H224792   6.414   0.636   3.723  0.1826 -0.7198  0.8710
 1101TIP3   OH224793   4.440   5.817   3.508  0.3740 -0.4597 -0.0081
 1101TIP3    H124794   4.347   5.807   3.491  0.3472  0.2097 -0.3126
 1101TIP3    H224795   4.462   5.903   3.470  1.4348 -1.2707 -1.3166
 1102TIP3   OH224796   3.381   4.907   0.484 -0.4220 -0.3210 -0.2785
 1102TIP3    H124797   3.419   4.871   0.564 -0.2192 -0.6413 -0.5173
 1102TIP3    H224798   3.314   4.843   0.459 -1.1419  0.2445  0.1477
 1103TIP3   OH224799   4.359   2.110  14.389 -0.2159  0.2138 -0.4464
 1103TIP3    H124800   4.351   2.194  14.435  0.4055  0.0451 -0.0151
 1103TIP3    H224801   4.435   2.121  14.332 -0.4812  0.1366 -0.8167
 1104TIP3   OH224802   3.829   6.019   1.456  0.2715 -0.2102 -0.0792
 1104TIP3    H124803   3.871   6.013   1.541  0.3002 -0.4827 -0.1130
 1104TIP3    H224804   3.758   6.082   1.469  0.9049  0.5356 -0.1123
 1105TIP3   OH224805   4.102   2.114   1.419  0.2008 -0.3746 -0.1529
 1105TIP3    H124806   4.152   2.158   1.488  0.7027  0.6617 -1.1303
 1105TIP3    H224807   4.150   2.033   1.403 -1.0819 -1.6488  2.1041
 1106TIP3   OH224808   1.165   6.159   2.356 -0.4246  0.2191  0.5520
 1106TIP3    H124809   1.108   6.180   2.429  0.3351  1.1314  0.8939
 1106TIP3    H224810   1.250   6.194   2.381 -0.0798  0.2619 -0.6326
 1107TIP3   OH224811   4.445   6.138  12.670 -0.5825 -0.3036 -0.1739
 1107TIP3    H124812   4.412   6.078  12.737 -0.0093 -0.2103  0.1901
 1107TIP3    H224813   4.467   6.218  12.717  0.0600 -0.3267 -0.4291
 1108TIP3   OH224814   6.641   3.597  14.032  0.2063 -0.1259 -0.6456
 1108TIP3    H124815   6.659   3.607  14.126  0.1929  2.0690 -0.8249
 1108TIP3    H224816   6.581   3.669  14.012 -0.6466 -1.2118 -2.1348
 1109TIP3   OH224817   6.458   6.535   5.084 -0.7377 -0.6134 -0.3096
 1109TIP3    H124818   6.490   6.625   5.089 -0.1123 -0.8790  1.2694
 1109TIP3    H224819   6.537   6.481   5.080 -1.0772 -1.1169 -0.3371
 1110TIP3   OH224820   0.375   5.211  15.423  0.3686 -0.3068  0.2645
 1110TIP3    H124821   0.420   5.222  15.339 -0.6978 -0.5821 -0.3700
 1110TIP3    H224822   0.390   5.119  15.446 -0.3727 -0.5763 -0.2708
 1111TIP3   OH224823   0.414   0.960  11.245 -0.5531 -0.1050 -0.4646
 1111TIP3    H124824   0.488   0.906  11.218 -0.8080  0.3395 -2.2011
 1111TIP3    H224825   0.369   0.907  11.311  1.0103 -0.5764  0.2740
 1112TIP3   OH224826   3.351   2.245   0.569 -1.0755  0.4651 -0.2896
 1112TIP3    H124827   3.355   2.317   0.632 -0.3296  0.9509 -0.8770
 1112TIP3    H224828   3.342   2.166   0.623 -1.3737  0.9486  0.3797
 1113TIP3   OH224829   2.417   2.953  14.230  0.3764 -0.0877 -0.0620
 1113TIP3    H124830   2.510   2.962  14.209  0.0381 -0.7027 -2.0728
 1113TIP3    H224831   2.400   3.022  14.294  2.0416  0.5295 -0.2335
 1114TIP3   OH224832   6.635   2.120   4.070 -0.2692 -0.2516 -0.6835
 1114TIP3    H124833   6.552   2.072   4.073  0.1752 -0.9911  0.4496
 1114TIP3    H224834   6.638   2.169   4.152 -0.2909  1.0353 -1.4225
 1115TIP3   OH224835   1.987   3.582   0.408 -0.4659  0.0692  0.3527
 1115TIP3    H124836   1.994   3.669   0.448  0.6780 -0.1720  0.6918
 1115TIP3    H224837   1.892   3.567   0.403 -0.7041  1.5254 -0.1459
 1116TIP3   OH224838   6.475   6.282  16.238  0.3039 -0.0979 -0.4774
 1116TIP3    H124839   6.462   6.232  16.157 -0.1782 -1.6528  0.5179
 1116TIP3    H224840   6.521   6.222  16.296  3.0068  1.8798 -0.4214
 1117TIP3   OH224841   4.157   4.727  14.563  0.8570 -0.6140 -0.2196
 1117TIP3    H124842   4.252   4.721  14.557  0.8842  0.1229 -0.8390
 1117TIP3    H224843   4.125   4.641  14.536  1.3124 -0.2621 -2.0088
 1118TIP3   OH224844   2.174   5.771  11.250 -0.3505  0.4564 -0.2851
 1118TIP3    H124845   2.183   5.732  11.164 -0.6233  0.9088 -0.5211
 1118TIP3    H224846   2.246   5.734  11.301 -0.9441 -0.8147 -0.3259
 1119TIP3   OH224847   2.859   1.972   1.974  0.3506  0.3790 -0.0494
 1119TIP3    H124848   2.834   1.903   2.034  2.3652  0.0546  0.5049
 1119TIP3    H224849   2.944   1.945   1.939 -0.2642  1.0524 -2.2937
 1120TIP3   OH224850   1.530   2.076  13.834  0.7638 -0.1568  0.2751
 1120TIP3    H124851   1.543   1.996  13.783 -0.4935 -0.2395  0.0447
 1120TIP3    H224852   1.619   2.105  13.857  1.2605 -1.2455 -0.1996
 1121TIP3   OH224853   3.084   1.514   0.849 -0.4278 -0.6270  0.1444
 1121TIP3    H124854   3.171   1.494   0.816 -0.5508 -1.5719  0.3466
 1121TIP3    H224855   3.088   1.606   0.876  0.2009 -0.3729 -0.7824
 1122TIP3   OH224856   5.863   5.785   1.320 -0.2379  0.2706  0.6011
 1122TIP3    H124857   5.801   5.847   1.357 -1.9156 -0.3356 -1.0481
 1122TIP3    H224858   5.930   5.840   1.279 -0.8923  0.9706  0.4514
 1123TIP3   OH224859   0.938   6.865   2.671  0.3323 -0.3806 -0.1623
 1123TIP3    H124860   1.034   6.868   2.668  0.2939  0.8781 -0.3304
 1123TIP3    H224861   0.911   6.874   2.579  0.0409 -0.6324 -0.1035
 1124TIP3   OH224862   6.183   2.270   1.170 -0.2543 -0.6229  0.0656
 1124TIP3    H124863   6.126   2.194   1.164  0.2065 -1.1752  2.1494
 1124TIP3    H224864   6.150   2.320   1.245  2.6458 -1.6095  2.1883
 1125TIP3   OH224865   4.350   4.017   2.272  0.2284  0.0455  0.6450
 1125TIP3    H124866   4.315   4.053   2.190  0.5228 -2.0098 -0.4552
 1125TIP3    H224867   4.442   4.040   2.271  0.9967 -2.5575 -1.2709
 1126TIP3   OH224868   0.186   0.101   1.754  0.2980 -0.7194  0.6918
 1126TIP3    H124869   0.098   0.084   1.786 -0.1048  0.5588  0.3166
 1126TIP3    H224870   0.242   0.093   1.831 -0.5916  1.8333  1.6771
 1127TIP3   OH224871   1.187   1.463   4.458  0.5050 -0.6317 -0.0246
 1127TIP3    H124872   1.264   1.430   4.411 -0.1268 -1.1591 -0.7184
 1127TIP3    H224873   1.119   1.398   4.441 -0.0537 -0.2585  0.7194
 1128TIP3   OH224874   6.254   5.413  16.434  0.1773  0.9459 -0.4146
 1128TIP3    H124875   6.277   5.448  16.520 -0.2327  0.7717 -0.2326
 1128TIP3    H224876   6.159   5.422  16.428 -0.0885 -0.9708  0.0311
 1129TIP3   OH224877   0.757   2.328  14.351  0.2438  0.0172  0.0999
 1129TIP3    H124878   0.703   2.251  14.371  0.2991  0.1744  0.8848
 1129TIP3    H224879   0.775   2.321  14.257 -3.2881  1.3173 -0.8215
 1130TIP3   OH224880   2.100   4.235  10.655 -0.5744  0.0508 -1.0509
 1130TIP3    H124881   2.075   4.147  10.624 -2.2587 -0.1066  0.5942
 1130TIP3    H224882   2.160   4.219  10.728  0.3483  0.3452 -1.7164
 1131TIP3   OH224883   3.405   2.931   5.944  0.4875 -0.3240  0.0913
 1131TIP3    H124884   3.469   2.953   5.877  0.9312  0.3466  0.7205
 1131TIP3    H224885   3.448   2.865   5.998  0.0927 -0.9371 -0.3269
 1132TIP3   OH224886   1.184   3.656   4.390 -0.3992  0.1666 -0.0111
 1132TIP3    H124887   1.107   3.649   4.333  0.3935 -0.6496 -1.0430
 1132TIP3    H224888   1.161   3.723   4.454 -1.9416 -0.0152 -0.3232
 1133TIP3   OH224889   5.982   1.912  11.141 -0.2479 -0.0130  0.0854
 1133TIP3    H124890   5.909   1.931  11.199 -0.7908  0.0584 -0.6126
 1133TIP3    H224891   6.029   1.994  11.133 -1.0496  0.3788 -0.7834
 1134TIP3   OH224892   1.939   1.255   6.098  0.1702  0.2362  0.3072
 1134TIP3    H124893   1.948   1.273   6.192  2.1115 -1.2096  0.4508
 1134TIP3    H224894   1.922   1.161   6.094  2.3437 -0.1647 -0.8300
 1135TIP3   OH224895   2.157   6.236   5.661  0.1373 -0.0272 -0.1253
 1135TIP3    H124896   2.233   6.278   5.701  0.1541  0.4328 -0.6378
 1135TIP3    H224897   2.191   6.197   5.580  0.1123 -0.9927  0.3121
 1136TIP3   OH224898   1.539   1.147  15.323 -0.4637 -0.4111 -0.1937
 1136TIP3    H124899   1.576   1.155  15.235  0.9987 -2.3059  0.1848
 1136TIP3    H224900   1.463   1.088  15.312 -0.3576 -0.5451 -0.2097
 1137TIP3   OH224901   3.813   1.029  14.212  0.9251  0.0591 -0.3745
 1137TIP3    H124902   3.826   1.121  14.190 -0.4124  0.1801 -0.7306
 1137TIP3    H224903   3.837   0.982  14.132  3.2255 -0.0651  0.3183
 1138TIP3   OH224904   4.312   4.826   4.406  0.1223  0.2843  0.0746
 1138TIP3    H124905   4.340   4.916   4.395  2.1273 -0.3078 -0.0772
 1138TIP3    H224906   4.224   4.832   4.445  0.4960  2.2729  0.7001
 1139TIP3   OH224907   1.321   3.371  10.214  0.1372 -0.4153  0.0574
 1139TIP3    H124908   1.306   3.277  10.224 -2.1865  0.0702  2.2227
 1139TIP3    H224909   1.386   3.393  10.280 -0.3193 -0.3344  0.4920
 1140TIP3   OH224910   3.467   3.201   2.822 -0.1432  0.0714 -0.4245
 1140TIP3    H124911   3.411   3.209   2.745 -0.7348  0.2469  0.0182
 1140TIP3    H224912   3.456   3.110   2.850 -0.7346  0.2869  0.0556
 1141TIP3   OH224913   2.481   2.406   5.395 -0.6504 -0.5721 -0.0424
 1141TIP3    H124914   2.440   2.468   5.335 -0.0738 -0.0046  0.1350
 1141TIP3    H224915   2.501   2.458   5.473  2.0688 -0.3213 -0.7856
 1142TIP3   OH224916   6.125   1.708  15.313 -0.8359  0.6818 -0.0066
 1142TIP3    H124917   6.116   1.717  15.408  0.5727  2.1913  0.0165
 1142TIP3    H224918   6.037   1.683  15.284 -1.0308 -0.9708  1.7861
 1143TIP3   OH224919   2.810   6.868  16.729  0.2140 -0.2143 -0.4149
 1143TIP3    H124920   2.798   6.934  16.661  0.2730 -0.3614 -0.5666
 1143TIP3    H224921   2.774   6.908  16.808 -1.1914 -0.5894 -0.8348
 1144TIP3   OH224922   2.951   3.625  10.875  0.5257  0.1116  0.0474
 1144TIP3    H124923   2.903   3.651  10.797 -0.2605  1.8555  1.0613
 1144TIP3    H224924   2.902   3.549  10.908  2.7412 -2.8116 -2.8361
 1145TIP3   OH224925   2.971   4.980  13.029 -0.3012 -0.0293 -0.0620
 1145TIP3    H124926   2.967   4.993  12.934  0.8743 -0.4348 -0.1802
 1145TIP3    H224927   2.996   5.066  13.064  4.5759 -0.9395 -0.6104
 1146TIP3   OH224928   0.944   6.055   3.520 -0.1495 -0.0549 -0.0310
 1146TIP3    H124929   0.882   6.114   3.477 -0.1769  0.2622  0.4410
 1146TIP3    H224930   1.017   6.111   3.545 -0.8054  0.0895  1.7283
 1147TIP3   OH224931   6.683   1.787   0.549 -0.1023 -0.5511  0.6685
 1147TIP3    H124932   6.597   1.830   0.551  0.1143 -0.1004  0.4388
 1147TIP3    H224933   6.711   1.795   0.457  0.3339 -0.3924  0.8144
 1148TIP3   OH224934   6.169   0.970   5.113 -0.0224 -0.1538  0.1020
 1148TIP3    H124935   6.163   0.876   5.131  0.7364 -0.2812 -0.2374
 1148TIP3    H224936   6.263   0.985   5.100  0.0707  0.9548  1.7184
 1149TIP3   OH224937   2.572   0.307   2.875 -0.7701  0.7564 -0.7359
 1149TIP3    H124938   2.615   0.369   2.815  1.5757  0.7052  0.7652
 1149TIP3    H224939   2.585   0.345   2.962 -0.8428 -0.9612  0.0618
 1150TIP3   OH224940   6.269   3.340  13.418  0.4202  0.0154 -0.0589
 1150TIP3    H124941   6.240   3.260  13.463  0.0020  0.2207  0.0420
 1150TIP3    H224942   6.255   3.322  13.326  1.8176 -0.6269 -0.1674
 1151TIP3   OH224943   3.745   0.271   3.378 -0.8569  0.1131  0.4737
 1151TIP3    H124944   3.811   0.340   3.370  0.4684 -1.2897 -3.7884
 1151TIP3    H224945   3.662   0.315   3.356 -0.5059  0.8715  0.6315
 1152TIP3   OH224946   3.764   5.890  15.656 -0.2994  0.1585 -0.7397
 1152TIP3    H124947   3.726   5.867  15.571 -0.8549 -0.1003 -0.4271
 1152TIP3    H224948   3.713   5.966  15.686  0.2421  0.5794 -0.8748
 1153TIP3   OH224949   0.516   2.728   1.192  0.0001  0.0144 -0.0437
 1153TIP3    H124950   0.428   2.739   1.156 -0.5766 -1.2003  0.9352
 1153TIP3    H224951   0.563   2.679   1.124 -0.6413 -0.9671  0.2029
 1154TIP3   OH224952   5.309   0.873  13.053  0.4761 -0.0515 -0.3174
 1154TIP3    H124953   5.318   0.891  13.146 -1.0530 -1.7898  0.2241
 1154TIP3    H224954   5.243   0.934  13.022  0.0271 -0.3512  0.0435
 1155TIP3   OH224955   4.759   2.600   2.479 -0.4548  0.3868  0.0798
 1155TIP3    H124956   4.793   2.683   2.446 -1.2872  0.5281 -0.4294
 1155TIP3    H224957   4.760   2.610   2.574  2.7503 -0.3343  0.2480
 1156TIP3   OH224958   6.548   5.084  12.342 -0.4442 -0.4277 -0.1438
 1156TIP3    H124959   6.487   5.019  12.379 -1.0987  0.4225  0.3113
 1156TIP3    H224960   6.493   5.140  12.288  0.0878 -0.1313 -0.3817
 1157TIP3   OH224961   1.231   1.072   1.848 -0.3863 -0.2322  0.0587
 1157TIP3    H124962   1.283   1.020   1.910  2.9084  2.0239 -0.5873
 1157TIP3    H224963   1.278   1.154   1.840 -0.9626 -0.1133 -4.9373
 1158TIP3   OH224964   3.083   2.007   3.122 -0.1794  0.2909 -0.9483
 1158TIP3    H124965   3.034   1.932   3.154  0.0949  1.0416  1.3979
 1158TIP3    H224966   3.028   2.044   3.052 -2.4866  0.4896  0.8730
 1159TIP3   OH224967   6.421   3.291   3.062 -0.0635 -0.0984  0.1424
 1159TIP3    H124968   6.445   3.293   3.155  0.5304  0.7131 -0.0180
 1159TIP3    H224969   6.327   3.310   3.061  0.0789  0.6662  0.5404
 1160TIP3   OH224970   5.379   1.169  12.659 -0.2905 -0.5738  0.2254
 1160TIP3    H124971   5.463   1.179  12.704 -0.2320  1.6713 -0.2833
 1160TIP3    H224972   5.315   1.208  12.718 -0.5882  0.0797 -0.5175
 1161TIP3   OH224973   3.937   3.252   3.466  0.3460  0.2687  0.0468
 1161TIP3    H124974   3.864   3.193   3.484  0.9635 -0.4492  0.2452
 1161TIP3    H224975   3.959   3.290   3.552  0.1168  0.5899 -0.0363
 1162TIP3   OH224976   5.911   2.617  16.222 -0.0132 -0.0959 -0.1291
 1162TIP3    H124977   5.971   2.684  16.256 -0.4137 -0.1343  0.6799
 1162TIP3    H224978   5.927   2.616  16.128  1.3770 -0.2214  0.0849
 1163TIP3   OH224979   1.576   3.754  16.818  0.5535  0.3190 -0.3103
 1163TIP3    H124980   1.656   3.715  16.853 -0.7427 -0.7647  1.6426
 1163TIP3    H224981   1.511   3.684  16.824 -1.5287  2.2738  1.9630
 1164TIP3   OH224982   1.080   5.671  16.884  0.6077  0.0975 -0.1926
 1164TIP3    H124983   1.142   5.630  16.946  0.4812  0.9213  0.4899
 1164TIP3    H224984   1.128   5.746  16.849  0.1786  0.4420 -0.0458
 1165TIP3   OH224985   1.949   1.019  14.037 -0.2488 -0.1372 -0.4955
 1165TIP3    H124986   1.875   0.977  14.081 -0.4150 -0.3823 -1.0094
 1165TIP3    H224987   2.013   1.035  14.107  0.5224 -2.7103 -0.5088
 1166TIP3   OH224988   1.194   4.221  16.315  0.0589 -0.3751 -0.0858
 1166TIP3    H124989   1.208   4.285  16.385  1.1680  0.3487 -0.9307
 1166TIP3    H224990   1.214   4.137  16.355 -1.3572 -0.2209  1.0288
 1167TIP3   OH224991   0.826   1.844  11.444  0.3892 -0.1921  0.2812
 1167TIP3    H124992   0.793   1.781  11.379 -0.8703 -0.3091  1.0002
 1167TIP3    H224993   0.900   1.887  11.401  0.4139 -1.2089 -0.7278
 1168TIP3   OH224994   0.497   1.469   0.835 -0.4370 -0.0373  0.2775
 1168TIP3    H124995   0.524   1.542   0.780 -1.0503 -0.7017 -0.9527
 1168TIP3    H224996   0.578   1.440   0.878  0.0539  0.4798 -0.2858
 1169TIP3   OH224997   5.436   4.388   0.322 -1.0637 -0.0457 -0.6902
 1169TIP3    H124998   5.468   4.338   0.246  1.8919 -1.2728  1.1447
 1169TIP3    H224999   5.490   4.467   0.322  0.7766 -1.1787  1.3255
 1170TIP3   OH225000   0.723   5.722   1.535  0.1133 -0.0347  0.3780
 1170TIP3    H125001   0.703   5.804   1.491  0.5366  0.2448  0.7046
 1170TIP3    H225002   0.778   5.746   1.609 -0.3115 -0.5343  0.8752
 1171TIP3   OH225003   2.189   1.576  13.508  0.3332  0.1405  0.3056
 1171TIP3    H125004   2.245   1.514  13.462 -0.6854 -0.7809  0.2557
 1171TIP3    H225005   2.155   1.527  13.583 -1.2268  0.2940 -0.2515
 1172TIP3   OH225006   1.756   5.840  15.219 -0.1995 -0.5492 -0.0856
 1172TIP3    H125007   1.716   5.913  15.267 -0.5744 -0.2410 -0.8360
 1172TIP3    H225008   1.681   5.788  15.189 -0.0866  0.0855 -1.5941
 1173TIP3   OH225009   6.245   3.266   2.092  0.1679 -0.0688 -0.2637
 1173TIP3    H125010   6.268   3.234   2.179  0.8563 -3.4237 -1.5302
 1173TIP3    H225011   6.327   3.301   2.057  0.2653 -0.1495 -0.1156
 1174TIP3   OH225012   1.856   4.917  14.378  0.1699  0.0801  0.2473
 1174TIP3    H125013   1.948   4.916  14.354  0.3770  0.8915  0.9435
 1174TIP3    H225014   1.857   4.914  14.474 -0.5472 -0.5510  0.2443
 1175TIP3   OH225015   4.510   3.099  15.629  0.3049 -0.4055 -0.1097
 1175TIP3    H125016   4.465   3.099  15.544 -0.0467 -1.3799  0.0642
 1175TIP3    H225017   4.600   3.077  15.608  0.1913 -0.7655 -0.2143
 1176TIP3   OH225018   0.064   3.272  13.586  0.0297 -0.1778  0.2176
 1176TIP3    H125019   0.088   3.220  13.510  1.9823  1.0230 -0.0638
 1176TIP3    H225020   0.146   3.283  13.634 -1.1480 -0.9117  2.5295
 1177TIP3   OH225021   6.009   4.834   1.285 -0.3015 -0.1318  0.0188
 1177TIP3    H125022   5.927   4.812   1.241 -0.3168 -1.2786  0.5805
 1177TIP3    H225023   6.028   4.758   1.340  0.0579  0.9775  1.4825
 1178TIP3   OH225024   2.557   0.313  13.067 -0.2612 -0.3803  0.4950
 1178TIP3    H125025   2.628   0.350  13.119 -0.0555  0.0708 -0.0941
 1178TIP3    H225026   2.600   0.250  13.009 -0.5465 -1.2028  1.1636
 1179TIP3   OH225027   1.108   6.539  14.974 -0.0327  0.2143  0.6683
 1179TIP3    H125028   1.130   6.623  15.015 -0.1677  1.1910 -1.1606
 1179TIP3    H225029   1.015   6.547  14.952  0.1357 -0.0857 -0.1945
 1180TIP3   OH225030   0.860   4.678  11.863 -0.3037  0.2654  0.2350
 1180TIP3    H125031   0.920   4.656  11.934  0.2152  0.1137 -0.2458
 1180TIP3    H225032   0.917   4.698  11.789 -0.8210  1.0279  0.0262
 1181TIP3   OH225033   5.884   4.336   4.535  0.0691 -0.3257  0.0669
 1181TIP3    H125034   5.812   4.392   4.508  0.8573  1.2146  1.0046
 1181TIP3    H225035   5.963   4.380   4.504  0.6409 -2.0518 -1.0663
 1182TIP3   OH225036   4.458   1.313   0.727  1.0446  0.1360 -0.1223
 1182TIP3    H125037   4.368   1.308   0.695  0.7627  1.2851  0.4413
 1182TIP3    H225038   4.460   1.256   0.803  1.0566 -0.6409 -0.6961
 1183TIP3   OH225039   5.700   3.533   1.007 -0.2970  0.7320 -0.1592
 1183TIP3    H125040   5.723   3.618   1.046 -1.6996  0.6705  0.8767
 1183TIP3    H225041   5.606   3.525   1.019 -0.6829  0.2933 -2.8916
 1184TIP3   OH225042   5.491   4.875   0.100 -0.0302  0.6801 -0.2400
 1184TIP3    H125043   5.405   4.898   0.134  0.2930  2.2824 -0.4490
 1184TIP3    H225044   5.529   4.958   0.072  0.8365 -0.2331 -1.9008
 1185TIP3   OH225045   0.034   6.726   3.608 -0.1936  0.3480 -0.3081
 1185TIP3    H125046   0.118   6.711   3.564 -0.0073 -0.4853  0.3051
 1185TIP3    H225047  -0.012   6.788   3.551 -0.2671 -1.2357 -2.0802
 1186TIP3   OH225048   6.799   1.900  14.767 -0.3352 -0.2392 -0.5487
 1186TIP3    H125049   6.757   1.986  14.768 -0.0162 -0.0793  0.5045
 1186TIP3    H225050   6.821   1.885  14.675 -1.8556  0.0687 -0.9877
 1187TIP3   OH225051   3.791   4.948  13.634  0.0872 -0.2740 -0.1617
 1187TIP3    H125052   3.838   4.981  13.558  0.2616  1.2695  0.5835
 1187TIP3    H225053   3.793   5.020  13.697 -0.4703 -1.3350  1.1237
 1188TIP3   OH225054   2.582   2.566   5.589 -0.2618  0.8297  0.7674
 1188TIP3    H125055   2.628   2.649   5.581  0.7237  0.3888  1.6825
 1188TIP3    H225056   2.609   2.531   5.674  0.5384 -1.1125 -0.2147
 1189TIP3   OH225057   6.787   4.128   0.265 -0.1693  0.0679  0.5834
 1189TIP3    H125058   6.705   4.104   0.223 -0.4919  0.9195  0.7223
 1189TIP3    H225059   6.763   4.189   0.335  0.4332 -0.7839  1.5654
 1190TIP3   OH225060   6.698   4.479   1.739  0.1501 -0.5191  0.2458
 1190TIP3    H125061   6.747   4.554   1.773 -0.3030  0.4292 -1.1104
 1190TIP3    H225062   6.627   4.518   1.687 -2.3784 -1.8011  2.4910
 1191TIP3   OH225063   2.282   0.465   2.907  0.2860  0.1667  0.7625
 1191TIP3    H125064   2.353   0.462   2.971  0.8916 -0.7144  0.0853
 1191TIP3    H225065   2.219   0.401   2.939  0.0000  0.6346  1.1359
 1192TIP3   OH225066   4.133   3.016   0.146 -0.1554  0.3634  0.0350
 1192TIP3    H125067   4.118   3.097   0.097  0.5356 -0.4454 -1.5950
 1192TIP3    H225068   4.228   3.005   0.147 -0.2766 -1.0435 -0.8787
 1193TIP3   OH225069   3.639   3.953  13.620 -0.5019  0.3649 -0.0271
 1193TIP3    H125070   3.552   3.952  13.660 -0.4008  0.6451  0.1954
 1193TIP3    H225071   3.626   3.910  13.535 -0.4691 -1.3998  0.8113
 1194TIP3   OH225072   5.371   4.858   5.063 -0.4944  0.1162 -0.3506
 1194TIP3    H125073   5.339   4.907   5.138  0.9556  2.3047 -1.0658
 1194TIP3    H225074   5.466   4.856   5.074 -0.4099 -1.3516 -1.0866
 1195TIP3   OH225075   6.652   1.338   5.595 -0.2128 -0.2146 -0.1072
 1195TIP3    H125076   6.603   1.420   5.599 -2.2192 -1.2776 -1.0181
 1195TIP3    H225077   6.744   1.364   5.597 -0.7755  2.1021 -1.1631
 1196TIP3   OH225078   1.737   2.576  16.492 -0.3518 -0.0052  0.1974
 1196TIP3    H125079   1.711   2.530  16.572 -0.1003  0.9567  0.8463
 1196TIP3    H225080   1.667   2.556  16.429 -1.9146  1.3001  1.4419
 1197TIP3   OH225081   6.733   6.749   4.249  0.0252  0.7098  0.2771
 1197TIP3    H125082   6.684   6.758   4.331 -1.4815 -0.7652 -0.4056
 1197TIP3    H225083   6.807   6.692   4.272 -0.8146 -0.3437  0.4978
 1198TIP3   OH225084   5.066   2.378   1.803  0.1321 -0.2504  0.0875
 1198TIP3    H125085   5.004   2.437   1.760 -1.1964 -1.1640  0.6602
 1198TIP3    H225086   5.152   2.412   1.781 -0.5852  1.5690 -0.0427
 1199TIP3   OH225087   5.102   3.070  12.953 -0.1742 -0.3104  0.0440
 1199TIP3    H125088   5.197   3.082  12.947 -0.3907  1.1740 -0.9362
 1199TIP3    H225089   5.068   3.112  12.874 -1.6854 -0.3745  0.6349
 1200TIP3   OH225090   2.228   3.724   5.078 -0.0286  0.3487 -0.7054
 1200TIP3    H125091   2.184   3.790   5.132  0.4975 -0.3823  0.6846
 1200TIP3    H225092   2.180   3.724   4.995 -0.3599  2.0898 -0.5485
 1201TIP3   OH225093   0.714   4.451  11.806  0.3079 -0.2021 -0.5857
 1201TIP3    H125094   0.733   4.543  11.788  0.3562  0.2877  1.7012
 1201TIP3    H225095   0.761   4.432  11.887 -2.2085 -1.3192  0.7072
 1202TIP3   OH225096   0.129   4.131  11.569  0.6517 -0.2940  0.4054
 1202TIP3    H125097   0.174   4.068  11.625 -1.4643 -2.7781 -0.4616
 1202TIP3    H225098   0.117   4.084  11.486  1.1714  2.2260 -1.2186
 1203TIP3   OH225099   4.762   3.807   4.012 -0.0877  0.1316 -0.1603
 1203TIP3    H125100   4.741   3.744   4.081 -0.2414 -0.4230 -0.7029
 1203TIP3    H225101   4.712   3.885   4.035  0.8706  0.4199  1.0595
 1204TIP3   OH225102   5.565   5.707   4.313 -0.1130 -0.2566  0.2732
 1204TIP3    H125103   5.478   5.669   4.329  0.0961 -0.8324  0.0628
 1204TIP3    H225104   5.611   5.698   4.396 -0.1836 -0.1417  0.3251
 1205TIP3   OH225105   0.017   6.088  15.326 -0.6152 -0.0825  0.5970
 1205TIP3    H125106   0.038   6.181  15.332  1.1157 -0.3800 -0.0954
 1205TIP3    H225107  -0.034   6.070  15.405  1.5119  0.8707  2.3276
 1206TIP3   OH225108   5.737   1.341   1.526 -0.1115 -0.5276  0.5881
 1206TIP3    H125109   5.799   1.334   1.599 -1.4906  1.8807  2.1148
 1206TIP3    H225110   5.785   1.307   1.451  2.3403 -0.6139  2.0858
 1207TIP3   OH225111   1.287   3.818   5.391  0.8406  0.4608  0.7764
 1207TIP3    H125112   1.233   3.775   5.326  1.9658 -0.1883  0.2306
 1207TIP3    H225113   1.230   3.883   5.432 -0.1413  0.2495 -0.2256
 1208TIP3   OH225114   1.977   5.365   5.695 -0.1507 -0.7089 -0.5682
 1208TIP3    H125115   1.927   5.389   5.773  1.0446 -0.3037  0.0923
 1208TIP3    H225116   1.952   5.274   5.678  1.2140 -1.5557  1.6167
 1209TIP3   OH225117   2.947   6.261  11.674 -0.5353  0.0291 -0.9011
 1209TIP3    H125118   2.907   6.335  11.628 -2.3393 -0.0839  0.3903
 1209TIP3    H225119   2.881   6.192  11.671  1.1629 -1.6561 -2.1987
 1210TIP3   OH225120   2.303   2.305  14.357 -0.2485  0.0921 -0.0222
 1210TIP3    H125121   2.260   2.323  14.273  1.3204  1.5915 -0.5432
 1210TIP3    H225122   2.252   2.354  14.421 -0.7383 -0.0963 -0.2592
 1211TIP3   OH225123   0.545   5.608  14.367  0.1009 -0.6316  0.4958
 1211TIP3    H125124   0.550   5.551  14.290  0.6983 -0.5305  0.4525
 1211TIP3    H225125   0.545   5.696  14.331  1.3995 -0.5540  0.6331
 1212TIP3   OH225126   0.048   2.395  15.145  0.5190  0.3154 -0.2151
 1212TIP3    H125127   0.017   2.483  15.163 -0.8390  0.3416 -2.3571
 1212TIP3    H225128   0.131   2.389  15.193  0.6142  2.7002  0.0527
 1213TIP3   OH225129   3.721   5.357  14.521  0.1754 -0.1406  0.3868
 1213TIP3    H125130   3.692   5.429  14.576  1.7397  0.7079  0.1748
 1213TIP3    H225131   3.780   5.306  14.577  0.9461  0.1264 -0.1589
 1214TIP3   OH225132   4.847   1.937  16.198  0.7509 -0.4048 -0.2416
 1214TIP3    H125133   4.829   2.007  16.135  1.6608 -0.5643 -0.6903
 1214TIP3    H225134   4.935   1.955  16.231  0.1725 -0.1508  1.2346
 1215TIP3   OH225135   0.493   6.854  12.119  0.0821  0.0245  0.9956
 1215TIP3    H125136   0.564   6.858  12.056 -1.2655 -1.0761 -0.6814
 1215TIP3    H225137   0.420   6.814  12.071 -0.9534 -1.0339  3.2909
 1216TIP3   OH225138   5.546   0.066  13.887 -0.3390 -0.1525  0.5808
 1216TIP3    H125139   5.482   0.012  13.934 -0.7552 -0.1139  0.0578
 1216TIP3    H225140   5.584   0.122  13.955 -0.5877 -0.4349  0.9575
 1217TIP3   OH225141   1.600   0.128   2.472 -0.8557  0.0011 -0.2563
 1217TIP3    H125142   1.688   0.150   2.503 -0.8151 -1.5733  0.9276
 1217TIP3    H225143   1.599   0.152   2.380  1.4428 -1.5834 -0.7623
 1218TIP3   OH225144   3.609   0.620  16.365 -0.0707  0.0187  0.0080
 1218TIP3    H125145   3.583   0.631  16.457  0.0882 -0.3313  0.0959
 1218TIP3    H225146   3.700   0.588  16.370 -0.3020 -0.6942 -0.2531
 1219TIP3   OH225147   1.039   5.454   0.221 -0.0907  0.4937 -0.0899
 1219TIP3    H125148   1.015   5.363   0.239  1.2931  0.4126  1.5522
 1219TIP3    H225149   1.111   5.447   0.158 -1.2342  0.5784 -1.4774
 1220TIP3   OH225150   5.963   6.558  14.727  0.5844  0.2565 -0.9258
 1220TIP3    H125151   6.045   6.535  14.771 -0.4606  0.3132  1.2012
 1220TIP3    H225152   5.981   6.642  14.685  1.3357  0.8215  0.4507
 1221TIP3   OH225153   2.850   0.591  13.358 -0.0275  0.1314  0.1006
 1221TIP3    H125154   2.811   0.506  13.336  0.7575 -0.2441  0.1091
 1221TIP3    H225155   2.831   0.603  13.451 -0.3911  0.1007  0.0304
 1222TIP3   OH225156   6.184   6.541  11.168  0.6863  0.0633 -0.4754
 1222TIP3    H125157   6.250   6.609  11.151 -0.5151  0.8141 -2.3056
 1222TIP3    H225158   6.194   6.480  11.096  1.5172 -1.6118  0.9745
 1223TIP3   OH225159   4.851   2.871  16.888 -0.3431  0.0648  0.0821
 1223TIP3    H125160   4.763   2.840  16.910  0.2657 -0.7924  1.3809
 1223TIP3    H225161   4.839   2.965  16.873 -1.4744 -0.0305  0.2794
 1224TIP3   OH225162   4.440   4.461   3.130 -0.2814 -0.1002  0.6103
 1224TIP3    H125163   4.494   4.537   3.108 -1.9711  0.8672 -0.4733
 1224TIP3    H225164   4.443   4.456   3.225 -0.2311  1.4558  0.7270
 1225TIP3   OH225165   1.832   0.530  11.671 -0.1019  0.0541  0.2003
 1225TIP3    H125166   1.879   0.476  11.735  0.7019 -0.3772 -0.7396
 1225TIP3    H225167   1.897   0.593  11.640  0.0846 -0.9461 -1.5726
 1226TIP3   OH225168   4.107   5.947   2.487 -0.0339  0.0489  0.5319
 1226TIP3    H125169   4.112   5.946   2.583  0.5257  0.2879  0.5104
 1226TIP3    H225170   4.142   5.862   2.460  0.2118  0.1492  0.5285
 1227TIP3   OH225171   0.564   3.834  13.761  0.1254 -0.0390 -0.1190
 1227TIP3    H125172   0.490   3.886  13.794 -0.7417 -1.5655  0.4290
 1227TIP3    H225173   0.524   3.755  13.726  1.4507 -0.5461 -0.5432
 1228TIP3   OH225174   4.983   5.625   1.176 -0.4586  0.4701 -0.6735
 1228TIP3    H125175   4.921   5.644   1.246 -1.0605 -1.7894 -0.5221
 1228TIP3    H225176   5.066   5.611   1.221 -0.5775  0.2137 -0.5341
 1229TIP3   OH225177   3.977   6.298   2.511  0.2191  0.4338  0.4051
 1229TIP3    H125178   3.890   6.301   2.470  1.3183 -1.5886 -2.4488
 1229TIP3    H225179   4.023   6.374   2.476 -0.1050  1.0447  1.2706
 1230TIP3   OH225180   2.559   3.799  12.834  0.0772 -0.4360  0.1871
 1230TIP3    H125181   2.530   3.769  12.748  0.4504  1.2837 -0.5797
 1230TIP3    H225182   2.550   3.894  12.831  2.2988 -0.1138  1.2006
 1231TIP3   OH225183   5.006   0.701  15.783  0.2134 -0.0184  0.1405
 1231TIP3    H125184   4.948   0.754  15.838  3.9295  2.0634  2.4907
 1231TIP3    H225185   5.033   0.628  15.839 -1.3299 -1.9883 -1.5337
 1232TIP3   OH225186   1.965   4.931  13.993 -0.0477 -0.0042  0.7520
 1232TIP3    H125187   2.024   5.006  13.987 -0.3857  0.1461 -0.9938
 1232TIP3    H225188   1.879   4.968  14.009 -0.2984  0.0365 -0.6069
 1233TIP3   OH225189   5.870   1.879  14.302  0.2602  0.2376  0.2216
 1233TIP3    H125190   5.837   1.860  14.390 -0.7120  1.1439  0.0770
 1233TIP3    H225191   5.871   1.975  14.297 -0.1221  0.2031 -0.8907
 1234TIP3   OH225192   2.690   5.576   5.858  0.0205  0.5532 -0.3048
 1234TIP3    H125193   2.767   5.588   5.914 -0.0363 -0.9360  0.1320
 1234TIP3    H225194   2.712   5.622   5.777  1.0156  0.8548  0.1188
 1235TIP3   OH225195   6.043   5.938  14.716  0.0060 -0.0135  0.1621
 1235TIP3    H125196   6.119   5.981  14.754  1.0973 -1.6346 -0.0858
 1235TIP3    H225197   6.021   5.869  14.779  0.7681 -1.6158 -1.2564
 1236TIP3   OH225198   2.747   6.280   3.981 -0.4894 -0.3207 -0.8043
 1236TIP3    H125199   2.702   6.238   4.055  0.3959  2.5385  1.5456
 1236TIP3    H225200   2.680   6.287   3.913 -1.8575 -1.4794  0.3611
 1237TIP3   OH225201   3.563   6.705  12.427 -0.3715 -0.1438 -0.4109
 1237TIP3    H125202   3.483   6.682  12.379 -0.6367  0.3312 -0.2134
 1237TIP3    H225203   3.587   6.791  12.393  0.2825 -0.4634 -0.7483
 1238TIP3   OH225204   0.686   3.031   0.047 -0.3753  1.1368  0.1601
 1238TIP3    H125205   0.602   3.010   0.006  0.0573 -0.4256  0.0021
 1238TIP3    H225206   0.715   2.948   0.085  0.8075  1.7979  0.7490
 1239TIP3   OH225207   1.837   5.830   1.290  0.2341  0.0645  0.5288
 1239TIP3    H125208   1.910   5.814   1.351 -0.3797 -0.6574  1.0876
 1239TIP3    H225209   1.814   5.743   1.258  0.0108  0.3594 -0.1140
 1240TIP3   OH225210   2.086   3.298   0.376  0.1932  0.4145 -0.1928
 1240TIP3    H125211   2.155   3.281   0.312  1.3344 -0.9111  1.3219
 1240TIP3    H225212   2.082   3.394   0.381  1.8624  0.5241 -0.3744
 1241TIP3   OH225213   2.264   1.861   2.267 -0.0286 -0.0815 -0.3194
 1241TIP3    H125214   2.316   1.931   2.308  0.1964 -1.5176  2.0473
 1241TIP3    H225215   2.303   1.780   2.300 -1.6458 -1.2874 -1.2183
 1242TIP3   OH225216   2.516   1.485  14.820  0.1080  0.4185  0.0381
 1242TIP3    H125217   2.589   1.486  14.758 -0.1153 -2.6726 -0.4402
 1242TIP3    H225218   2.558   1.497  14.906  1.2069 -0.9296 -0.2634
 1243TIP3   OH225219   6.688   0.656   2.979  0.2915 -0.2128 -0.4778
 1243TIP3    H125220   6.680   0.570   2.938 -1.4844 -0.9172  1.1680
 1243TIP3    H225221   6.725   0.712   2.911 -3.5632 -0.9666 -3.5337
 1244TIP3   OH225222   4.301   3.841  13.392 -0.5404 -0.4019 -0.1552
 1244TIP3    H125223   4.231   3.802  13.443  0.0349  0.1810  1.1224
 1244TIP3    H225224   4.329   3.917  13.443 -1.8779  2.0203 -2.7083
 1245TIP3   OH225225   3.147   3.827  16.776 -0.1852  0.3323  0.1459
 1245TIP3    H125226   3.233   3.866  16.759 -0.4354  0.9247  0.2112
 1245TIP3    H225227   3.142   3.753  16.715  0.7298 -0.2675  0.7537
 1246TIP3   OH225228   4.044   3.214  12.894  0.1686 -0.7216 -0.4143
 1246TIP3    H125229   4.030   3.294  12.842 -0.4434 -0.0008  0.8170
 1246TIP3    H225230   4.081   3.151  12.831  1.1914  0.6888 -1.3082
 1247TIP3   OH225231   0.208   4.365  11.691 -0.1765 -0.7623  0.2043
 1247TIP3    H125232   0.151   4.289  11.675 -1.2492 -0.3744  1.9411
 1247TIP3    H225233   0.243   4.351  11.779 -1.8607  1.5798  1.3551
 1248TIP3   OH225234   6.120   1.403   3.955 -0.5067 -0.1589 -0.0288
 1248TIP3    H125235   6.203   1.391   3.910  0.7333  2.0531  1.4734
 1248TIP3    H225236   6.080   1.478   3.912  0.0230  1.0623  1.5060
 1249TIP3   OH225237   0.529   5.116  14.283  0.3443 -0.7066  0.4158
 1249TIP3    H125238   0.458   5.068  14.241  0.1170 -0.9306  1.0380
 1249TIP3    H225239   0.501   5.123  14.374  0.2620  0.8156  0.2917
 1250TIP3   OH225240   4.539   3.765  16.194 -0.2785  0.2496 -0.5468
 1250TIP3    H125241   4.566   3.756  16.285  1.1802  0.7378 -0.9059
 1250TIP3    H225242   4.525   3.676  16.164  0.5574  0.0071 -0.2300
 1251TIP3   OH225243   0.581   3.798  12.552 -1.1499 -0.7618 -0.0225
 1251TIP3    H125244   0.603   3.835  12.467  1.3970 -0.2024  0.7793
 1251TIP3    H225245   0.536   3.868  12.598  1.0283  0.4448  0.4326
 1252TIP3   OH225246   1.093   0.513  16.788  0.0017  0.1640  0.0818
 1252TIP3    H125247   1.012   0.498  16.836 -1.1430  0.1126 -1.7557
 1252TIP3    H225248   1.161   0.515  16.855 -1.3539 -0.9764  1.5633
 1253TIP3   OH225249   2.922   6.599  12.701 -0.1630 -0.1550  0.3735
 1253TIP3    H125250   2.910   6.517  12.749  2.3464  0.2998  1.9404
 1253TIP3    H225251   3.001   6.585  12.650  0.1457  1.1916  0.4641
 1254TIP3   OH225252   6.442   2.825  12.880 -0.6308  0.0714  0.5713
 1254TIP3    H125253   6.347   2.821  12.870 -0.6620 -1.3341  1.2190
 1254TIP3    H225254   6.459   2.784  12.965  0.6364 -0.6870 -0.0279
 1255TIP3   OH225255   0.197   1.696   4.002 -0.0431 -0.3888  0.1656
 1255TIP3    H125256   0.242   1.744   4.071 -0.1826  1.1758 -0.7836
 1255TIP3    H225257   0.226   1.738   3.921 -0.3034 -1.8185 -0.7078
 1256TIP3   OH225258   5.101   5.091  11.050  0.5407  0.7043 -0.2812
 1256TIP3    H125259   5.007   5.094  11.031 -0.5250 -0.7826  3.6969
 1256TIP3    H225260   5.128   5.182  11.054 -1.1781  1.2336  0.1482
 1257TIP3   OH225261   3.413   4.501   5.795  0.5063  0.1281  0.5926
 1257TIP3    H125262   3.406   4.555   5.716  0.9446  1.9214  1.7042
 1257TIP3    H225263   3.338   4.443   5.791  0.5545  0.1308 -1.1646
 1258TIP3   OH225264   0.351   5.139   5.002 -0.0482  0.2682 -0.2469
 1258TIP3    H125265   0.410   5.191   4.947 -0.0095  1.0301  0.4903
 1258TIP3    H225266   0.273   5.125   4.948 -0.6183  2.2438 -0.0319
 1259TIP3   OH225267   4.006   2.953  13.049 -0.3206  0.1522 -0.2416
 1259TIP3    H125268   3.943   2.906  13.104  0.5333 -0.0685  0.5673
 1259TIP3    H225269   3.959   3.032  13.020 -0.8050  0.2447  0.7641
 1260TIP3   OH225270   2.625   1.774   4.589 -0.5576  0.1613  0.1416
 1260TIP3    H125271   2.598   1.814   4.506 -0.4412 -0.2695 -0.1089
 1260TIP3    H225272   2.711   1.737   4.570 -0.8122 -0.5019  0.2698
 1261TIP3   OH225273   4.792   1.512   0.431  0.2860  0.1292  0.0560
 1261TIP3    H125274   4.717   1.570   0.418  0.1698  0.1811  0.9039
 1261TIP3    H225275   4.865   1.572   0.448  0.2656  0.0473  0.4424
 1262TIP3   OH225276   4.612   1.123  15.201  0.0715 -0.4628  0.2438
 1262TIP3    H125277   4.698   1.101  15.166 -1.2067 -1.4426 -2.5025
 1262TIP3    H225278   4.618   1.216  15.224  2.0860 -0.7347  1.0025
 1263TIP3   OH225279   3.336   5.472  13.991  0.3525 -0.4179  0.3008
 1263TIP3    H125280   3.389   5.530  14.046  2.8221 -0.5867 -1.7654
 1263TIP3    H225281   3.373   5.385  14.005  0.3849 -0.6057 -0.8893
 1264TIP3   OH225282   5.324   6.610  11.655 -0.9993  0.2449  0.2376
 1264TIP3    H125283   5.364   6.614  11.742 -1.0387 -1.6001  0.3732
 1264TIP3    H225284   5.321   6.701  11.626  3.0247  0.5608  0.3222
 1265TIP3   OH225285   5.729   0.706   5.141  0.1307 -0.0417  0.0315
 1265TIP3    H125286   5.685   0.790   5.126  1.3705  0.7344  0.6040
 1265TIP3    H225287   5.803   0.706   5.081  0.6094 -0.3660  0.6108
 1266TIP3   OH225288   5.583   0.333  11.975  0.6748 -0.4708 -0.1091
 1266TIP3    H125289   5.624   0.265  12.029  0.8874  0.7174  1.2963
 1266TIP3    H225290   5.582   0.411  12.031 -1.8750  0.0504 -0.7241
 1267TIP3   OH225291   1.792   1.446  13.156 -0.1748  0.5762 -0.0844
 1267TIP3    H125292   1.839   1.471  13.236  1.0773  1.5707 -1.0843
 1267TIP3    H225293   1.724   1.386  13.186  1.9735 -1.2761  1.3921
 1268TIP3   OH225294   5.521   1.232  14.888 -0.2274 -0.3040  0.2471
 1268TIP3    H125295   5.428   1.252  14.881  0.0847  1.2771  0.2108
 1268TIP3    H225296   5.561   1.313  14.921  1.4622 -0.1202 -2.0079
 1269TIP3   OH225297   2.955   0.879  11.225  0.6790 -0.2260  0.2892
 1269TIP3    H125298   2.992   0.793  11.201 -1.5362 -1.1931  0.1494
 1269TIP3    H225299   2.975   0.888  11.318  1.4045 -0.6288  0.1837
 1270TIP3   OH225300   4.583   5.032  16.239 -0.4567 -1.1047  0.0005
 1270TIP3    H125301   4.632   5.096  16.291 -0.6726 -0.0769 -1.0262
 1270TIP3    H225302   4.495   5.068  16.234 -1.1210 -2.4873  1.0585
 1271TIP3   OH225303   0.716   4.715   0.479  0.5137 -0.3035  0.2509
 1271TIP3    H125304   0.714   4.755   0.565  2.2750 -1.0830  0.7008
 1271TIP3    H225305   0.797   4.664   0.478  0.3380 -0.6293 -1.7225
 1272TIP3   OH225306   4.644   3.423  14.586  0.0062 -0.2061 -0.0729
 1272TIP3    H125307   4.562   3.463  14.555 -0.6177 -1.0907  0.3785
 1272TIP3    H225308   4.682   3.488  14.645 -0.0098  0.5013 -0.8299
 1273TIP3   OH225309   0.623   6.800  13.224  0.2290 -0.1053 -0.2458
 1273TIP3    H125310   0.545   6.774  13.272 -0.5106 -0.9743 -1.8412
 1273TIP3    H225311   0.666   6.717  13.202  0.7022  0.2881 -0.8404
 1274TIP3   OH225312   3.791   2.200   2.508  0.6143  0.3278  0.4016
 1274TIP3    H125313   3.814   2.282   2.464 -0.7367  0.3190 -0.3894
 1274TIP3    H225314   3.875   2.158   2.525  1.2939  1.4873  0.0556
 1275TIP3   OH225315   3.465   6.200  16.676 -0.5634 -0.2716  0.2080
 1275TIP3    H125316   3.426   6.130  16.623 -1.9562  0.2822  0.4652
 1275TIP3    H225317   3.390   6.250  16.708  0.4013  1.5751 -0.2726
 1276TIP3   OH225318   1.516   4.378   1.659  0.2838 -0.1835  0.3409
 1276TIP3    H125319   1.449   4.319   1.626 -0.4190  1.5656 -1.5847
 1276TIP3    H225320   1.590   4.321   1.680 -2.0106 -2.2989  3.5242
 1277TIP3   OH225321   5.881   5.757   5.967  0.0547  0.0942  0.1986
 1277TIP3    H125322   5.858   5.849   5.971 -1.7747 -0.3616  2.4734
 1277TIP3    H225323   5.947   5.745   6.035 -0.5943 -0.4405  0.7609
 1278TIP3   OH225324   2.593   0.827   0.720  0.5280  0.0704 -0.2508
 1278TIP3    H125325   2.646   0.895   0.678  2.3532 -1.0290  0.1490
 1278TIP3    H225326   2.609   0.748   0.668  0.5945 -0.6576  0.8303
 1279TIP3   OH225327   4.521   2.912  12.718 -0.5465 -0.0765 -0.1909
 1279TIP3    H125328   4.613   2.885  12.717 -0.1034  1.3082  0.6057
 1279TIP3    H225329   4.507   2.947  12.806 -2.0017 -0.7642 -0.1210
 1280TIP3   OH225330   2.945   5.895  14.652  0.1899 -0.7310  0.3912
 1280TIP3    H125331   2.866   5.896  14.706  0.6778  0.3634  1.1376
 1280TIP3    H225332   2.932   5.964  14.587  1.0434  0.3931  1.3564
 1281TIP3   OH225333   2.788   1.414  15.256  0.3282  0.0091 -0.2310
 1281TIP3    H125334   2.778   1.333  15.205 -0.7056 -0.0925  0.0938
 1281TIP3    H225335   2.784   1.385  15.347 -1.0078  0.5064 -0.1132
 1282TIP3   OH225336   1.426   1.318  15.508  0.0859 -0.7122  0.2693
 1282TIP3    H125337   1.471   1.256  15.450 -1.3547 -1.7758  0.2289
 1282TIP3    H225338   1.473   1.401  15.495  1.0752 -1.4092 -0.8756
 1283TIP3   OH225339   6.869   4.770  15.108  0.5477  0.3210  0.2010
 1283TIP3    H125340   6.837   4.847  15.060 -0.8565  0.5997  1.5239
 1283TIP3    H225341   6.951   4.799  15.148  0.2377  1.0128  0.3481
 1284TIP3   OH225342   0.846   1.755   6.096  0.1352 -0.4959 -0.9054
 1284TIP3    H125343   0.881   1.686   6.153 -0.3591  0.2302  0.3329
 1284TIP3    H225344   0.751   1.740   6.097 -0.0311  0.4865 -0.1952
 1285TIP3   OH225345   0.444   6.776   5.204  0.0172  0.2058  0.1581
 1285TIP3    H125346   0.471   6.829   5.279  0.7058 -0.5213  0.4340
 1285TIP3    H225347   0.507   6.797   5.136  1.0168 -1.1085  0.6399
 1286TIP3   OH225348   1.906   2.292   1.726  0.1007 -0.0248  0.5444
 1286TIP3    H125349   1.979   2.323   1.779  0.2066 -1.4586  1.2706
 1286TIP3    H225350   1.835   2.353   1.745  0.7286  0.6574  0.7668
 1287TIP3   OH225351   5.776   0.836   4.789 -0.2869  0.8687  0.1060
 1287TIP3    H125352   5.735   0.875   4.867  1.0512 -0.2779  1.4679
 1287TIP3    H225353   5.839   0.902   4.760 -0.8025  1.3138 -0.0040
 1288TIP3   OH225354   1.518   5.922  16.757 -0.1946  1.0880  0.2867
 1288TIP3    H125355   1.579   5.957  16.692 -1.0690  0.2166 -1.0354
 1288TIP3    H225356   1.574   5.872  16.816  0.6456  2.1049  0.3945
 1289TIP3   OH225357   0.624   1.651   3.594  0.1297 -0.7870  0.1919
 1289TIP3    H125358   0.555   1.610   3.541 -1.0713  1.8875 -0.4826
 1289TIP3    H225359   0.702   1.646   3.539 -0.9636  1.4283 -1.7196
 1290TIP3   OH225360   5.906   3.310  15.679  0.2374 -0.3217  0.1741
 1290TIP3    H125361   5.991   3.269  15.665 -0.3897 -1.1469 -1.3416
 1290TIP3    H225362   5.926   3.404  15.684  1.1533 -0.4258 -1.0251
 1291TIP3   OH225363   0.424   4.052   0.548  0.2500  0.1541 -0.3007
 1291TIP3    H125364   0.390   4.085   0.631  3.3546 -0.6976  1.4852
 1291TIP3    H225365   0.445   4.130   0.498 -0.3717  0.7031  0.2734
 1292TIP3   OH225366   2.027   6.261  14.591  0.7141 -0.1510 -0.3277
 1292TIP3    H125367   2.006   6.190  14.529 -1.3950  0.2153 -0.1020
 1292TIP3    H225368   1.990   6.232  14.674 -0.9151  1.5434 -0.4169
 1293TIP3   OH225369   3.445   5.359  11.740  0.1588 -0.1470 -0.2474
 1293TIP3    H125370   3.455   5.401  11.826  1.3629 -0.4862 -0.1957
 1293TIP3    H225371   3.383   5.288  11.755 -0.4560  0.4535  0.0930
 1294TIP3   OH225372   2.554   2.575  13.246  0.2088 -0.3679 -0.2812
 1294TIP3    H125373   2.510   2.660  13.248  0.2080 -0.3632 -0.5651
 1294TIP3    H225374   2.607   2.576  13.167 -0.0445 -0.7594 -0.4588
 1295TIP3   OH225375   4.297   3.555  11.549 -0.2993 -0.1044  0.8423
 1295TIP3    H125376   4.258   3.469  11.567  0.0167 -0.2174  0.9913
 1295TIP3    H225377   4.314   3.555  11.455  0.9109 -0.7177  1.0454
 1296TIP3   OH225378   5.662   1.462   2.752 -0.1265 -0.7080 -0.0529
 1296TIP3    H125379   5.747   1.458   2.708  0.1420 -0.2927  0.4161
 1296TIP3    H225380   5.600   1.427   2.687 -0.0418  1.6081 -1.5102
 1297TIP3   OH225381   6.565   1.625  10.736  0.3728  0.0296 -0.1123
 1297TIP3    H125382   6.500   1.621  10.666  0.1091  1.1314  0.0454
 1297TIP3    H225383   6.575   1.719  10.754  2.0303 -0.1277 -0.1405
 1298TIP3   OH225384   4.323   5.061   0.920 -0.4646  0.1539 -0.0117
 1298TIP3    H125385   4.257   5.005   0.879 -1.6825  1.5142  0.0121
 1298TIP3    H225386   4.314   5.145   0.875  2.6404 -0.1425 -1.4056
 1299TIP3   OH225387   6.415   2.345   4.799  0.1352 -0.1907 -0.9231
 1299TIP3    H125388   6.418   2.434   4.765 -0.3057 -0.5253 -1.8692
 1299TIP3    H225389   6.322   2.325   4.806  0.1970 -1.2736 -2.6579
 1300TIP3   OH225390   0.701   6.578  15.499  0.6908  0.7721  0.2878
 1300TIP3    H125391   0.714   6.524  15.576  1.7430 -1.1876 -1.1736
 1300TIP3    H225392   0.615   6.619  15.512 -1.5643 -3.4354  0.3349
 1301TIP3   OH225393   3.695   3.236   5.477  0.3424  0.0594  0.2122
 1301TIP3    H125394   3.720   3.286   5.556  0.7757  1.3405 -0.6988
 1301TIP3    H225395   3.748   3.274   5.407 -4.3296  3.3773 -2.0288
 1302TIP3   OH225396   2.511   5.499  16.425 -0.0172  0.0561  0.3322
 1302TIP3    H125397   2.591   5.552  16.419  0.9109 -1.2240  0.8977
 1302TIP3    H225398   2.484   5.506  16.517 -1.3375  1.5353 -0.1281
 1303TIP3   OH225399   2.321   3.532  11.918 -0.3003  0.3174  0.4004
 1303TIP3    H125400   2.416   3.533  11.921 -0.2482  2.2330 -0.2860
 1303TIP3    H225401   2.298   3.443  11.890  1.3802  0.3752 -1.3908
 1304TIP3   OH225402   5.054   6.151   5.961 -0.4558 -0.0863 -0.5046
 1304TIP3    H125403   5.096   6.184   5.882  0.2791 -1.4426 -0.7126
 1304TIP3    H225404   4.970   6.116   5.930 -0.2329 -0.4815 -0.6727
 1305TIP3   OH225405   4.024   0.131  12.966 -0.3774  0.4064  0.4718
 1305TIP3    H125406   4.117   0.146  12.978 -0.1440 -0.2289 -0.4610
 1305TIP3    H225407   4.018   0.077  12.887 -1.6380  2.0383 -0.6264
 1306TIP3   OH225408   3.901   2.342  16.591  0.1419 -0.1512  0.5279
 1306TIP3    H125409   3.983   2.330  16.542 -0.7552  0.4722 -1.1728
 1306TIP3    H225410   3.850   2.263  16.572  0.3458 -0.5796  1.6582
 1307TIP3   OH225411   4.257   1.567  13.456  0.3158 -0.1768 -0.4201
 1307TIP3    H125412   4.291   1.656  13.457 -0.9956  0.3488  0.8961
 1307TIP3    H225413   4.260   1.539  13.548  2.1321 -2.0887 -0.9813
 1308TIP3   OH225414   4.433   3.272  15.067 -1.0468 -0.0422 -0.7921
 1308TIP3    H125415   4.491   3.206  15.106 -0.4823  1.6949  1.5343
 1308TIP3    H225416   4.350   3.226  15.054 -0.3406 -1.5109 -0.3584
 1309TIP3   OH225417   3.551   5.772  15.393  0.7269 -0.0621  0.5245
 1309TIP3    H125418   3.634   5.814  15.368  0.7079 -0.9713 -1.2659
 1309TIP3    H225419   3.484   5.835  15.368  0.7901 -0.2807 -0.2225
 1310TIP3   OH225420   5.085   0.503  15.966 -0.5212  0.9360  0.2241
 1310TIP3    H125421   5.023   0.443  16.006  0.3348 -0.4881 -0.4863
 1310TIP3    H225422   5.146   0.446  15.919  2.5273  2.0847  2.4745
 1311TIP3   OH225423   5.329   1.797  14.283  0.0473  0.2515  0.3434
 1311TIP3    H125424   5.342   1.890  14.265 -0.3321  0.2180 -0.1202
 1311TIP3    H225425   5.259   1.770  14.223 -0.4930 -0.1142  1.1096
 1312TIP3   OH225426   1.224   6.850   5.793 -0.1184  0.1434 -0.9494
 1312TIP3    H125427   1.297   6.912   5.788 -0.9982  1.4584  1.3712
 1312TIP3    H225428   1.242   6.798   5.871  0.7378 -2.8583 -2.9650
 1313TIP3   OH225429   4.188   5.617   3.779 -0.2046  0.0303 -0.4391
 1313TIP3    H125430   4.174   5.568   3.699  0.4668 -1.2076  0.1679
 1313TIP3    H225431   4.278   5.598   3.804  0.4023  2.3168 -0.6449
 1314TIP3   OH225432   2.664   4.851  15.830  0.0115  0.3952  0.4230
 1314TIP3    H125433   2.632   4.764  15.854  0.4301  0.4998  1.4159
 1314TIP3    H225434   2.631   4.909  15.898  0.2054  0.9266  0.0726
 1315TIP3   OH225435   2.566   1.995  16.599 -0.1639 -0.0632 -0.3263
 1315TIP3    H125436   2.608   2.009  16.684 -1.6936  0.2605  0.3941
 1315TIP3    H225437   2.596   1.908  16.572  1.7305  0.5255 -0.3217
 1316TIP3   OH225438   1.939   3.883   1.630  0.3049 -0.1718  0.1807
 1316TIP3    H125439   1.968   3.886   1.539  0.9459  1.7044  0.3987
 1316TIP3    H225440   1.844   3.892   1.626  0.5006  2.9689 -0.2958
 1317TIP3   OH225441   6.830   1.115   2.451  0.5257  0.5986 -0.7540
 1317TIP3    H125442   6.762   1.054   2.478  3.2927 -2.1039  0.7226
 1317TIP3    H225443   6.796   1.201   2.474 -1.9278 -0.7165  0.9490
 1318TIP3   OH225444   0.860   6.504  16.895 -0.0330  0.4536 -0.0026
 1318TIP3    H125445   0.789   6.545  16.944 -0.2246 -0.3658  0.4091
 1318TIP3    H225446   0.912   6.458  16.961  1.3082  1.6325 -0.1954
 1319TIP3   OH225447   1.786   5.551  16.678 -0.2248  0.0913 -0.0792
 1319TIP3    H125448   1.701   5.561  16.720  1.2971  1.2504  3.0929
 1319TIP3    H225449   1.794   5.627  16.620 -1.5776 -0.4207 -0.9806
 1320TIP3   OH225450   1.258   4.932   1.222 -0.5945 -0.8895 -0.2211
 1320TIP3    H125451   1.186   4.873   1.245 -0.1945 -1.4720 -0.4455
 1320TIP3    H225452   1.215   5.016   1.203 -0.9886 -0.3778  2.5130
 1321TIP3   OH225453   0.217   6.715  16.419  0.4782 -0.2034  0.0346
 1321TIP3    H125454   0.197   6.806  16.397 -0.2536 -0.1443  0.8492
 1321TIP3    H225455   0.240   6.675  16.336  1.3453  0.8521 -0.2619
 1322TIP3   OH225456   4.605   6.085  15.804 -0.0906  0.3029 -0.3376
 1322TIP3    H125457   4.637   6.013  15.859  1.2471  1.9422  1.1704
 1322TIP3    H225458   4.683   6.140  15.789 -0.9362  1.1358 -1.9655
 1323TIP3   OH225459   3.093   4.064  13.218 -0.0787 -0.3888 -0.2380
 1323TIP3    H125460   3.095   4.093  13.309  0.5068 -0.6778 -0.1578
 1323TIP3    H225461   3.073   3.970  13.223  0.0935 -0.4347 -0.3982
 1324TIP3   OH225462   2.960   2.053  10.687 -0.1993  0.2690  0.0447
 1324TIP3    H125463   2.934   2.114  10.618  0.4339  2.0059  1.2732
 1324TIP3    H225464   3.052   2.035  10.670 -0.5433 -0.9242 -0.6927
 1325TIP3   OH225465   2.979   6.230  16.200 -0.0478 -0.0055 -0.0540
 1325TIP3    H125466   2.989   6.137  16.223 -1.1215 -0.6482 -2.0040
 1325TIP3    H225467   3.068   6.260  16.185  0.2285 -1.1430 -0.8548
 1326TIP3   OH225468   1.795   3.208  14.710 -0.0430  0.7715  0.3369
 1326TIP3    H125469   1.793   3.129  14.764  1.8303 -0.4471 -1.2467
 1326TIP3    H225470   1.777   3.279  14.772  0.0207 -0.7083  2.1674
 1327TIP3   OH225471   4.879   5.813  12.625  0.7733 -0.4359 -0.9547
 1327TIP3    H125472   4.951   5.793  12.565 -0.1365 -1.1043 -1.8759
 1327TIP3    H225473   4.819   5.867  12.574  1.2896  1.3713  0.2669
 1328TIP3   OH225474   1.165   1.755  10.425 -0.1967  0.3311  0.1942
 1328TIP3    H125475   1.258   1.778  10.435 -0.1423  0.0544  0.3284
 1328TIP3    H225476   1.163   1.699  10.347 -0.2464  0.2988  0.2188
 1329TIP3   OH225477   6.728   5.835   5.468  0.9451  0.9724 -0.6265
 1329TIP3    H125478   6.731   5.752   5.421  1.2788  0.4137  0.3456
 1329TIP3    H225479   6.797   5.888   5.428  2.7145 -0.2801  0.6184
 1330TIP3   OH225480   1.262   5.181   2.938  0.0913 -0.0896 -0.2820
 1330TIP3    H125481   1.338   5.186   2.996  0.3232 -1.2572 -0.4450
 1330TIP3    H225482   1.299   5.162   2.851 -0.3758 -0.7900 -0.3391
 1331TIP3   OH225483   6.598   1.995  15.563  0.2307 -0.5007  0.1723
 1331TIP3    H125484   6.691   1.995  15.544  0.1953  1.3082 -0.2266
 1331TIP3    H225485   6.591   1.965  15.653  1.0057 -2.4588 -0.3680
 1332TIP3   OH225486   1.621   5.491   5.169  0.0403 -0.1951  0.1721
 1332TIP3    H125487   1.544   5.530   5.211  0.6623  3.0594 -1.3921
 1332TIP3    H225488   1.594   5.401   5.149 -2.6527  0.2378  1.3773
 1333TIP3   OH225489   0.023   6.508  13.506  0.3663 -0.3661 -0.0703
 1333TIP3    H125490   0.006   6.417  13.531 -1.1107 -0.4834 -1.3179
 1333TIP3    H225491   0.086   6.502  13.434  0.2939 -0.4075 -0.1305
 1334TIP3   OH225492   4.453   0.903   4.838 -0.6214 -0.1622  0.7632
 1334TIP3    H125493   4.475   0.975   4.896  3.4040 -0.5735  0.0301
 1334TIP3    H225494   4.436   0.944   4.754  1.0158  0.0270  0.5017
 1335TIP3   OH225495   3.481   3.083  12.405  0.1401  0.4542 -0.0819
 1335TIP3    H125496   3.428   3.151  12.365  0.6728  0.4867 -0.7575
 1335TIP3    H225497   3.471   3.007  12.347 -0.0442  0.1181  0.3839
 1336TIP3   OH225498   1.627   0.894  13.702 -0.1631 -0.3485  0.0061
 1336TIP3    H125499   1.614   0.875  13.794 -0.5559  3.8124  1.0217
 1336TIP3    H225500   1.710   0.941  13.698 -0.6337  0.4413 -1.5696
 1337TIP3   OH225501   4.718   5.309   2.117 -0.0544  0.7523  0.3202
 1337TIP3    H125502   4.726   5.404   2.109  0.3125  0.5975 -1.4896
 1337TIP3    H225503   4.759   5.275   2.038 -0.2649 -0.9250  0.8998
 1338TIP3   OH225504   0.357   0.487  14.932  0.6293  0.0309 -0.2702
 1338TIP3    H125505   0.440   0.534  14.926  1.0966 -0.8006 -0.5403
 1338TIP3    H225506   0.375   0.402  14.890 -0.0780 -0.5277  0.5294
 1339TIP3   OH225507   5.659   6.024   1.051  0.5950 -0.5134 -0.1245
 1339TIP3    H125508   5.638   6.084   0.979  1.3558 -1.4958 -1.2015
 1339TIP3    H225509   5.662   5.938   1.010 -1.0006 -1.3870  1.4960
 1340TIP3   OH225510   0.426   0.046  11.642  0.7242  0.0246 -0.5736
 1340TIP3    H125511   0.449   0.128  11.599  2.6920  0.4420  1.0877
 1340TIP3    H225512   0.509  -0.001  11.650  0.0927 -0.9460  0.8454
 1341TIP3   OH225513   2.534   4.923   3.999  0.2921 -0.1249  0.4671
 1341TIP3    H125514   2.570   4.834   3.995 -2.4496 -1.3506  0.3030
 1341TIP3    H225515   2.464   4.922   3.934  0.6580  2.4408 -0.0361
 1342TIP3   OH225516   1.030   6.112  15.367  0.0502 -0.2146  0.5424
 1342TIP3    H125517   1.028   6.205  15.345 -1.8528 -0.5622 -1.0642
 1342TIP3    H225518   0.947   6.095  15.411 -1.3036 -1.7144 -2.2703
 1343TIP3   OH225519   4.309   3.391  12.959  0.6017 -0.2739 -0.0735
 1343TIP3    H125520   4.385   3.407  13.016  0.7580 -0.3642 -0.2550
 1343TIP3    H225521   4.346   3.350  12.881  0.3095 -0.7131  0.0172
 1344TIP3   OH225522   2.732   1.384   3.799 -0.1633 -0.0826  0.5734
 1344TIP3    H125523   2.716   1.315   3.863  2.3701 -1.0841  0.2254
 1344TIP3    H225524   2.678   1.457   3.829 -2.6744 -2.0331  1.1523
 1345TIP3   OH225525   3.469   3.624   3.302 -0.1352  0.3432  0.2854
 1345TIP3    H125526   3.447   3.542   3.347 -0.1389 -0.8450 -1.7411
 1345TIP3    H225527   3.498   3.682   3.372 -0.7217 -1.1718  1.8818
 1346TIP3   OH225528   6.494   2.503   0.217 -0.1021  0.3404 -0.3163
 1346TIP3    H125529   6.495   2.497   0.313  2.1372  1.2505 -0.2164
 1346TIP3    H225530   6.438   2.578   0.199 -0.7959 -0.0280  0.2576
 1347TIP3   OH225531   1.001   3.594  11.323  0.6401  0.0306  0.0799
 1347TIP3    H125532   1.049   3.614  11.242  1.7683 -0.3829  0.6325
 1347TIP3    H225533   0.923   3.548  11.293  0.7014  0.4822 -0.8221
 1348TIP3   OH225534   5.151   4.824   0.258  0.2997  0.2600  0.7078
 1348TIP3    H125535   5.109   4.902   0.295  0.2162 -0.4435  2.1339
 1348TIP3    H225536   5.238   4.823   0.296  0.4499 -0.1155  0.3580
 1349TIP3   OH225537   1.557   6.050  11.339 -0.0245  0.1572  0.7545
 1349TIP3    H125538   1.556   6.012  11.251  0.5865  1.8744 -0.0272
 1349TIP3    H225539   1.623   5.999  11.387  0.8524  0.2824 -0.2881
 1350TIP3   OH225540   1.877   3.737   0.813 -0.0659 -0.3158 -0.3337
 1350TIP3    H125541   1.927   3.673   0.762  0.9809  0.1275  0.1089
 1350TIP3    H225542   1.866   3.695   0.899  2.8099  1.0149  0.8155
 1351TIP3   OH225543   3.811   5.475   6.379 -0.0257  1.1111 -0.1450
 1351TIP3    H125544   3.786   5.563   6.409 -1.3158  0.4852  0.6981
 1351TIP3    H225545   3.896   5.488   6.336  0.0478  2.6803  0.3984
 1352TIP3   OH225546   2.922   3.367   2.768 -0.0466 -0.2184  0.1668
 1352TIP3    H125547   2.836   3.387   2.805  1.1825  0.8841  2.6376
 1352TIP3    H225548   2.954   3.451   2.735  0.7694 -0.2414  0.8598
 1353TIP3   OH225549   6.627   1.729   4.400  0.6118 -0.2137 -0.3420
 1353TIP3    H125550   6.607   1.638   4.423 -0.3710  0.0831  0.0617
 1353TIP3    H225551   6.647   1.771   4.484  0.0582  0.1680 -0.3944
 1354TIP3   OH225552   5.439   4.256   1.979  0.1773 -0.4616  0.2404
 1354TIP3    H125553   5.517   4.223   2.024  0.1994 -1.4530 -0.4879
 1354TIP3    H225554   5.430   4.346   2.010  1.3378 -0.4803  0.6960
 1355TIP3   OH225555   6.346   1.035  16.352 -0.0538  0.3082  0.0523
 1355TIP3    H125556   6.256   1.062  16.373 -0.2117  0.3150 -0.6298
 1355TIP3    H225557   6.373   0.982  16.427  0.1033  1.9681  1.2297
 1356TIP3   OH225558   0.664   6.517   4.955 -0.2983 -0.0070  0.1135
 1356TIP3    H125559   0.582   6.546   4.917  0.6903  2.6455 -0.1779
 1356TIP3    H225560   0.721   6.501   4.880  0.6196  2.0258  0.3052
 1357TIP3   OH225561   1.731   5.335   0.113 -0.3589 -0.4075 -0.6840
 1357TIP3    H125562   1.714   5.286   0.033 -0.3369 -0.1076 -0.8769
 1357TIP3    H225563   1.807   5.389   0.092 -1.0172  0.4993 -0.8451
 1358TIP3   OH225564   3.183   2.186  13.204 -0.0911  0.4862 -0.0470
 1358TIP3    H125565   3.151   2.181  13.294 -0.1970 -0.3887 -0.1223
 1358TIP3    H225566   3.258   2.127  13.202 -0.3832  0.1286 -0.6537
 1359TIP3   OH225567   5.530   4.157   0.076 -0.0186 -0.6161 -0.1467
 1359TIP3    H125568   5.574   4.144  -0.008 -2.3073 -0.2371 -1.5052
 1359TIP3    H225569   5.461   4.091   0.077 -1.2015  0.5743  0.5542
 1360TIP3   OH225570   0.117   4.078  15.190 -0.1849 -0.0067  0.0451
 1360TIP3    H125571   0.045   4.024  15.158  1.3741 -1.9203 -0.3542
 1360TIP3    H225572   0.080   4.123  15.267 -1.4794 -1.7959  0.5299
 1361TIP3   OH225573   4.707   6.573   2.568 -0.1671  0.0005  0.0317
 1361TIP3    H125574   4.777   6.611   2.622 -0.2459  0.3931 -0.1352
 1361TIP3    H225575   4.633   6.634   2.579 -0.0122  0.3836 -0.9466
 1362TIP3   OH225576   5.313   0.331  11.176 -0.3968  0.0128 -0.0652
 1362TIP3    H125577   5.225   0.343  11.142  0.1879 -1.8888 -2.5014
 1362TIP3    H225578   5.359   0.412  11.153 -1.0408  0.3150 -0.3046
 1363TIP3   OH225579   6.365   1.581  16.566 -0.3963  0.0116  0.1660
 1363TIP3    H125580   6.334   1.490  16.572 -0.8178  0.2186  1.3733
 1363TIP3    H225581   6.285   1.633  16.571 -0.8243  0.4920 -5.2261
 1364TIP3   OH225582   6.200   6.503  14.168  0.1702 -0.3003  0.8731
 1364TIP3    H125583   6.172   6.592  14.188  0.7398 -0.3424  1.9978
 1364TIP3    H225584   6.224   6.505  14.076  1.7175  1.1629  1.2475
 1365TIP3   OH225585   3.728   3.734  12.958 -0.1758 -0.1190 -0.3528
 1365TIP3    H125586   3.805   3.722  12.903 -0.3209  0.8145 -0.7679
 1365TIP3    H225587   3.721   3.652  13.008  1.1143 -0.1857 -0.2545
 1366TIP3   OH225588   0.453   6.560   4.601  0.0535  0.2325 -0.1600
 1366TIP3    H125589   0.489   6.510   4.528  0.8407 -0.6827  0.8126
 1366TIP3    H225590   0.360   6.568   4.582  0.2071 -0.1785 -1.1399
 1367TIP3   OH225591   2.066   5.569  12.758 -0.0363  0.1021  0.1349
 1367TIP3    H125592   2.026   5.489  12.794 -2.8036  0.8985 -0.9619
 1367TIP3    H225593   1.995   5.614  12.714  1.1622  3.7430  1.5219
 1368TIP3   OH225594   4.091   3.457   0.879  0.4398  0.3430  0.0473
 1368TIP3    H125595   4.021   3.395   0.899  0.8750 -0.2662 -0.2638
 1368TIP3    H225596   4.087   3.521   0.950  0.7044 -0.6852  1.0280
 1369TIP3   OH225597   6.287   5.533   0.755 -0.2460  0.6256  0.3643
 1369TIP3    H125598   6.196   5.505   0.741  0.2743 -0.7504 -0.5023
 1369TIP3    H225599   6.333   5.503   0.677  0.7853  2.1912  0.3278
 1370TIP3   OH225600   5.613   5.547   1.547 -0.6663 -0.5045 -0.5989
 1370TIP3    H125601   5.659   5.505   1.474 -0.9699 -1.0006 -0.5066
 1370TIP3    H225602   5.545   5.600   1.505 -0.5033 -0.3741 -0.6995
 1371TIP3   OH225603   2.158   3.125   3.284  0.3983 -0.1560  0.3615
 1371TIP3    H125604   2.063   3.124   3.273  0.5641  0.6758 -1.7531
 1371TIP3    H225605   2.183   3.215   3.260  1.7625 -0.5493  0.2429
 1372TIP3   OH225606   2.675   3.388  12.786 -0.2392  0.1700 -0.0058
 1372TIP3    H125607   2.675   3.292  12.790 -0.6296  0.1731  0.1113
 1372TIP3    H225608   2.639   3.415  12.871 -0.4371  0.4177 -0.1704
 1373TIP3   OH225609   3.213   2.621   0.496 -0.8172  0.0936 -0.6307
 1373TIP3    H125610   3.184   2.650   0.410  1.3522  0.6331 -1.2429
 1373TIP3    H225611   3.203   2.526   0.493 -2.5296  0.2450 -0.7429
 1374TIP3   OH225612   0.514   0.178   4.904  0.0280 -0.2420 -0.0730
 1374TIP3    H125613   0.587   0.191   4.964  0.7228  0.2432 -1.0206
 1374TIP3    H225614   0.540   0.103   4.850  0.2409  0.4919 -1.0160
 1375TIP3   OH225615   5.889   6.497   6.211 -0.0302  0.4834  0.4081
 1375TIP3    H125616   5.834   6.448   6.272  0.8069  1.9968  2.4936
 1375TIP3    H225617   5.949   6.546   6.267  1.2135  1.4877 -1.6787
 1376TIP3   OH225618   2.611   1.735   0.426 -0.1044 -0.4968 -0.0984
 1376TIP3    H125619   2.603   1.700   0.515  1.3108 -0.6917 -0.0148
 1376TIP3    H225620   2.521   1.752   0.399 -0.6711 -1.8403  0.8032
 1377TIP3   OH225621   4.783   2.551  13.130 -0.2116 -0.3634  0.7020
 1377TIP3    H125622   4.706   2.592  13.168 -1.2451 -1.6445  0.0923
 1377TIP3    H225623   4.790   2.467  13.175  1.1063 -0.0755  1.0600
 1378TIP3   OH225624   4.765   4.810   4.252 -0.4523 -0.1833  0.5836
 1378TIP3    H125625   4.714   4.809   4.333 -2.1399  0.6559 -0.4253
 1378TIP3    H225626   4.834   4.744   4.267 -0.7151 -0.0670  2.6712
 1379TIP3   OH225627   2.069   5.885  14.321  0.2360  0.1397  0.8866
 1379TIP3    H125628   1.979   5.855  14.311  0.8478 -1.9164  1.1104
 1379TIP3    H225629   2.068   5.942  14.397 -0.9234  0.3731  0.7038
 1380TIP3   OH225630   3.815   6.165  15.192 -0.3621 -0.0198 -0.7451
 1380TIP3    H125631   3.861   6.154  15.275  1.3090  0.0944 -1.5887
 1380TIP3    H225632   3.886   6.166  15.127 -1.6056  0.1095 -2.1364
 1381TIP3   OH225633   6.060   6.598   1.971  0.2854  0.3525 -0.5215
 1381TIP3    H125634   6.023   6.663   2.030  0.8011 -1.2342  1.6952
 1381TIP3    H225635   5.993   6.530   1.966  0.0849  0.6243 -2.1481
 1382TIP3   OH225636   3.630   1.746   1.732  0.1043  0.1156 -0.0970
 1382TIP3    H125637   3.648   1.840   1.727 -2.6386  0.8031  1.0360
 1382TIP3    H225638   3.716   1.705   1.741  1.3966  2.4675 -0.9167
 1383TIP3   OH225639   4.998   0.343  13.853 -0.0530 -0.4605  0.0186
 1383TIP3    H125640   4.963   0.362  13.940 -0.3667 -0.7392 -0.0425
 1383TIP3    H225641   4.958   0.259  13.829  1.2809 -1.1833  0.2734
 1384TIP3   OH225642   6.140   4.685  12.977 -0.1486 -0.0134 -0.3650
 1384TIP3    H125643   6.220   4.654  12.935  0.6152  0.7521  0.4866
 1384TIP3    H225644   6.074   4.681  12.908  0.9344  0.6519 -1.4835
 1385TIP3   OH225645   1.409   6.572   0.182  0.0150 -0.0694  0.5347
 1385TIP3    H125646   1.470   6.594   0.252  0.2840 -0.8932  0.5636
 1385TIP3    H225647   1.379   6.657   0.149  0.2667  0.3264  1.3081
 1386TIP3   OH225648   0.424   1.164   2.010 -0.0607 -0.7116  0.3611
 1386TIP3    H125649   0.440   1.178   1.917 -0.3191 -0.7380  0.3104
 1386TIP3    H225650   0.330   1.147   2.015  0.1611 -1.9787  0.4836
 1387TIP3   OH225651   0.948   5.129  13.470 -0.3707  0.0462 -0.2433
 1387TIP3    H125652   0.994   5.073  13.408 -1.5347 -1.4563  0.1905
 1387TIP3    H225653   0.998   5.211  13.469  1.1235 -0.8107 -1.2430
 1388TIP3   OH225654   2.654   4.954   6.906  0.6686 -0.3012 -0.2115
 1388TIP3    H125655   2.645   4.929   6.814  1.0772 -1.1272 -0.0388
 1388TIP3    H225656   2.741   4.923   6.931  0.7060  0.2343  0.3613
 1389TIP3   OH225657   6.828   6.568  16.814  0.5228  0.3500 -0.0237
 1389TIP3    H125658   6.855   6.530  16.730 -0.3039  0.0982 -0.1828
 1389TIP3    H225659   6.909   6.601  16.852  0.7521  1.6678 -1.5301
 1390TIP3   OH225660   6.291   0.535  10.652  0.0977 -0.5714 -0.2501
 1390TIP3    H125661   6.282   0.487  10.570 -1.3475  1.0177 -1.0958
 1390TIP3    H225662   6.315   0.624  10.625 -0.9777  0.1327  0.9678
 1391TIP3   OH225663   3.288   3.481  11.514  0.3796  0.2640 -0.4292
 1391TIP3    H125664   3.282   3.540  11.589 -0.8637 -1.3241  0.7742
 1391TIP3    H225665   3.199   3.481  11.477 -0.2545 -2.4067  0.8788
 1392TIP3   OH225666   5.316   0.684   0.752  0.9096 -0.2423 -0.0855
 1392TIP3    H125667   5.291   0.651   0.666  1.5715 -0.6228 -0.1398
 1392TIP3    H225668   5.334   0.777   0.738  1.0937 -0.3203 -0.3763
 1393TIP3   OH225669   1.646   0.242   5.301  0.1476 -0.4417  0.2568
 1393TIP3    H125670   1.719   0.205   5.352  0.2376  0.0806  0.5189
 1393TIP3    H225671   1.629   0.177   5.233  2.9772  0.8000 -1.8127
 1394TIP3   OH225672   4.238   5.980   3.329  0.1016  0.5285 -0.0490
 1394TIP3    H125673   4.216   5.891   3.358 -1.4641  0.4731 -1.2589
 1394TIP3    H225674   4.166   6.004   3.271  1.6755  1.6971 -1.5937
 1395TIP3   OH225675   5.802   5.174   0.696  0.1103 -0.7298  0.4048
 1395TIP3    H125676   5.810   5.241   0.763  1.3494  0.0934 -0.5305
 1395TIP3    H225677   5.721   5.196   0.650  0.9275  0.6609 -0.4320
 1396TIP3   OH225678   6.658   2.003   1.264  0.4884  0.1840  0.3455
 1396TIP3    H125679   6.725   1.938   1.244  1.2118  1.5736 -2.1956
 1396TIP3    H225680   6.700   2.063   1.325  0.5090 -0.5662  1.0888
 1397TIP3   OH225681   0.441   5.378  14.910  0.1936  0.0905 -0.7721
 1397TIP3    H125682   0.432   5.473  14.906 -0.1691  0.0739 -0.4485
 1397TIP3    H225683   0.500   5.355  14.838  0.2016  0.5489 -0.9080
 1398TIP3   OH225684   5.990   5.879  13.853 -0.5090  0.7162 -0.0881
 1398TIP3    H125685   6.035   5.795  13.863 -1.5718 -0.0283 -1.1798
 1398TIP3    H225686   6.047   5.942  13.896  0.6530 -0.4591  0.1718
 1399TIP3   OH225687   0.442   3.815   0.943  0.3911  0.4880  0.9704
 1399TIP3    H125688   0.436   3.787   0.852 -3.7386  3.4004  0.0362
 1399TIP3    H225689   0.508   3.885   0.942  2.0641 -1.0131  0.8432
 1400TIP3   OH225690   1.667   6.129  14.980  0.8063  0.5048  0.8533
 1400TIP3    H125691   1.657   6.036  14.957 -0.1011  0.7166  0.3072
 1400TIP3    H225692   1.619   6.175  14.911  2.4295  1.4736  0.3168
 1401TIP3   OH225693   1.362   3.290  16.407 -0.2532 -0.3485 -0.2891
 1401TIP3    H125694   1.333   3.376  16.437 -1.6757 -1.2254  1.0087
 1401TIP3    H225695   1.353   3.295  16.311  1.8998  1.6487 -0.4655
 1402TIP3   OH225696   5.898   4.294  15.717 -0.4128  0.3333  0.1827
 1402TIP3    H125697   5.980   4.249  15.697 -1.8725 -2.5884  0.2778
 1402TIP3    H225698   5.856   4.307  15.631 -0.6722  0.1382  0.2787
 1403TIP3   OH225699   2.275   4.965   4.940  0.6344  0.1239 -0.1700
 1403TIP3    H125700   2.311   4.876   4.933  0.0485 -0.0866 -0.6194
 1403TIP3    H225701   2.204   4.967   4.876  1.1009  1.1432 -0.6924
 1404TIP3   OH225702   5.662   5.461  13.560 -0.4455  0.6181 -0.1708
 1404TIP3    H125703   5.756   5.465  13.579 -0.4872  1.7896 -0.1419
 1404TIP3    H225704   5.656   5.452  13.465 -0.3043  0.6626 -0.1832
 1405TIP3   OH225705   5.421   1.792   4.588 -0.3184 -0.3177  0.6190
 1405TIP3    H125706   5.459   1.879   4.572 -0.1441 -0.7046 -1.2483
 1405TIP3    H225707   5.452   1.738   4.516 -2.7236 -1.2002  0.1385
 1406TIP3   OH225708   0.749   4.507  13.288  0.1126 -0.0535  0.4761
 1406TIP3    H125709   0.708   4.594  13.288 -2.6175 -1.2566  0.8600
 1406TIP3    H225710   0.795   4.502  13.372 -1.8541  0.1172  1.6100
 1407TIP3   OH225711   4.062   0.069   2.401 -0.1645  0.0997 -0.1893
 1407TIP3    H125712   4.086   0.152   2.359  2.0561 -1.1671 -1.6345
 1407TIP3    H225713   4.134   0.010   2.379 -0.7785 -1.7298  2.3280
 1408TIP3   OH225714   2.686   2.022  11.987  0.4590  0.1631  0.4708
 1408TIP3    H125715   2.598   2.020  11.951  0.7986 -0.2674 -0.3588
 1408TIP3    H225716   2.681   1.968  12.066  0.1945 -0.6793 -0.1040
 1409TIP3   OH225717   2.506   4.714   1.726 -0.2165  0.4070  0.4892
 1409TIP3    H125718   2.467   4.761   1.801 -0.7939  0.6625  0.0350
 1409TIP3    H225719   2.480   4.623   1.739  1.3732  0.0733  1.6783
 1410TIP3   OH225720   5.505   6.086   4.399 -0.4429 -0.1023  0.6500
 1410TIP3    H125721   5.527   6.130   4.317 -0.9109  1.4146  1.3028
 1410TIP3    H225722   5.582   6.101   4.455 -0.2557 -0.8576  0.5971
 1411TIP3   OH225723   2.153   4.729  15.281 -0.2811 -0.4394  0.0258
 1411TIP3    H125724   2.240   4.735  15.321  0.1452  0.1035 -0.9386
 1411TIP3    H225725   2.109   4.660  15.330  0.3252 -0.0213  1.2032
 1412TIP3   OH225726   5.164   1.883  12.285  0.6503 -0.4754  0.2439
 1412TIP3    H125727   5.253   1.851  12.299  0.6607 -0.3855  0.3897
 1412TIP3    H225728   5.118   1.862  12.366  0.5375 -0.5278  0.1660
 1413TIP3   OH225729   1.776   0.593   1.353 -0.0686 -0.8140 -0.2474
 1413TIP3    H125730   1.750   0.637   1.272  1.2467 -1.2767 -0.9504
 1413TIP3    H225731   1.710   0.524   1.366 -2.1727  1.2795  0.8865
 1414TIP3   OH225732   1.141   4.143  16.654  1.0659  0.1865  0.1936
 1414TIP3    H125733   1.186   4.210  16.602  0.5664  0.6935  0.4126
 1414TIP3    H225734   1.049   4.151  16.629  0.9444 -0.1405  0.5302
 1415TIP3   OH225735   1.925   5.287  14.303 -0.3085 -0.4644 -0.1503
 1415TIP3    H125736   1.983   5.245  14.239 -1.1215  0.3589 -1.4759
 1415TIP3    H225737   1.903   5.371  14.263  0.7129  0.9528  2.1248
 1416TIP3   OH225738   1.556   3.481  10.909 -0.3951 -0.5353 -0.5120
 1416TIP3    H125739   1.504   3.410  10.871 -1.1505 -0.3791  0.2205
 1416TIP3    H225740   1.598   3.442  10.986  0.6735 -0.6890 -1.1475
 1417TIP3   OH225741   3.505   2.947  13.987  0.0100  0.1974  0.0345
 1417TIP3    H125742   3.491   2.996  13.906  0.3922 -0.6079 -0.5333
 1417TIP3    H225743   3.439   2.980  14.047 -2.5263 -1.5132 -1.6459
 1418TIP3   OH225744   3.868   6.566  11.275 -0.0426  0.5975 -0.3043
 1418TIP3    H125745   3.810   6.642  11.276  2.0939  2.3142  0.7291
 1418TIP3    H225746   3.914   6.571  11.191 -2.1508 -1.5036 -1.7263
 1419TIP3   OH225747   2.566   4.868  10.976 -0.6892  0.4040  0.1226
 1419TIP3    H125748   2.545   4.954  11.013 -1.0666  0.5149 -0.3313
 1419TIP3    H225749   2.641   4.884  10.919 -0.5749  0.3779  0.2671
 1420TIP3   OH225750   2.450   6.552   3.609  0.3592 -0.4539 -0.2542
 1420TIP3    H125751   2.525   6.534   3.666  0.1884 -2.2796 -0.5356
 1420TIP3    H225752   2.486   6.552   3.521 -0.1788 -3.3266 -0.5720
 1421TIP3   OH225753   4.823   2.958   3.043  0.0376 -0.7675 -0.0606
 1421TIP3    H125754   4.918   2.965   3.033 -0.1270 -0.1909 -1.4333
 1421TIP3    H225755   4.809   2.954   3.138  1.3193  1.0621  0.2550
 1422TIP3   OH225756   1.085   2.434   2.211  0.3734  0.7369  0.0620
 1422TIP3    H125757   1.031   2.513   2.214  1.0792  1.2874 -0.9221
 1422TIP3    H225758   1.057   2.389   2.132 -0.0339 -0.0094  0.6310
 1423TIP3   OH225759   3.186   2.476   1.301 -0.2209 -0.2087 -0.3479
 1423TIP3    H125760   3.126   2.404   1.281 -0.0760 -0.1566 -0.9895
 1423TIP3    H225761   3.145   2.522   1.374  0.4796 -1.8980  1.1911
 1424TIP3   OH225762   0.309   4.987  13.261  0.1355  0.0082  0.1961
 1424TIP3    H125763   0.320   4.905  13.212  0.3359  0.2495 -0.1630
 1424TIP3    H225764   0.347   5.054  13.204 -0.5779  0.4393  0.2129
 1425TIP3   OH225765   6.218   3.591  10.964 -0.2040  0.3363  0.1163
 1425TIP3    H125766   6.236   3.670  10.913 -0.2242 -0.4009 -1.0757
 1425TIP3    H225767   6.275   3.524  10.925  1.7909  0.3272  2.7683
 1426TIP3   OH225768   4.753   3.261  15.261  0.2101  0.0712  0.0046
 1426TIP3    H125769   4.698   3.183  15.249 -1.7472  1.3642  0.1354
 1426TIP3    H225770   4.729   3.293  15.348  1.1715  0.6982  0.0457
 1427TIP3   OH225771   1.322   6.809  10.651 -0.1348 -0.2759 -0.3848
 1427TIP3    H125772   1.257   6.878  10.635 -1.5852 -1.5933 -0.4535
 1427TIP3    H225773   1.291   6.766  10.731  1.1506 -0.4166  0.0592
 1428TIP3   OH225774   5.119   0.142   4.374  1.1593  0.2755 -0.8839
 1428TIP3    H125775   5.177   0.187   4.436 -0.9928  1.3659  0.4648
 1428TIP3    H225776   5.116   0.052   4.405 -0.4262  0.9440  1.1578
 1429TIP3   OH225777   6.372   4.341   3.385 -0.2221  0.3038 -0.1594
 1429TIP3    H125778   6.333   4.284   3.319 -1.2874  1.8844 -0.9765
 1429TIP3    H225779   6.331   4.315   3.468  1.0027 -1.5798 -0.0905
 1430TIP3   OH225780   3.553   6.202   3.102  1.0194 -0.6560  0.0282
 1430TIP3    H125781   3.473   6.148   3.104  1.4772 -1.3588 -0.1025
 1430TIP3    H225782   3.557   6.243   3.188  1.1829 -1.6170  0.4872
 1431TIP3   OH225783   6.214   4.251  15.080 -0.2206  0.1738 -0.6011
 1431TIP3    H125784   6.159   4.215  15.149 -0.0518  1.4863  0.2687
 1431TIP3    H225785   6.153   4.281  15.013 -0.5308  0.8053 -0.0486
 1432TIP3   OH225786   4.418   5.528   2.622  0.1463 -0.1924 -0.1351
 1432TIP3    H125787   4.408   5.506   2.529  0.6765  0.8919 -0.4777
 1432TIP3    H225788   4.411   5.445   2.668 -0.5325 -0.6987 -1.1143
 1433TIP3   OH225789   6.313   3.054  13.188 -0.3306  0.3580  0.3977
 1433TIP3    H125790   6.407   3.067  13.174 -0.5618  1.3849 -0.2634
 1433TIP3    H225791   6.303   2.959  13.188  0.3335  0.1962 -2.3593
 1434TIP3   OH225792   3.892   0.456   3.499 -0.2446  0.1847  0.4344
 1434TIP3    H125793   3.855   0.440   3.586  0.6063  0.7229  0.9048
 1434TIP3    H225794   3.897   0.552   3.493  1.0939  0.1293  0.3970
 1435TIP3   OH225795   1.174   2.831   2.147 -0.2352 -0.3582 -0.1395
 1435TIP3    H125796   1.092   2.792   2.117 -0.2375 -0.4762  0.0168
 1435TIP3    H225797   1.240   2.803   2.083 -0.1459 -1.0243  0.2401
 1436TIP3   OH225798   6.863   2.723   4.310 -0.3717  0.0607 -0.1935
 1436TIP3    H125799   6.959   2.725   4.309 -0.3426 -0.8870 -0.6195
 1436TIP3    H225800   6.841   2.724   4.403 -0.0609  2.6425 -0.0630
 1437TIP3   OH225801   0.732   3.032   1.453  0.1049 -0.1702  0.4755
 1437TIP3    H125802   0.822   3.036   1.487  0.0989 -2.0918  0.8094
 1437TIP3    H225803   0.681   3.087   1.512  0.8024 -0.2336  1.1443
 1438TIP3   OH225804   6.672   1.517   6.230 -0.1252  0.9006 -0.2081
 1438TIP3    H125805   6.668   1.518   6.134  0.2992  0.5776 -0.2316
 1438TIP3    H225806   6.628   1.598   6.256 -0.0345  1.1087 -0.6839
 1439TIP3   OH225807   0.112   2.494   1.583 -0.0285  0.4239  0.5433
 1439TIP3    H125808   0.047   2.561   1.564 -0.5274  0.0344  0.8633
 1439TIP3    H225809   0.062   2.421   1.620  0.4430 -0.3095 -0.2133
 1440TIP3   OH225810   4.522   5.354  16.795 -0.3054 -0.0912 -0.5206
 1440TIP3    H125811   4.578   5.348  16.873 -0.5150  0.9877 -0.2788
 1440TIP3    H225812   4.522   5.265  16.760  0.7587 -0.3327  0.0363
 1441TIP3   OH225813   6.439   5.170  14.559  0.1214 -0.4217  0.0296
 1441TIP3    H125814   6.411   5.252  14.517 -1.5281 -1.3860 -0.8895
 1441TIP3    H225815   6.479   5.120  14.488  1.3104 -0.3496  0.6344
 1442TIP3   OH225816   1.911   0.463   5.393  0.4950  0.0052 -0.3345
 1442TIP3    H125817   1.855   0.539   5.374 -0.2438 -0.6335 -0.7853
 1442TIP3    H225818   1.943   0.478   5.482 -2.9403 -1.0943  1.2552
 1443TIP3   OH225819   3.872   5.692  12.260  0.0208 -0.3574 -0.2137
 1443TIP3    H125820   3.831   5.778  12.263  1.1541  0.1790  0.8700
 1443TIP3    H225821   3.863   5.659  12.349  0.7689 -0.7831 -0.2905
 1444TIP3   OH225822   2.726   6.685   6.631 -0.0153 -0.1266 -0.2588
 1444TIP3    H125823   2.698   6.605   6.675  0.6386  0.5164  1.4060
 1444TIP3    H225824   2.802   6.660   6.579  0.2626 -0.5720  0.3534
 1445TIP3   OH225825   4.220   5.216  11.829  0.3064 -0.4970  0.0986
 1445TIP3    H125826   4.155   5.154  11.862 -0.4153  0.1650 -0.0560
 1445TIP3    H225827   4.302   5.166  11.826 -0.5514 -1.8899 -1.4451
 1446TIP3   OH225828   2.031   2.840  15.789 -0.4322 -0.2181  0.0369
 1446TIP3    H125829   2.010   2.747  15.798 -0.2517 -0.1716  1.0912
 1446TIP3    H225830   2.097   2.842  15.719  2.6199 -1.4223  2.5852
 1447TIP3   OH225831   3.821   2.276   5.216 -0.3761  0.0152 -0.1631
 1447TIP3    H125832   3.789   2.186   5.224  1.3705 -0.5652  0.8169
 1447TIP3    H225833   3.771   2.325   5.281 -0.8675 -0.3780 -0.2392
 1448TIP3   OH225834   0.953   6.367   2.537  0.2895  0.2499 -0.6683
 1448TIP3    H125835   0.865   6.403   2.524 -0.4872 -0.8516  1.0364
 1448TIP3    H225836   1.010   6.444   2.542 -0.9473  1.1547  0.4475
 1449TIP3   OH225837   5.507   3.000   5.337  0.1706 -0.4166 -0.0247
 1449TIP3    H125838   5.439   2.934   5.333 -0.2310 -0.1275  1.4774
 1449TIP3    H225839   5.469   3.077   5.296  0.2136 -0.7512 -0.7047
 1450TIP3   OH225840   5.766   2.967   3.012  0.1143  0.1858  0.7053
 1450TIP3    H125841   5.759   2.872   3.020 -1.7796  0.3271  1.1209
 1450TIP3    H225842   5.792   2.982   2.921  4.4101 -0.7948  1.5050
 1451TIP3   OH225843   4.025   6.531  10.993 -0.1174 -0.3624  0.0784
 1451TIP3    H125844   3.990   6.576  10.917  1.6182 -0.3452 -0.7725
 1451TIP3    H225845   3.994   6.441  10.985 -0.6625 -0.1562 -0.1595
 1452TIP3   OH225846   2.971   3.673   2.946 -0.0456  0.5002 -0.2306
 1452TIP3    H125847   3.003   3.759   2.971 -0.3751  0.5967 -0.1368
 1452TIP3    H225848   2.919   3.688   2.867 -2.4537  0.8292  1.3346
 1453TIP3   OH225849   1.801   5.959   1.668 -0.2270  0.0957 -0.1019
 1453TIP3    H125850   1.858   6.034   1.689  0.6134 -0.4279 -0.4526
 1453TIP3    H225851   1.823   5.894   1.735 -1.4603  0.4019  0.6250
 1454TIP3   OH225852   1.767   1.392   4.861  0.3265  0.4257 -0.4135
 1454TIP3    H125853   1.809   1.435   4.787 -0.7302  0.0960 -1.2190
 1454TIP3    H225854   1.682   1.363   4.828  0.9809 -2.2950  0.0903
 1455TIP3   OH225855   2.151   6.797   5.787  0.3112 -0.4013 -0.1558
 1455TIP3    H125856   2.176   6.725   5.729 -1.0194 -0.1656 -1.0635
 1455TIP3    H225857   2.085   6.759   5.845  1.2736 -0.5001  0.9085
 1456TIP3   OH225858   2.378   3.479   4.128 -0.5747  0.1344 -0.1496
 1456TIP3    H125859   2.302   3.424   4.146 -0.6265 -0.2822 -1.5004
 1456TIP3    H225860   2.398   3.522   4.211 -1.1172 -1.1982  0.6927
 1457TIP3   OH225861   4.614   6.379   0.486 -0.6309 -0.1860 -0.0507
 1457TIP3    H125862   4.588   6.441   0.554 -0.4478 -1.5783  1.3436
 1457TIP3    H225863   4.585   6.420   0.404  0.6287  2.3429  0.6433
 1458TIP3   OH225864   6.441   1.942  14.124  0.7410  0.0905  0.4169
 1458TIP3    H125865   6.422   1.986  14.207  2.4439 -0.9821  1.4160
 1458TIP3    H225866   6.439   1.849  14.144  1.9753 -0.1743 -0.5375
 1459TIP3   OH225867   2.782   1.553   5.086 -0.4450  0.5185  0.0695
 1459TIP3    H125868   2.724   1.572   5.012 -0.9526  2.9335  0.9776
 1459TIP3    H225869   2.870   1.573   5.054 -0.8361  3.4216  0.5647
 1460TIP3   OH225870   1.993   3.219   5.562  0.3524  0.0620  0.5117
 1460TIP3    H125871   2.010   3.295   5.507  0.8230 -0.7166 -0.4671
 1460TIP3    H225872   1.903   3.230   5.592 -0.2832  0.0468 -1.2270
 1461TIP3   OH225873   4.232   5.279   3.723  0.0875  0.5135 -0.4822
 1461TIP3    H125874   4.189   5.238   3.649  2.4540 -1.0484 -1.1132
 1461TIP3    H225875   4.307   5.325   3.685  1.5768 -0.6446  0.9054
 1462TIP3   OH225876   6.592   5.430  12.333  0.2555  0.3714  0.2954
 1462TIP3    H125877   6.646   5.415  12.410  1.6219 -0.0971 -0.7173
 1462TIP3    H225878   6.654   5.443  12.262 -0.9150  2.6120 -0.4527
 1463TIP3   OH225879   4.086   2.850  14.706  0.0763  0.2115  0.0283
 1463TIP3    H125880   4.138   2.927  14.685  0.3061  0.2256  0.6290
 1463TIP3    H225881   4.011   2.854  14.646  0.6952  0.2507 -0.7664
 1464TIP3   OH225882   1.395   5.722   3.851  0.6948 -0.1094  0.1631
 1464TIP3    H125883   1.352   5.804   3.829  0.7553  0.3561  1.6731
 1464TIP3    H225884   1.325   5.667   3.888  1.3005  0.6157  2.5370
 1465TIP3   OH225885   3.642   4.193   2.638  0.3501 -0.3196  0.2844
 1465TIP3    H125886   3.638   4.268   2.578  0.0652  0.4602  1.2485
 1465TIP3    H225887   3.722   4.206   2.688  0.4881 -0.8628  0.2067
 1466TIP3   OH225888   3.834   0.619  11.904  0.2189  0.4628  0.5980
 1466TIP3    H125889   3.911   0.669  11.876  0.7316  1.0687  2.8758
 1466TIP3    H225890   3.761   0.662  11.861  1.0971 -0.0897 -1.5809
 1467TIP3   OH225891   4.663   1.786   1.577 -0.1687  0.1066  0.2567
 1467TIP3    H125892   4.735   1.725   1.561 -0.1247  0.1042  0.4628
 1467TIP3    H225893   4.584   1.731   1.573 -0.0890 -0.0724  1.0335
 1468TIP3   OH225894   5.692   6.285  11.248  0.0377 -0.5842  0.8823
 1468TIP3    H125895   5.656   6.331  11.172  1.1113 -0.6756  0.2984
 1468TIP3    H225896   5.615   6.248  11.292 -0.5659 -0.9324 -0.4196
 1469TIP3   OH225897   5.996   4.370   4.969 -0.0939 -0.0783  0.9045
 1469TIP3    H125898   5.904   4.343   4.965  0.1818 -1.2145  1.8706
 1469TIP3    H225899   5.994   4.454   5.013 -0.8963  1.2342 -1.4494
 1470TIP3   OH225900   1.103   0.734   2.037 -0.2580 -0.3794  0.2820
 1470TIP3    H125901   1.045   0.809   2.031  0.0024 -0.2270 -0.5347
 1470TIP3    H225902   1.098   0.693   1.950  1.5006  0.1334 -0.1102
 1471TIP3   OH225903   4.875   2.837  15.913 -0.0634 -0.0366 -0.4830
 1471TIP3    H125904   4.817   2.779  15.864  0.5125 -0.3905 -0.7605
 1471TIP3    H225905   4.893   2.789  15.994  0.3789 -0.2394 -0.6938
 1472TIP3   OH225906   1.443   3.717   1.718 -0.5538 -0.2686 -0.3049
 1472TIP3    H125907   1.525   3.727   1.669 -0.5664 -0.4660 -0.3679
 1472TIP3    H225908   1.465   3.742   1.807 -0.4081 -0.3823 -0.3086
 1473TIP3   OH225909   5.673   5.063  15.326  0.2055  0.0362  0.8175
 1473TIP3    H125910   5.704   5.092  15.412 -0.1641  0.9197  0.6636
 1473TIP3    H225911   5.740   5.001  15.296  0.0979 -0.6458  1.9381
 1474TIP3   OH225912   2.273   3.594  10.772  0.5383  0.8593  0.6593
 1474TIP3    H125913   2.212   3.667  10.784 -0.0441  0.3663  0.7967
 1474TIP3    H225914   2.235   3.523  10.824 -0.7901 -0.6426 -2.1502
 1475TIP3   OH225915   4.242   3.023  16.102 -0.7392  0.4185 -0.0226
 1475TIP3    H125916   4.165   2.984  16.144 -0.8698 -0.2505 -0.8557
 1475TIP3    H225917   4.206   3.071  16.027 -0.4348  0.9814  0.1829
 1476TIP3   OH225918   6.407   6.727   1.402 -0.3747  0.5594  0.1811
 1476TIP3    H125919   6.369   6.640   1.416 -0.5273  0.3739 -1.2587
 1476TIP3    H225920   6.452   6.747   1.484  0.1272 -1.1184  0.3418
 1477TIP3   OH225921   2.385   3.373  13.366 -0.0604  0.0097 -0.3547
 1477TIP3    H125922   2.343   3.452  13.401  1.4640  0.8494 -0.3323
 1477TIP3    H225923   2.452   3.351  13.432 -0.2117 -1.0789 -0.5511
 1478TIP3   OH225924   0.770   5.382   2.703 -0.2818  0.1074 -0.1221
 1478TIP3    H125925   0.756   5.476   2.692 -2.9625 -0.2108  0.0672
 1478TIP3    H225926   0.752   5.366   2.796  0.3698 -0.5843 -0.1069
 1479TIP3   OH225927   3.516   6.619  11.759 -0.4781 -0.0797 -0.2123
 1479TIP3    H125928   3.440   6.626  11.702  0.3525 -0.5690 -1.4080
 1479TIP3    H225929   3.580   6.569  11.709  1.0321  1.2096  0.3298
 1480TIP3   OH225930   2.951   4.017  16.797 -0.1999 -0.1030  0.2527
 1480TIP3    H125931   2.912   4.057  16.719 -1.5783  0.3075  1.1181
 1480TIP3    H225932   3.028   3.972  16.765 -0.2838  0.7511 -1.2257
 1481TIP3   OH225933   4.299   3.308  12.329 -0.2084  0.6467  0.2871
 1481TIP3    H125934   4.205   3.291  12.317  0.0457 -0.1488 -0.7942
 1481TIP3    H225935   4.318   3.382  12.272 -0.0042  0.2064 -0.2230
 1482TIP3   OH225936   6.010   4.257  11.813  0.6289  0.1661  0.3086
 1482TIP3    H125937   6.102   4.284  11.813  0.5094  0.5706  0.9191
 1482TIP3    H225938   5.994   4.224  11.901  0.4064 -0.6829 -0.0319
 1483TIP3   OH225939   0.952   0.550   2.761  0.4382 -0.0991  0.1340
 1483TIP3    H125940   1.017   0.617   2.780  1.1696 -0.8401  0.2890
 1483TIP3    H225941   0.878   0.598   2.725  1.3048  0.6899 -0.6427
 1484TIP3   OH225942   0.680   4.408   1.227  0.5848  0.2663 -0.0535
 1484TIP3    H125943   0.634   4.329   1.255  1.1384 -0.1446 -0.2652
 1484TIP3    H225944   0.708   4.450   1.308  1.4091 -0.4496  0.0538
 1485TIP3   OH225945   1.234   6.385   1.285 -0.2010  0.2594 -0.5078
 1485TIP3    H125946   1.301   6.316   1.286  0.0908  0.5311 -1.1748
 1485TIP3    H225947   1.182   6.366   1.207 -0.5678  0.3762 -0.2942
 1486TIP3   OH225948   1.860   5.146  16.034  0.1247 -0.0004 -0.0445
 1486TIP3    H125949   1.849   5.123  15.942  1.3287  1.5244 -0.6169
 1486TIP3    H225950   1.791   5.209  16.052 -1.2026 -1.5722  0.6353
 1487TIP3   OH225951   3.929   0.822  11.071 -0.0695  0.5521  0.0015
 1487TIP3    H125952   3.993   0.869  11.018 -1.4203 -0.2717 -2.5357
 1487TIP3    H225953   3.883   0.890  11.119 -1.1206  1.8020 -2.6031
 1488TIP3   OH225954   6.404   2.997   5.035  0.6440 -0.4702 -0.3682
 1488TIP3    H125955   6.357   3.056   4.976 -0.5270 -0.9356  0.0740
 1488TIP3    H225956   6.469   2.955   4.979 -1.2784 -1.8721 -1.7002
 1489TIP3   OH225957   1.357   6.128   0.996 -0.5538  0.6316  0.2460
 1489TIP3    H125958   1.352   6.120   0.901 -2.0997  2.1195  0.1469
 1489TIP3    H225959   1.447   6.105   1.018 -0.3869 -0.5003 -1.4859
 1490TIP3   OH225960   2.843   0.104  13.413  0.2901  0.4838  0.0169
 1490TIP3    H125961   2.936   0.110  13.394  0.5978 -1.4064  0.7097
 1490TIP3    H225962   2.837   0.112  13.508 -0.3147  1.1218 -0.0661
 1491TIP3   OH225963   5.911   0.619  13.599 -0.0072 -0.0227  0.4647
 1491TIP3    H125964   5.856   0.561  13.548  1.0773 -0.9994  0.3538
 1491TIP3    H225965   5.855   0.651  13.669 -0.5723 -1.4245  0.6828
 1492TIP3   OH225966   1.914   1.077   2.331  0.1651  0.3745 -0.3208
 1492TIP3    H125967   1.946   1.082   2.422  0.6068  1.0306 -0.4996
 1492TIP3    H225968   1.843   1.141   2.328  0.1026  0.2992 -0.4159
 1493TIP3   OH225969   0.785   0.095  13.781 -0.3198 -0.3300 -0.3485
 1493TIP3    H125970   0.810   0.015  13.737 -1.0252 -0.6798 -0.1311
 1493TIP3    H225971   0.827   0.165  13.731 -1.1655 -0.7065 -1.6322
 1494TIP3   OH225972   5.247   0.824  10.572  0.2199  0.3967  0.6457
 1494TIP3    H125973   5.224   0.799  10.661 -2.6519 -0.4900 -0.2272
 1494TIP3    H225974   5.171   0.798  10.520  1.8505  0.7494 -2.0975
 1495TIP3   OH225975   4.809   5.242  11.627  0.9690  0.0705 -0.1216
 1495TIP3    H125976   4.832   5.169  11.684 -1.0888 -0.8632 -0.4117
 1495TIP3    H225977   4.769   5.307  11.685  0.6201 -0.0683 -0.2020
 1496TIP3   OH225978   0.018   5.916  11.626 -0.3504  0.3210  0.4911
 1496TIP3    H125979   0.007   5.909  11.720  0.4333  0.3936  0.5896
 1496TIP3    H225980   0.073   5.993  11.613 -1.9151  1.3777 -0.1282
 1497TIP3   OH225981   4.825   0.595  15.603 -1.0831  0.0156  0.4185
 1497TIP3    H125982   4.869   0.511  15.618  0.3249  0.7190  0.4082
 1497TIP3    H225983   4.884   0.660  15.641 -1.1056  1.1818 -1.4166
 1498TIP3   OH225984   6.268   2.960   3.557 -0.5261  0.1383 -0.3346
 1498TIP3    H125985   6.303   2.909   3.485 -0.3642  0.2142 -0.3102
 1498TIP3    H225986   6.208   2.900   3.602  0.5798 -0.4343  0.4242
 1499TIP3   OH225987   0.797   3.267  12.787  0.6895  0.3817  0.0551
 1499TIP3    H125988   0.783   3.289  12.879 -1.1656  0.6136 -0.2468
 1499TIP3    H225989   0.768   3.177  12.779  1.9491 -0.0276 -0.0905
 1500TIP3   OH225990   1.936   5.488  16.941  0.4445  0.7038  0.0653
 1500TIP3    H125991   1.951   5.582  16.929  0.1229  0.8733  0.9280
 1500TIP3    H225992   1.978   5.447  16.866  1.9964  1.4222  0.5006
 1501TIP3   OH225993   1.427   0.646  13.281 -0.3215  0.3657 -0.0619
 1501TIP3    H125994   1.379   0.570  13.314  0.1468  0.0988  0.0076
 1501TIP3    H225995   1.441   0.700  13.358  2.4227 -1.1321  0.6342
 1502TIP3   OH225996   6.147   4.036   1.346  0.5931 -0.1237  0.2475
 1502TIP3    H125997   6.096   4.064   1.422 -1.5495 -2.7346 -0.0724
 1502TIP3    H225998   6.236   4.024   1.379  0.4053  1.7297  1.5547
 1503TIP3   OH225999   3.769   1.084  15.070 -0.0742 -0.9694  0.0288
 1503TIP3    H126000   3.717   1.164  15.061  1.3327 -0.2285 -3.6470
 1503TIP3    H226001   3.727   1.035  15.140 -1.8230  2.3453  1.5401
 1504TIP3   OH226002   0.258   0.424   0.884 -0.7477 -0.1955  0.1726
 1504TIP3    H126003   0.295   0.448   0.799  1.1410 -1.0098  0.7085
 1504TIP3    H226004   0.195   0.355   0.864  0.0722 -0.7555 -0.5342
 1505TIP3   OH226005   5.472   4.755   3.417 -0.0425 -0.4626 -0.1795
 1505TIP3    H126006   5.459   4.664   3.392 -1.6039 -0.6236  1.0513
 1505TIP3    H226007   5.384   4.792   3.419  0.2815  0.3398  1.9125
 1506TIP3   OH226008   1.554   1.608   0.031 -0.1116 -0.5989  0.3794
 1506TIP3    H126009   1.594   1.611  -0.056 -1.9964 -2.3163 -0.6463
 1506TIP3    H226010   1.504   1.690   0.037 -0.3053 -0.6582 -0.3350
 1507TIP3   OH226011   4.546   5.232   6.287  0.0290 -0.1941  0.1718
 1507TIP3    H126012   4.473   5.196   6.237  0.9688  0.0043 -1.4088
 1507TIP3    H226013   4.589   5.293   6.227  0.5833  0.8742  1.5913
 1508TIP3   OH226014   2.690   2.239  10.793 -0.3080 -0.3152 -0.1211
 1508TIP3    H126015   2.748   2.241  10.717 -1.1975  0.8881 -0.8052
 1508TIP3    H226016   2.619   2.300  10.771 -0.2146  0.6443  1.9557
 1509TIP3   OH226017   4.094   0.027  16.523  0.1522  0.3860  0.1898
 1509TIP3    H126018   4.031   0.005  16.454  0.5476  0.3522 -0.1612
 1509TIP3    H226019   4.040   0.059  16.595 -0.1205  2.8840 -1.0392
 1510TIP3   OH226020   5.090   2.051  16.261  0.8399 -0.2266 -0.4460
 1510TIP3    H126021   5.077   2.132  16.211  0.1980 -0.5351 -0.7846
 1510TIP3    H226022   5.172   2.066  16.309  2.1686 -0.3688 -2.5178
 1511TIP3   OH226023   1.667   2.546   3.163  0.3894 -0.0925 -0.7713
 1511TIP3    H126024   1.678   2.452   3.148 -0.7160 -0.4829  0.6662
 1511TIP3    H226025   1.695   2.587   3.080 -0.2308 -1.7466 -1.8446
 1512TIP3   OH226026   5.642   5.624  14.683 -0.4820 -0.4023 -0.6488
 1512TIP3    H126027   5.639   5.617  14.778 -1.5651 -2.9914 -0.7949
 1512TIP3    H226028   5.733   5.649  14.664  0.9507 -3.7512  0.9671
 1513TIP3   OH226029   2.473   2.939  11.660 -0.0220 -0.0784 -0.1702
 1513TIP3    H126030   2.445   2.989  11.584 -0.2345 -0.6608 -0.4805
 1513TIP3    H226031   2.473   3.002  11.732  1.4798  0.8133 -0.8972
 1514TIP3   OH226032   1.880   6.038  15.857  0.2678 -0.0855  0.4562
 1514TIP3    H126033   1.867   6.131  15.841  3.3854  0.3965  0.1950
 1514TIP3    H226034   1.909   6.003  15.773  0.3720 -1.0406  0.8780
 1515TIP3   OH226035   5.729   0.530   1.040 -0.5791 -0.0666  0.6593
 1515TIP3    H126036   5.644   0.497   1.072 -0.9083 -0.4817 -0.5920
 1515TIP3    H226037   5.738   0.616   1.081 -1.3902 -0.2132  1.1687
 1516TIP3   OH226038   2.662   4.523  15.627 -0.4818 -0.6825 -0.3318
 1516TIP3    H126039   2.707   4.442  15.653  0.8791 -0.0408 -0.5983
 1516TIP3    H226040   2.684   4.534  15.535 -0.5829  0.0353 -0.2763
 1517TIP3   OH226041   4.094   2.928  11.138 -0.2885 -0.4954 -0.2394
 1517TIP3    H126042   4.160   2.872  11.098 -0.0237  0.1239 -0.6740
 1517TIP3    H226043   4.020   2.925  11.077 -1.4475 -2.7000  1.1346
 1518TIP3   OH226044   3.902   5.470  13.988 -0.2035  0.5524  0.2556
 1518TIP3    H126045   3.867   5.476  14.078 -0.2374  1.6612  0.1810
 1518TIP3    H226046   3.886   5.557  13.951 -2.8341 -0.6539 -1.8111
 1519TIP3   OH226047   3.105   5.656   5.615 -0.4750 -0.4080 -0.0978
 1519TIP3    H126048   3.136   5.594   5.681 -0.7569 -0.4589 -0.0096
 1519TIP3    H226049   3.153   5.737   5.634  1.3098 -1.0934 -1.3809
 1520TIP3   OH226050   5.283   3.926   4.157  0.3250  0.0184  0.4866
 1520TIP3    H126051   5.352   3.991   4.143  0.1479  0.1268  0.1012
 1520TIP3    H226052   5.262   3.895   4.069  1.0785 -1.2612  0.7289
 1521TIP3   OH226053   4.988   4.463  11.219 -0.2828 -0.4017 -0.0375
 1521TIP3    H126054   4.972   4.483  11.312  2.6364 -0.1537  0.5092
 1521TIP3    H226055   5.055   4.395  11.221  1.0709  0.7885 -1.9364
 1522TIP3   OH226056   1.259   5.961   2.900  0.0345  0.1071 -0.0305
 1522TIP3    H126057   1.235   5.883   2.850  0.6886 -0.2555  0.2019
 1522TIP3    H226058   1.273   5.928   2.989 -0.7011  0.6702  0.3029
 1523TIP3   OH226059   0.880   3.174  10.099  0.4086  0.1614 -0.2791
 1523TIP3    H126060   0.796   3.131  10.118  0.5302  0.5151  1.1664
 1523TIP3    H226061   0.877   3.255  10.149  2.0111 -0.2723  0.5695
 1524TIP3   OH226062   3.161   5.142   2.228 -0.3711  0.6278  0.1533
 1524TIP3    H126063   3.171   5.106   2.316 -1.4085  0.7057  0.3133
 1524TIP3    H226064   3.204   5.227   2.232 -2.1499  1.5170  1.1813
 1525TIP3   OH226065   1.570   5.514   3.037 -0.2377 -0.7171  0.3183
 1525TIP3    H126066   1.497   5.485   3.092 -1.0873  2.2351  0.9216
 1525TIP3    H226067   1.530   5.542   2.955  0.4540 -0.8303 -0.0683
 1526TIP3   OH226068   0.989   3.659   0.210 -0.8084 -0.4516 -0.2352
 1526TIP3    H126069   0.990   3.650   0.305 -0.7191 -0.4264 -0.2340
 1526TIP3    H226070   0.957   3.574   0.179 -2.8787  0.2238 -0.0970
 1527TIP3   OH226071   4.833   0.348  10.805  0.1360 -0.5204 -0.0308
 1527TIP3    H126072   4.774   0.407  10.760 -0.9582 -0.6863  1.1232
 1527TIP3    H226073   4.921   0.382  10.787 -0.3765  0.4143 -0.8030
 1528TIP3   OH226074   6.538   1.423  14.281  0.0330  0.2548 -0.6542
 1528TIP3    H126075   6.622   1.394  14.316 -0.7060 -0.3676  0.6508
 1528TIP3    H226076   6.480   1.427  14.357 -1.0644  0.8935 -1.4987
 1529TIP3   OH226077   2.245   4.896  11.923 -0.1944 -0.4483  0.4076
 1529TIP3    H126078   2.284   4.981  11.901 -0.4797 -0.4366 -0.0773
 1529TIP3    H226079   2.273   4.838  11.853 -0.7155 -0.5351  0.2657
 1530TIP3   OH226080   3.943   1.897  13.053 -0.2796 -0.3614 -0.3048
 1530TIP3    H126081   3.878   1.922  12.988  0.6124  1.6198 -0.5119
 1530TIP3    H226082   4.024   1.887  13.003  0.1232 -0.2297  0.3108
 1531TIP3   OH226083   2.895   0.424   5.477  0.6968  0.0343  0.4494
 1531TIP3    H126084   2.841   0.463   5.545  0.6629  0.5671  0.1250
 1531TIP3    H226085   2.968   0.385   5.524  0.6074  0.2847  0.8039
 1532TIP3   OH226086   1.553   5.850   4.039 -0.4507 -0.0873  0.2063
 1532TIP3    H126087   1.523   5.801   3.962  0.3222 -1.3343  0.6660
 1532TIP3    H226088   1.583   5.783   4.100 -0.4779  0.9149  1.3621
 1533TIP3   OH226089   0.521   6.092   5.504  0.0214 -0.3223  0.1073
 1533TIP3    H126090   0.589   6.062   5.564  0.8981  1.5066  0.1022
 1533TIP3    H226091   0.561   6.083   5.417  0.8632  1.9432  0.1687
 1534TIP3   OH226092   4.265   5.173  14.977  0.1185 -0.7157 -0.0863
 1534TIP3    H126093   4.246   5.259  15.014  0.7039 -0.6638  0.1081
 1534TIP3    H226094   4.206   5.113  15.022 -1.1357 -0.2523 -1.0692
 1535TIP3   OH226095   4.330   3.086  14.327  0.3046  0.5781 -0.2827
 1535TIP3    H126096   4.324   3.000  14.288 -2.1833  0.0864  0.9556
 1535TIP3    H226097   4.299   3.146  14.259 -0.7534  0.1232 -0.2235
 1536TIP3   OH226098   4.263   2.650   1.142 -0.0300 -0.5127  0.0162
 1536TIP3    H126099   4.177   2.686   1.120  1.1110  0.7748 -2.8117
 1536TIP3    H226100   4.325   2.719   1.119  1.9634 -2.5519 -1.1730
 1537TIP3   OH226101   1.625   6.514   3.577 -0.3520  0.6420 -0.0466
 1537TIP3    H126102   1.660   6.569   3.647  0.4363  1.8174 -1.3052
 1537TIP3    H226103   1.655   6.426   3.599 -1.2887  0.7459  1.7912
 1538TIP3   OH226104   2.178   6.117  14.086  0.5677 -0.3906  0.6708
 1538TIP3    H126105   2.224   6.177  14.027 -0.1055 -1.2940 -0.8339
 1538TIP3    H226106   2.181   6.033  14.041 -0.7113 -0.9295  1.5450
 1539TIP3   OH226107   5.118   2.814  11.061 -0.0851 -0.1943  0.2003
 1539TIP3    H126108   5.088   2.776  11.144  0.8493  0.1245  0.7072
 1539TIP3    H226109   5.145   2.739  11.008 -0.6549 -0.3987  0.2032
 1540TIP3   OH226110   4.397   2.510  10.939 -0.0723 -0.4308 -0.3495
 1540TIP3    H126111   4.351   2.461  10.871  1.4554 -2.3830 -0.0741
 1540TIP3    H226112   4.473   2.547  10.894  0.4477 -0.9577  0.0773
 1541TIP3   OH226113   1.466   5.600  14.169  0.4414 -0.5710  0.7834
 1541TIP3    H126114   1.427   5.593  14.256  0.7767 -1.3094  0.8879
 1541TIP3    H226115   1.496   5.511  14.150 -1.5327 -0.9216 -0.9933
 1542TIP3   OH226116   0.200   6.141   2.520 -0.0905  0.2545  0.2067
 1542TIP3    H126117   0.121   6.091   2.503 -0.9192  2.3874 -2.9656
 1542TIP3    H226118   0.271   6.085   2.491 -0.8861  0.2986 -1.9489
 1543TIP3   OH226119   5.157   4.565  11.542 -0.3337  0.3109 -0.1261
 1543TIP3    H126120   5.118   4.652  11.551 -3.3982 -0.9256 -0.2511
 1543TIP3    H226121   5.216   4.574  11.467 -0.6594  2.2615 -0.2134
 1544TIP3   OH226122   1.506   0.901  16.438 -0.2736 -0.2958 -0.0664
 1544TIP3    H126123   1.479   0.861  16.355 -0.3973  1.1577 -0.7510
 1544TIP3    H226124   1.600   0.919  16.426 -0.2920 -0.0777  0.1031
 1545TIP3   OH226125   5.948   2.787   1.570  0.0704 -0.0450  0.6028
 1545TIP3    H126126   6.034   2.762   1.605  0.7857  0.7400 -0.5574
 1545TIP3    H226127   5.889   2.721   1.606  1.3401 -1.2939  0.4988
 1546TIP3   OH226128   1.300   4.260   1.525 -0.1875 -0.1020 -0.0554
 1546TIP3    H126129   1.308   4.330   1.460 -1.0357  0.2733  0.2371
 1546TIP3    H226130   1.346   4.186   1.486  1.0066  0.7069 -0.2328
 1547TIP3   OH226131   2.033   5.144  12.514 -0.7040 -0.1207  0.7354
 1547TIP3    H126132   2.024   5.239  12.508  1.7867  0.1360  0.0987
 1547TIP3    H226133   2.027   5.126  12.608  0.9475  0.9869  1.1057
 1548TIP3   OH226134   6.456   6.495   3.777 -0.6927 -0.0436  0.0377
 1548TIP3    H126135   6.420   6.573   3.734  0.5569  0.1421 -0.7173
 1548TIP3    H226136   6.477   6.436   3.705  1.3538  0.2265  0.3663
 1549TIP3   OH226137   2.497   4.703   0.464 -0.1805  0.3576  0.0371
 1549TIP3    H126138   2.535   4.636   0.406 -1.0825 -0.1292 -0.0171
 1549TIP3    H226139   2.423   4.659   0.506  0.4840  0.6871  1.6184
 1550TIP3   OH226140   2.051   2.134  11.660 -0.4262 -0.4658  0.3160
 1550TIP3    H126141   2.043   2.160  11.569 -1.9715  0.6261  0.7146
 1550TIP3    H226142   1.964   2.151  11.698  0.2653 -0.5622  2.0672
 1551TIP3   OH226143   3.670   6.283   4.990  0.6444  0.4662  0.7398
 1551TIP3    H126144   3.712   6.250   4.911  0.4044  0.1839  0.7285
 1551TIP3    H226145   3.673   6.379   4.980 -1.3889  0.4544 -0.7245
 1552TIP3   OH226146   0.857   2.374  10.674  0.2262  0.1467 -0.0115
 1552TIP3    H126147   0.783   2.422  10.709  1.7983  1.5769  1.5485
 1552TIP3    H226148   0.918   2.366  10.747  1.2340 -1.8205 -0.9791
 1553TIP3   OH226149   4.510   4.407  11.241  0.2907 -0.1580  0.1639
 1553TIP3    H126150   4.570   4.435  11.173 -1.1701  0.2805 -0.9851
 1553TIP3    H226151   4.477   4.488  11.280 -0.3083 -0.3696  0.1094
 1554TIP3   OH226152   3.812   4.237   2.096  0.5945  0.3629  0.0455
 1554TIP3    H126153   3.810   4.142   2.088 -0.0439  0.4488 -1.0402
 1554TIP3    H226154   3.905   4.260   2.087  0.7083 -0.1354 -0.0866
 1555TIP3   OH226155   4.878   5.789   1.347 -0.1612 -0.6224  0.2888
 1555TIP3    H126156   4.838   5.809   1.262  0.2358 -1.3803 -0.0867
 1555TIP3    H226157   4.803   5.782   1.407 -0.3463  1.4409  0.3541
 1556TIP3   OH226158   2.323   1.574   1.108 -0.1532 -0.0328  0.9652
 1556TIP3    H126159   2.415   1.594   1.127 -0.6485  0.9767  2.5380
 1556TIP3    H226160   2.274   1.628   1.170 -1.9198  1.5900 -1.6247
 1557TIP3   OH226161   3.530   1.216   0.680 -0.9377  0.1603 -0.0029
 1557TIP3    H126162   3.441   1.189   0.703 -0.7817  1.0296  1.8056
 1557TIP3    H226163   3.548   1.172   0.597 -1.7035 -3.0554  1.3563
 1558TIP3   OH226164   2.928   4.364  13.999  0.3713  0.1064 -0.1819
 1558TIP3    H126165   2.952   4.441  14.050  0.6033 -0.2655  0.2737
 1558TIP3    H226166   2.876   4.310  14.058  1.4626 -0.7934  0.0068
 1559TIP3   OH226167   5.920   4.589   2.827  0.7017 -0.3507  0.2309
 1559TIP3    H126168   5.861   4.520   2.797 -2.0457  0.3428  3.3613
 1559TIP3    H226169   5.960   4.554   2.907 -0.0311  1.2104  1.3489
 1560TIP3   OH226170   3.386   0.442  11.719  0.1729  0.3926 -0.1278
 1560TIP3    H126171   3.354   0.393  11.643  0.3838  0.0456  0.0058
 1560TIP3    H226172   3.439   0.379  11.768  0.0118  0.6061  0.3275
 1561TIP3   OH226173   6.431   4.171   1.977  0.4337  0.3483  0.1408
 1561TIP3    H126174   6.457   4.146   2.066  1.0269  0.3082 -0.0377
 1561TIP3    H226175   6.442   4.091   1.926 -0.2400  0.2783  0.0915
 1562TIP3   OH226176   3.500   4.025  15.495  0.2191  0.0121 -0.3964
 1562TIP3    H126177   3.414   4.022  15.452 -0.6735  2.2921  1.0492
 1562TIP3    H226178   3.481   4.027  15.588  2.0038 -1.8031  0.0824
 1563TIP3   OH226179   3.217   3.982  14.337  0.2161 -0.1073  0.3071
 1563TIP3    H126180   3.128   3.951  14.350 -0.7953  2.9647  1.7746
 1563TIP3    H226181   3.272   3.916  14.378 -1.4551 -1.4204  0.5585
 1564TIP3   OH226182   5.685   4.295   3.818  0.1082  0.3855  0.1500
 1564TIP3    H126183   5.608   4.337   3.780 -0.2559 -0.9013 -0.5848
 1564TIP3    H226184   5.659   4.204   3.833  1.5464 -0.1613 -0.3920
 1565TIP3   OH226185   2.079   5.738   0.831  0.2287 -0.1880 -0.2940
 1565TIP3    H126186   2.064   5.704   0.742  0.3718  2.3954 -1.3825
 1565TIP3    H226187   2.036   5.823   0.832  3.8266  1.8100  0.6506
 1566TIP3   OH226188   2.673   5.025  12.814  0.2463  0.1524 -0.4785
 1566TIP3    H126189   2.730   5.090  12.772  0.5464 -0.5115 -1.1146
 1566TIP3    H226190   2.607   5.005  12.748  0.1148 -0.1386 -0.2607
 1567TIP3   OH226191   2.794   4.664  14.856  0.5682 -0.2135  0.5201
 1567TIP3    H126192   2.847   4.743  14.852 -1.4693  1.1841 -1.8106
 1567TIP3    H226193   2.703   4.696  14.857 -0.3128 -2.5093  1.6902
 1568TIP3   OH226194   3.092   4.945   3.983 -0.4066 -0.7818 -0.3333
 1568TIP3    H126195   3.136   4.971   4.064 -0.6462 -1.6776  0.1057
 1568TIP3    H226196   3.031   4.877   4.011 -0.0833 -1.5147 -1.3540
 1569TIP3   OH226197   2.331   0.713   5.340 -0.3200  0.3093 -0.0265
 1569TIP3    H126198   2.305   0.692   5.251 -1.3720  1.9263 -0.1502
 1569TIP3    H226199   2.251   0.706   5.391 -0.0855  1.0120  0.4600
 1570TIP3   OH226200   6.138   2.960   5.955  0.3288 -0.4446  0.9046
 1570TIP3    H126201   6.087   3.006   6.022 -1.7456 -1.4823  0.1371
 1570TIP3    H226202   6.206   3.022   5.929 -1.2846  1.5156  1.1332
 1571TIP3   OH226203   4.054   6.454   3.442 -0.7667 -0.3401 -0.6201
 1571TIP3    H126204   4.013   6.407   3.515 -2.5931  3.1061  0.8061
 1571TIP3    H226205   3.985   6.463   3.377 -1.1819  2.0681  0.0647
 1572TIP3   OH226206   4.689   2.777   2.210  0.3110 -0.1973 -0.1018
 1572TIP3    H126207   4.743   2.794   2.287  0.0717 -0.1129  0.0482
 1572TIP3    H226208   4.698   2.683   2.194  0.0269 -0.2919  0.2850
 1573TIP3   OH226209   3.592   2.977   5.487 -0.3591 -0.0091  0.2034
 1573TIP3    H126210   3.646   3.055   5.484  0.7352 -0.6760  1.4903
 1573TIP3    H226211   3.645   2.909   5.447 -1.5027 -0.0258 -1.3809
 1574TIP3   OH226212   2.452   3.117   6.427  0.3150 -0.0639  0.3345
 1574TIP3    H126213   2.541   3.136   6.399  0.0547 -1.6066 -1.8324
 1574TIP3    H226214   2.407   3.201   6.423  1.0973  0.3248 -1.0100
 1575TIP3   OH226215   3.579   0.102   1.284  0.3735 -0.2782  0.7928
 1575TIP3    H126216   3.493   0.135   1.310  0.1588  0.1309 -0.3799
 1575TIP3    H226217   3.628   0.096   1.366 -0.6316 -0.1088  1.4204
 1576TIP3   OH226218   0.654   3.739   5.076 -0.0581 -0.3086  0.5937
 1576TIP3    H126219   0.709   3.802   5.122  1.4299 -0.2843 -1.0685
 1576TIP3    H226220   0.702   3.657   5.082 -0.7118 -0.6946  0.5837
 1577TIP3   OH226221   0.376   2.700   4.695  0.4715 -0.7808  0.3967
 1577TIP3    H126222   0.321   2.778   4.689  0.8108 -0.2682  2.9000
 1577TIP3    H226223   0.465   2.733   4.708  0.6296 -1.5620  1.4161
 1578TIP3   OH226224   6.658   5.386   4.964  0.1872  0.0812  0.0423
 1578TIP3    H126225   6.735   5.443   4.969  0.0253  0.2391  0.7844
 1578TIP3    H226226   6.599   5.429   4.903 -1.1479  2.2079  2.6124
 1579TIP3   OH226227   1.085   0.571  10.607  0.1403 -0.0094  0.4660
 1579TIP3    H126228   1.027   0.515  10.555 -1.5177  0.5830  1.5963
 1579TIP3    H226229   1.149   0.604  10.545 -1.2246 -0.0587 -1.0327
 1580TIP3   OH226230   4.682   0.732  14.913  0.2000  0.3689  0.3376
 1580TIP3    H126231   4.731   0.815  14.909  0.9896  0.1680  3.5887
 1580TIP3    H226232   4.596   0.756  14.946 -0.0259  0.0463 -0.0104
 1581TIP3   OH226233   0.112   4.187   3.941  0.1548  0.0021  0.2435
 1581TIP3    H126234   0.146   4.178   3.852  0.1928 -0.8663  0.3379
 1581TIP3    H226235   0.173   4.248   3.984 -0.1392  0.8137 -0.4517
 1582TIP3   OH226236   0.112   2.625  16.346  0.3380  0.3870 -0.1636
 1582TIP3    H126237   0.163   2.706  16.339  0.1910  0.3592 -1.9672
 1582TIP3    H226238   0.058   2.624  16.268  1.5637 -2.2559 -1.1032
 1583TIP3   OH226239   3.853   2.119   2.979  0.2986  0.0081 -0.0925
 1583TIP3    H126240   3.817   2.149   2.895 -0.3959 -0.1011  0.1585
 1583TIP3    H226241   3.793   2.050   3.008  0.3244  0.2872  0.6600
 1584TIP3   OH226242   4.660   1.424   4.404 -0.9274  0.0943  0.2485
 1584TIP3    H126243   4.666   1.518   4.424 -1.7728  0.8577 -2.5669
 1584TIP3    H226244   4.566   1.408   4.394 -0.6866 -0.1397 -2.6127
 1585TIP3   OH226245   0.879   6.037  12.942  0.3051  0.8170  0.2725
 1585TIP3    H126246   0.852   5.946  12.934 -1.2644  1.0727  1.8878
 1585TIP3    H226247   0.971   6.033  12.969 -0.1862 -0.3664  1.9010
 1586TIP3   OH226248   6.197   3.900   2.988 -0.5022  0.1525  0.4887
 1586TIP3    H126249   6.213   3.807   2.969 -0.7153 -0.0366  1.2209
 1586TIP3    H226250   6.284   3.939   2.994 -0.3633 -0.3309  1.7947
 1587TIP3   OH226251   1.252   1.028  10.473  0.1834  0.3919 -0.2582
 1587TIP3    H126252   1.165   1.060  10.496  0.2313 -0.8569  1.8602
 1587TIP3    H226253   1.237   0.960  10.407 -0.6392 -0.9078  1.2056
 1588TIP3   OH226254   3.935   4.373   5.659 -0.4944  0.6236 -0.1468
 1588TIP3    H126255   3.938   4.277   5.667 -0.5112  0.6133 -0.2631
 1588TIP3    H226256   3.951   4.405   5.748 -1.4658  0.4981  0.0838
 1589TIP3   OH226257   5.940   0.596  14.724  0.0426 -0.3437  0.4708
 1589TIP3    H126258   5.916   0.505  14.739  1.9662 -0.8108  0.9880
 1589TIP3    H226259   5.862   0.646  14.748 -1.5054 -1.8743 -1.0130
 1590TIP3   OH226260   1.489   0.675  14.830  0.3189  0.2764  0.6372
 1590TIP3    H126261   1.416   0.662  14.769  1.0453  1.5470 -0.5503
 1590TIP3    H226262   1.565   0.638  14.785  0.7314  0.5541  1.0962
 1591TIP3   OH226263   6.408   6.720  11.146 -0.0068 -0.2026  0.0743
 1591TIP3    H126264   6.502   6.730  11.162  0.4941 -0.3224 -2.3311
 1591TIP3    H226265   6.377   6.809  11.129 -0.2553 -0.2094  0.4826
 1592TIP3   OH226266   2.706   4.311  11.125 -0.4046  0.7330 -0.2550
 1592TIP3    H126267   2.661   4.227  11.132  1.4594 -0.2609  0.3486
 1592TIP3    H226268   2.707   4.331  11.031 -2.8853  1.2848 -0.2285
 1593TIP3   OH226269   4.684   0.342  12.109  0.0840  0.2061  0.2189
 1593TIP3    H126270   4.590   0.334  12.096 -0.0308  0.5683  0.7662
 1593TIP3    H226271   4.723   0.290  12.039 -0.5236 -0.0441  0.0609
 1594TIP3   OH226272   5.716   6.334  13.856 -0.1370 -0.1143  0.5373
 1594TIP3    H126273   5.670   6.362  13.936  1.5343 -1.0485  1.9012
 1594TIP3    H226274   5.721   6.238  13.864  0.2579 -0.1967 -0.5871
 1595TIP3   OH226275   5.084   3.957   1.797  0.2263 -0.6991 -0.4483
 1595TIP3    H126276   5.126   4.028   1.845 -0.9284  1.3733 -2.2654
 1595TIP3    H226277   5.150   3.888   1.793  1.8011  0.6668  0.5715
 1596TIP3   OH226278   3.131   5.187  15.885 -0.0519 -0.0491 -0.2677
 1596TIP3    H126279   3.064   5.196  15.953  0.6787 -2.6024  0.8985
 1596TIP3    H226280   3.106   5.252  15.819 -0.9687  2.3424  2.2394
 1597TIP3   OH226281   3.714   1.423   1.998 -0.2448 -0.6254 -0.1073
 1597TIP3    H126282   3.668   1.344   2.024  1.3152 -1.0974  1.4222
 1597TIP3    H226283   3.653   1.494   2.017 -1.5388 -1.4071 -1.1903
 1598TIP3   OH226284   4.742   0.177  11.899 -0.4969 -0.0782  0.8536
 1598TIP3    H126285   4.712   0.089  11.879  1.6109 -0.6039 -0.2456
 1598TIP3    H226286   4.678   0.235  11.857 -1.2558 -1.0808  0.5958
 1599TIP3   OH226287   3.885   3.662  10.808  0.4981 -0.3345 -0.1547
 1599TIP3    H126288   3.970   3.623  10.789  0.6866 -0.6972  1.3211
 1599TIP3    H226289   3.850   3.688  10.722  2.3086  0.2856 -0.7462
 1600TIP3   OH226290   0.067   0.067   5.152 -0.1928  0.4156 -0.0145
 1600TIP3    H126291   0.095   0.002   5.216  0.6243  0.2765 -0.5014
 1600TIP3    H226292   0.141   0.128   5.146 -0.0547  0.1475 -1.1863
 1601TIP3   OH226293   2.484   6.155   5.319  0.0260  0.2704 -0.4592
 1601TIP3    H126294   2.522   6.212   5.252 -0.2053 -0.0429 -0.8618
 1601TIP3    H226295   2.547   6.157   5.391  0.6064  0.0771 -0.9528
 1602TIP3   OH226296   5.481   0.719   2.451  0.7767 -0.4674 -0.1990
 1602TIP3    H126297   5.389   0.740   2.466  0.4565 -2.3612  0.8307
 1602TIP3    H226298   5.485   0.691   2.359 -0.1109 -2.2379  0.2566
 1603TIP3   OH226299   3.468   3.103  11.316  0.0451 -0.1156 -0.0533
 1603TIP3    H126300   3.397   3.127  11.375 -0.8080  0.4093 -1.2471
 1603TIP3    H226301   3.487   3.012  11.337 -0.2163  0.0658  1.0328
 1604TIP3   OH226302   5.900   4.029  14.029 -0.6142  0.3644  0.2877
 1604TIP3    H126303   5.852   4.097  13.982  0.9843  1.6906  0.4657
 1604TIP3    H226304   5.921   3.963  13.962 -1.1754  0.6119 -0.1367
 1605TIP3   OH226305   6.637   4.478   2.342  0.0800 -0.6218  0.2506
 1605TIP3    H126306   6.613   4.542   2.409 -1.4394 -1.4361  0.5358
 1605TIP3    H226307   6.554   4.439   2.315  0.6539 -0.4165 -2.0355
 1606TIP3   OH226308   5.193   4.741   3.329 -0.2612 -0.7962  0.4016
 1606TIP3    H126309   5.224   4.699   3.249 -1.1470 -0.3293 -0.1935
 1606TIP3    H226310   5.110   4.781   3.305 -0.5574 -0.6810  1.5676
 1607TIP3   OH226311   0.065   5.578   0.544 -0.0031 -0.0392 -0.0544
 1607TIP3    H126312   0.009   5.502   0.561 -0.1887 -0.1666 -1.1625
 1607TIP3    H226313   0.004   5.649   0.526  0.1784  0.2647  0.5114
 1608TIP3   OH226314   0.263   0.351   2.427 -0.2913  0.1144  0.1606
 1608TIP3    H126315   0.321   0.304   2.366 -0.7344 -3.4189  2.1892
 1608TIP3    H226316   0.316   0.361   2.506 -1.7904 -1.6100  1.4563
 1609TIP3   OH226317   5.216   1.918  11.458 -0.6473 -0.2938  0.1909
 1609TIP3    H126318   5.183   1.893  11.371 -2.2838  0.9222  0.4151
 1609TIP3    H226319   5.237   2.011  11.451  0.2708 -0.4406  0.8081
 1610TIP3   OH226320   0.588   5.114  12.831 -0.4935  0.5109 -0.1422
 1610TIP3    H126321   0.519   5.049  12.844 -0.4702  0.3030 -0.9690
 1610TIP3    H226322   0.549   5.180  12.775  0.6421 -0.8360 -2.7069
 1611TIP3   OH226323   6.325   5.452  15.117 -0.0849 -0.1221  0.1806
 1611TIP3    H126324   6.360   5.540  15.111  0.6789 -0.4333 -0.0647
 1611TIP3    H226325   6.380   5.409  15.183  0.1076 -0.6647 -0.3281
 1612TIP3   OH226326   1.919   3.168   2.997 -0.2160 -0.2691 -0.3790
 1612TIP3    H126327   1.908   3.176   2.902 -0.7625 -0.0763 -0.3065
 1612TIP3    H226328   1.922   3.259   3.028 -2.7884 -0.2759  0.0704
 1613TIP3   OH226329   3.991   0.409   5.817  0.0708  0.1685  0.3677
 1613TIP3    H126330   3.921   0.475   5.813 -0.0726  0.0365  0.7092
 1613TIP3    H226331   4.012   0.402   5.910  0.2497 -0.0965  0.3069
 1614TIP3   OH226332   5.001   0.963  15.590 -0.6200 -0.1628  0.2181
 1614TIP3    H126333   5.046   0.895  15.540  1.5768 -0.2890  2.1523
 1614TIP3    H226334   4.976   0.920  15.672 -2.8436  0.3823 -0.1210
 1615TIP3   OH226335   4.246   0.596  10.520  0.1287  0.1336  0.3921
 1615TIP3    H126336   4.207   0.564  10.439  0.2093  2.2598 -0.5482
 1615TIP3    H226337   4.204   0.544  10.589 -2.6042  0.6593 -0.7486
 1616TIP3   OH226338   6.617   6.275   0.373 -0.0612 -0.7014  0.6245
 1616TIP3    H126339   6.674   6.285   0.297 -0.1881 -1.0749  0.4792
 1616TIP3    H226340   6.530   6.299   0.341 -0.3738 -2.2133  0.2679
 1617TIP3   OH226341   5.328   3.135   3.195 -0.4919  0.2509 -0.6132
 1617TIP3    H126342   5.292   3.205   3.249  0.7682  0.7342 -0.3670
 1617TIP3    H226343   5.296   3.155   3.107 -0.7746  0.6969 -0.4140
 1618TIP3   OH226344   1.348   4.901   1.521 -0.0024 -0.0771  0.3295
 1618TIP3    H126345   1.306   4.971   1.570  0.4731 -0.3061  1.0721
 1618TIP3    H226346   1.332   4.924   1.429 -1.0667  0.2501  0.5759
 1619TIP3   OH226347   0.766   0.546  12.666 -0.5989 -0.1581 -0.3261
 1619TIP3    H126348   0.737   0.601  12.594 -2.0580 -1.1709 -0.5433
 1619TIP3    H226349   0.827   0.484  12.625 -1.6701 -0.9386 -0.7836
 1620TIP3   OH226350   1.436   1.288  10.795  0.7592 -0.4990  0.0417
 1620TIP3    H126351   1.529   1.304  10.780  0.3754 -0.3855 -2.8308
 1620TIP3    H226352   1.393   1.372  10.778  0.0366 -0.8510  0.0525
 1621TIP3   OH226353   1.584   1.482  14.359  0.4370 -0.6713  0.8283
 1621TIP3    H126354   1.672   1.507  14.330  0.0617 -0.2492  0.0173
 1621TIP3    H226355   1.589   1.485  14.454  1.4581 -1.2164  0.8112
 1622TIP3   OH226356   0.332   3.879  11.618  0.7638  0.5212  0.4724
 1622TIP3    H126357   0.361   3.802  11.667  1.3968 -0.1246 -0.8584
 1622TIP3    H226358   0.414   3.917  11.584  0.3815  1.2514  0.3533
 1623TIP3   OH226359   2.160   4.862  16.959 -0.3762 -0.1968  0.0232
 1623TIP3    H126360   2.075   4.902  16.974 -0.0373  1.0804 -1.2215
 1623TIP3    H226361   2.150   4.772  16.989 -1.2124  0.7368  2.8454
 1624TIP3   OH226362   5.301   2.097   4.430  0.3127 -0.1171 -0.5348
 1624TIP3    H126363   5.337   2.059   4.349 -0.2166 -0.3741 -0.6553
 1624TIP3    H226364   5.216   2.055   4.440 -0.2769  1.0036 -0.6484
 1625TIP3   OH226365   6.722   1.818  13.179 -0.0396 -0.1589 -0.0828
 1625TIP3    H126366   6.796   1.764  13.149  0.4747  0.0930  0.7016
 1625TIP3    H226367   6.763   1.897  13.214 -0.8093  1.0044 -1.7132
 1626TIP3   OH226368   6.886   0.092  15.209  0.3115  0.0280  0.1409
 1626TIP3    H126369   6.888   0.168  15.267  1.4030  0.4930 -0.4756
 1626TIP3    H226370   6.800   0.052  15.225 -0.9606  2.2458 -0.6252
 1627TIP3   OH226371   2.277   0.197  16.068 -0.5620  0.5184 -0.2987
 1627TIP3    H126372   2.361   0.241  16.055 -0.8677  1.6157  1.1692
 1627TIP3    H226373   2.216   0.268  16.091 -1.1709 -0.5762  1.7153
 1628TIP3   OH226374   0.323   0.503   1.803  0.6436  0.2064  0.1429
 1628TIP3    H126375   0.331   0.434   1.869  2.2860  0.8788  0.7161
 1628TIP3    H226376   0.312   0.584   1.854 -0.6791  0.4554 -0.4998
 1629TIP3   OH226377   6.593   6.861   5.266  0.5217 -0.7280  0.3433
 1629TIP3    H126378   6.549   6.864   5.182  0.3199 -0.0951  0.4697
 1629TIP3    H226379   6.649   6.939   5.267  0.4026 -0.6461  0.8591
 1630TIP3   OH226380   6.182   0.699   4.749 -0.6315  0.1443  0.4143
 1630TIP3    H126381   6.198   0.673   4.658  1.6851  0.2503  0.7289
 1630TIP3    H226382   6.194   0.794   4.750 -1.9266  0.3203  0.6121
 1631TIP3   OH226383   3.193   3.733   0.749 -0.4621 -0.5316  0.6453
 1631TIP3    H126384   3.202   3.820   0.789 -0.4922  0.4761 -1.4265
 1631TIP3    H226385   3.116   3.695   0.792 -1.1583  0.9418  0.7567
 1632TIP3   OH226386   0.417   4.604   4.362 -0.1927 -0.0232 -0.3572
 1632TIP3    H126387   0.503   4.583   4.327  0.2921  0.2513  0.6392
 1632TIP3    H226388   0.383   4.521   4.396  0.9225  0.3731  1.8677
 1633TIP3   OH226389   6.612   2.432  12.196  0.0750  0.1346  0.4084
 1633TIP3    H126390   6.548   2.440  12.267 -0.6637 -0.9902 -0.0898
 1633TIP3    H226391   6.654   2.517  12.192 -1.6193  1.0285  0.5722
 1634TIP3   OH226392   1.005   0.915   2.507 -0.7411 -0.2246 -0.6307
 1634TIP3    H126393   0.970   0.856   2.440 -1.6782  1.8610 -2.1323
 1634TIP3    H226394   0.929   0.965   2.537  0.0674  0.5377  0.2325
 1635TIP3   OH226395   6.511   2.754  15.780 -0.3332  0.0068  0.4904
 1635TIP3    H126396   6.593   2.718  15.812 -0.3175 -1.4240 -1.0509
 1635TIP3    H226397   6.444   2.696  15.817 -0.6457  0.8873  1.3542
 1636TIP3   OH226398   4.246   0.253   5.223 -0.0002  1.0757  0.3466
 1636TIP3    H126399   4.200   0.282   5.144 -1.1200 -0.1054  0.5318
 1636TIP3    H226400   4.224   0.160   5.230  1.3383  0.8070  1.2110
 1637TIP3   OH226401   1.389   4.726  11.443  0.1547 -0.4821  0.2504
 1637TIP3    H126402   1.474   4.735  11.487 -0.3261 -0.0297  1.1216
 1637TIP3    H226403   1.406   4.754  11.353  1.1441 -1.3507  0.1448
 1638TIP3   OH226404   5.360   6.503   0.588  0.3332  0.5518 -0.1586
 1638TIP3    H126405   5.377   6.510   0.682  0.5608 -1.4913 -0.0142
 1638TIP3    H226406   5.422   6.565   0.549  0.6155  1.0303  0.9809
 1639TIP3   OH226407   1.386   2.590  12.303 -0.5490 -0.3065 -0.1129
 1639TIP3    H126408   1.418   2.680  12.292 -1.6468 -0.0716 -1.7972
 1639TIP3    H226409   1.317   2.597  12.368 -0.3926  0.0155  0.0225
 1640TIP3   OH226410   4.265   5.230  16.755  0.2496  0.3163  0.0039
 1640TIP3    H126411   4.210   5.303  16.785  0.7869  0.1414  1.4685
 1640TIP3    H226412   4.343   5.272  16.720  0.9158  0.4683  1.5738
 1641TIP3   OH226413   1.822   0.960   3.493  0.6294  0.4148  0.2084
 1641TIP3    H126414   1.878   0.962   3.414  1.6598 -1.6775  0.7988
 1641TIP3    H226415   1.743   1.006   3.467  1.7037  1.4497 -1.4403
 1642TIP3   OH226416   6.373   5.176   2.553 -0.2879 -0.6099  0.1642
 1642TIP3    H126417   6.313   5.153   2.482 -0.2286 -0.7671  0.1646
 1642TIP3    H226418   6.347   5.264   2.579 -1.6074 -1.2992  1.2950
 1643TIP3   OH226419   5.896   0.930   1.155  0.8814 -0.1280  0.4122
 1643TIP3    H126420   5.941   0.849   1.179  0.5993 -0.1744  0.8060
 1643TIP3    H226421   5.845   0.953   1.234 -0.3303 -0.4577 -0.2484
 1644TIP3   OH226422   1.339   1.653   5.233  0.0355  0.1807  0.8259
 1644TIP3    H126423   1.270   1.699   5.282  0.2323  1.6308 -0.1946
 1644TIP3    H226424   1.395   1.615   5.301 -1.2638 -0.2755  1.6776
 1645TIP3   OH226425   5.585   0.930   2.609  0.1750  0.0782  0.1357
 1645TIP3    H126426   5.676   0.958   2.614  0.0387  0.3840  1.0877
 1645TIP3    H226427   5.589   0.840   2.576  0.7788  0.2677 -0.3368
 1646TIP3   OH226428   6.465   1.970  11.714 -0.6505 -0.1981 -0.5487
 1646TIP3    H126429   6.518   2.041  11.680  1.6778 -1.5384  0.0424
 1646TIP3    H226430   6.405   1.947  11.642  0.6760  0.3310 -1.8658
 1647TIP3   OH226431   5.323   6.459  13.870 -0.4861 -0.2568 -0.0199
 1647TIP3    H126432   5.230   6.440  13.883 -0.6531 -1.0571 -1.9783
 1647TIP3    H226433   5.365   6.373  13.871  0.1661  0.0581  0.3410
 1648TIP3   OH226434   3.440   6.458  13.333  0.1042 -0.2423  0.2396
 1648TIP3    H126435   3.345   6.459  13.319 -0.0007 -3.5434 -0.1462
 1648TIP3    H226436   3.477   6.482  13.248 -0.4314 -1.0197 -0.2310
 1649TIP3   OH226437   2.665   2.293  15.303  0.2807  0.2994 -0.0156
 1649TIP3    H126438   2.665   2.388  15.294 -1.5967  0.2591 -0.9429
 1649TIP3    H226439   2.631   2.277  15.391 -1.9350  0.5036 -0.7816
 1650TIP3   OH226440   3.103   6.666   1.166  0.3094 -0.5367  0.4011
 1650TIP3    H126441   3.180   6.687   1.112  0.2939  1.0833  0.9417
 1650TIP3    H226442   3.042   6.623   1.107 -0.2583  2.3516 -1.3154
 1651TIP3   OH226443   4.220   0.014   4.150 -0.1922  0.0586  0.3011
 1651TIP3    H126444   4.151   0.068   4.112 -1.4212 -1.8583 -0.3516
 1651TIP3    H226445   4.178  -0.033   4.222  1.1295  0.7516  1.5821
 1652TIP3   OH226446   4.708   5.499   1.154 -0.2699 -0.3503  0.8209
 1652TIP3    H126447   4.690   5.515   1.247 -0.8467  0.0675  0.6405
 1652TIP3    H226448   4.741   5.583   1.121 -0.1053 -0.4866  0.6355
 1653TIP3   OH226449   5.027   5.232  16.151  0.3352 -0.3217  0.2437
 1653TIP3    H126450   5.078   5.255  16.229  2.0564 -0.7359 -0.6848
 1653TIP3    H226451   5.004   5.316  16.112 -1.2447 -0.0881  1.5812
 1654TIP3   OH226452   1.101   3.746  10.739 -0.0352  0.3186 -0.9942
 1654TIP3    H126453   1.081   3.800  10.815  1.6852  0.4342 -0.5929
 1654TIP3    H226454   1.195   3.758  10.724 -0.0865 -0.6891 -2.3681
 1655TIP3   OH226455   3.704   3.969  16.401  0.3802 -0.9725 -0.5320
 1655TIP3    H126456   3.731   3.882  16.374  1.3811 -1.2388  1.1802
 1655TIP3    H226457   3.784   4.021  16.399  0.7620 -1.2324  2.5546
 1656TIP3   OH226458   5.077   1.263   0.878 -0.0914  0.0912 -0.0804
 1656TIP3    H126459   5.012   1.244   0.945  0.4737  0.0394  0.4702
 1656TIP3    H226460   5.028   1.305   0.808 -0.6843  0.2381  0.4098
 1657TIP3   OH226461   2.751   2.846   3.624  0.2397  0.2243  0.3166
 1657TIP3    H126462   2.783   2.892   3.547  1.1995 -0.2741  0.4053
 1657TIP3    H226463   2.671   2.893   3.649  0.4338  0.9606 -0.4196
 1658TIP3   OH226464   4.071   0.341   5.005  0.0149 -0.1638 -0.1618
 1658TIP3    H126465   4.044   0.432   5.011  0.3262 -0.0853  0.0649
 1658TIP3    H226466   4.030   0.309   4.925 -0.0284  0.1968 -0.2853
 1659TIP3   OH226467   2.981   2.109   5.194  0.0283 -0.1341  0.0478
 1659TIP3    H126468   3.056   2.111   5.134 -0.6574 -1.7637 -0.8931
 1659TIP3    H226469   2.909   2.148   5.145 -0.1751 -0.1134  0.3570
 1660TIP3   OH226470   1.254   4.977   4.509  0.5763 -0.0023 -0.4610
 1660TIP3    H126471   1.303   4.992   4.428 -0.7863 -0.3613 -1.3650
 1660TIP3    H226472   1.168   5.014   4.493  0.1685 -0.3959  0.7014
 1661TIP3   OH226473   0.474   3.630  11.992 -0.1172  0.0728 -0.3334
 1661TIP3    H126474   0.538   3.664  12.054 -1.4037 -0.9203  1.6699
 1661TIP3    H226475   0.415   3.704  11.977  0.9135  0.6981 -1.4191
 1662TIP3   OH226476   4.788   6.558  12.361  0.5663 -0.5765  0.2329
 1662TIP3    H126477   4.787   6.582  12.454  0.4555 -0.6070  0.2399
 1662TIP3    H226478   4.697   6.538  12.341  0.6636 -1.0102  0.2285
 1663TIP3   OH226479   6.453   2.464  14.964  0.4248 -0.4056  0.0187
 1663TIP3    H126480   6.460   2.446  14.870  2.2956 -0.5656  0.1572
 1663TIP3    H226481   6.536   2.435  15.001 -0.2114 -0.1982  1.7213
 1664TIP3   OH226482   5.662   6.861  11.499 -0.3911  0.0240 -0.6709
 1664TIP3    H126483   5.651   6.882  11.592 -0.7467  0.0405 -0.7128
 1664TIP3    H226484   5.641   6.768  11.493  1.8229 -0.5446 -0.3791
 1665TIP3   OH226485   4.942   4.922  12.204  0.3652 -0.1476 -1.0039
 1665TIP3    H126486   4.952   4.955  12.293 -2.8633 -0.2776 -0.5049
 1665TIP3    H226487   5.032   4.901  12.177  1.5432  0.6726  1.8668
 1666TIP3   OH226488   1.747   4.062   1.909 -0.3931  0.5145 -0.2903
 1666TIP3    H126489   1.752   4.052   2.004 -4.6341  2.4996  0.3430
 1666TIP3    H226490   1.655   4.050   1.888 -0.0225  2.4431 -3.8416
 1667TIP3   OH226491   2.267   0.945  11.233  0.2779  0.6509  0.2440
 1667TIP3    H126492   2.171   0.947  11.240  0.3819  1.0609  1.7805
 1667TIP3    H226493   2.287   0.853  11.214 -0.3188  0.0840  2.1352
 1668TIP3   OH226494   4.132   4.723   0.194  0.1134 -0.0648  0.7273
 1668TIP3    H126495   4.087   4.760   0.118 -0.6427 -0.8905  0.7518
 1668TIP3    H226496   4.072   4.740   0.268  0.8268  0.7049  1.1474
 1669TIP3   OH226497   2.520   3.922  14.843  0.5566  0.1518 -0.0165
 1669TIP3    H126498   2.550   3.851  14.786  0.8320 -0.1316  0.4801
 1669TIP3    H226499   2.462   3.974  14.787  0.1130 -0.6334 -0.2985
 1670TIP3   OH226500   2.363   0.430   4.282 -0.0964 -0.1205  1.0829
 1670TIP3    H126501   2.351   0.442   4.188 -0.2396 -0.1615  1.0946
 1670TIP3    H226502   2.274   0.421   4.316 -0.2704  2.5958  1.5994
 1671TIP3   OH226503   1.609   2.709  14.792 -0.4666 -0.1708  0.1974
 1671TIP3    H126504   1.668   2.784  14.801 -1.2701  0.5337 -0.1691
 1671TIP3    H226505   1.608   2.669  14.879 -0.2122  0.3958  0.4710
 1672TIP3   OH226506   6.460   0.809  14.043 -0.4710  0.3668  0.4734
 1672TIP3    H126507   6.534   0.749  14.030 -0.4124  0.6730 -0.7444
 1672TIP3    H226508   6.397   0.759  14.095  0.2455 -0.1896  0.8217
 1673TIP3   OH226509   6.505   5.811  14.713 -0.1828 -0.4619 -0.4741
 1673TIP3    H126510   6.425   5.784  14.758  0.6423 -0.5664  1.0125
 1673TIP3    H226511   6.554   5.730  14.700  0.9517 -0.1285  1.2863
 1674TIP3   OH226512   5.613   1.874  12.643  0.1951  0.1937  0.5731
 1674TIP3    H126513   5.555   1.944  12.615  1.3158  0.9523  0.1022
 1674TIP3    H226514   5.654   1.906  12.723 -1.7468 -1.2960  2.2738
 1675TIP3   OH226515   1.395   0.804  12.204 -0.0638  0.7410 -0.5895
 1675TIP3    H126516   1.412   0.816  12.111  2.1620  2.1160 -0.0681
 1675TIP3    H226517   1.480   0.817  12.246 -1.1492  0.8759  1.7022
 1676TIP3   OH226518   2.305   0.714   4.579 -0.1269 -0.0882 -0.1342
 1676TIP3    H126519   2.244   0.719   4.505  1.1456  1.4217 -1.1436
 1676TIP3    H226520   2.389   0.690   4.540 -0.1458 -3.0127  1.3404
 1677TIP3   OH226521   3.021   4.498   1.110  0.3671  0.3976  0.3491
 1677TIP3    H126522   2.942   4.540   1.078 -0.9834 -0.6897  2.0602
 1677TIP3    H226523   3.040   4.429   1.047 -1.1028 -0.4480  0.7689
 1678TIP3   OH226524   0.166   1.141   0.510  0.1985 -0.1861 -0.1133
 1678TIP3    H126525   0.197   1.062   0.554 -0.3443  0.0436  0.7198
 1678TIP3    H226526   0.238   1.203   0.520  0.5840 -0.5328 -0.6777
 1679TIP3   OH226527   0.128   0.468   3.795 -0.3590 -0.2541 -0.0573
 1679TIP3    H126528   0.202   0.429   3.842  1.5435  0.7749 -2.0522
 1679TIP3    H226529   0.082   0.520   3.861  1.5796  0.2742  0.9363
 1680TIP3   OH226530   1.461   6.378   2.752  0.0868  0.7060 -0.6585
 1680TIP3    H126531   1.429   6.376   2.661  1.2728  0.6270 -1.0931
 1680TIP3    H226532   1.475   6.471   2.770 -2.5397  0.9695  0.3469
 1681TIP3   OH226533   2.802   0.365  12.284 -0.1922  0.3271 -0.5152
 1681TIP3    H126534   2.777   0.317  12.363 -2.0611 -0.5803 -1.5812
 1681TIP3    H226535   2.892   0.338  12.268  0.7492  1.6739  2.0656
 1682TIP3   OH226536   0.892   5.792  13.311  0.3480 -0.5200  0.3950
 1682TIP3    H126537   0.962   5.778  13.248 -0.6165  1.1417 -1.1403
 1682TIP3    H226538   0.923   5.867  13.364  0.6681 -1.1988  1.1916
 1683TIP3   OH226539   1.496   6.119   5.299  0.1112  0.2910  0.4426
 1683TIP3    H126540   1.583   6.160   5.301  0.7290 -0.9610  1.7286
 1683TIP3    H226541   1.493   6.068   5.380 -2.0240  0.6528  0.6440
 1684TIP3   OH226542   4.890   0.968   2.939  0.1639  0.1977  0.3515
 1684TIP3    H126543   4.857   1.053   2.909  1.7001  1.0842  1.0439
 1684TIP3    H226544   4.813   0.911   2.939 -0.7571  1.3649 -0.8911
 1685TIP3   OH226545   2.609   5.855  14.993  0.4359 -0.8095  0.1503
 1685TIP3    H126546   2.650   5.939  15.016 -0.0559 -0.4338 -0.3204
 1685TIP3    H226547   2.537   5.879  14.934 -0.0301 -1.5177  0.4213
 1686TIP3   OH226548   6.789   0.041   2.359 -0.0068  0.4017  0.2033
 1686TIP3    H126549   6.861   0.067   2.416 -0.7687  2.6692  0.2008
 1686TIP3    H226550   6.826  -0.028   2.304  2.2317  1.6479  0.0537
 1687TIP3   OH226551   4.342   0.702   3.086  0.1912  1.0657 -0.3040
 1687TIP3    H126552   4.339   0.774   3.024 -1.6316  0.6410 -0.7864
 1687TIP3    H226553   4.388   0.737   3.162  1.1375  2.0641 -1.3116
 1688TIP3   OH226554   4.634   1.005   1.980 -0.3560  0.0925 -0.0549
 1688TIP3    H126555   4.623   1.074   1.915  1.5571  1.7578  1.2527
 1688TIP3    H226556   4.673   0.932   1.932  1.5535  1.4855 -0.7203
 1689TIP3   OH226557   2.766   4.693   3.009  0.5918 -0.3994 -0.5681
 1689TIP3    H126558   2.728   4.663   2.927  1.5733 -0.6881 -0.9348
 1689TIP3    H226559   2.842   4.636   3.023 -0.1505 -1.0295  1.0767
 1690TIP3   OH226560   2.130   1.436   3.430  0.3752  0.0640 -0.1029
 1690TIP3    H126561   2.118   1.345   3.456  1.1358 -0.1411 -0.4529
 1690TIP3    H226562   2.169   1.478   3.506 -0.6864  0.2901  0.3403
 1691TIP3   OH226563   3.990   4.047  15.682 -0.3406  0.3327  0.0367
 1691TIP3    H126564   3.970   3.977  15.744 -1.0119  0.7300  0.2799
 1691TIP3    H226565   3.905   4.087  15.663  0.3025  3.3876  2.6487
 1692TIP3   OH226566   0.569   0.329  15.260  0.5683  0.2871 -0.0368
 1692TIP3    H126567   0.538   0.419  15.269 -3.0725 -0.7268 -0.6938
 1692TIP3    H226568   0.582   0.299  15.350 -0.3406  0.8664  0.3016
 1693TIP3   OH226569   1.975   2.741  11.321  0.1556  0.0990  0.0179
 1693TIP3    H126570   1.970   2.683  11.245 -0.1640  0.5592 -0.3166
 1693TIP3    H226571   1.954   2.684  11.395  2.5076 -0.8473  0.0451
 1694TIP3   OH226572   3.859   4.671  16.324 -0.5801 -0.1002 -0.7566
 1694TIP3    H126573   3.917   4.663  16.248 -1.5864 -0.4375 -1.5104
 1694TIP3    H226574   3.774   4.696  16.287 -0.5345  2.1105  0.4615
 1695TIP3   OH226575   3.868   6.321  11.919 -0.0292  0.3081 -0.5171
 1695TIP3    H126576   3.787   6.296  11.965  0.0454 -0.3851 -0.7582
 1695TIP3    H226577   3.856   6.289  11.830  0.3883  0.4655 -0.6319
 1696TIP3   OH226578   2.022   3.138   2.207 -0.7642  0.3873 -0.0852
 1696TIP3    H126579   1.931   3.110   2.192 -0.3654  0.2698 -2.6760
 1696TIP3    H226580   2.063   3.135   2.121  2.7121 -2.8499  1.4060
 1697TIP3   OH226581   0.033   2.271   1.264 -0.4969  0.0899  0.5638
 1697TIP3    H126582   0.063   2.195   1.314 -2.4660 -1.0355  0.1187
 1697TIP3    H226583  -0.011   2.234   1.188 -1.6404  1.6702  0.4174
 1698TIP3   OH226584   5.831   1.880   3.388  0.1690  0.0619 -0.9347
 1698TIP3    H126585   5.746   1.924   3.383 -0.9308 -1.8053  0.3131
 1698TIP3    H226586   5.830   1.818   3.315  0.1895 -0.3865 -0.5582
 1699TIP3   OH226587   5.725   4.790   0.820  0.1605  0.4162 -0.3891
 1699TIP3    H126588   5.668   4.849   0.868 -0.4734 -0.2037 -0.3567
 1699TIP3    H226589   5.712   4.813   0.728 -0.4332  0.0412 -0.4076
 1700TIP3   OH226590   4.374   5.934   1.599  0.0368 -0.1748  0.3345
 1700TIP3    H126591   4.298   5.915   1.543 -0.0224  0.6905  0.1106
 1700TIP3    H226592   4.448   5.897   1.551 -0.1987 -0.8170  0.4418
 1701TIP3   OH226593   0.560   1.737   2.589  1.0105  0.4989  0.2936
 1701TIP3    H126594   0.493   1.668   2.599  0.9594  0.6781  1.2959
 1701TIP3    H226595   0.642   1.689   2.578  1.0659  0.2546  1.6249
 1702TIP3   OH226596   0.298   3.065   0.260 -0.1661 -0.3384 -0.0479
 1702TIP3    H126597   0.293   3.154   0.227 -2.2994 -0.3156  0.1842
 1702TIP3    H226598   0.350   3.072   0.340  2.1162  0.1616 -1.4966
 1703TIP3   OH226599   3.045   5.254  13.029 -0.5579 -0.4815  0.4617
 1703TIP3    H126600   3.078   5.275  12.941 -0.3673 -0.5716  0.5126
 1703TIP3    H226601   3.072   5.329  13.082 -0.8519 -0.3295  0.3999
 1704TIP3   OH226602   3.627   5.085   2.245  0.1104  0.7053  0.1614
 1704TIP3    H126603   3.584   5.154   2.194 -0.8545 -0.0178 -0.0303
 1704TIP3    H226604   3.720   5.099   2.230 -0.1305  0.6694 -1.5938
 1705TIP3   OH226605   4.344   1.289  16.769 -0.6031 -0.0343 -0.0918
 1705TIP3    H126606   4.411   1.244  16.821 -0.2234 -0.5917 -1.0468
 1705TIP3    H226607   4.393   1.337  16.702 -1.0648  1.0267  0.3018
 1706TIP3   OH226608   1.131   4.026   5.715 -0.2635  0.4165  0.1736
 1706TIP3    H126609   1.224   4.044   5.712 -0.2213  0.4588  1.2706
 1706TIP3    H226610   1.104   4.022   5.623  0.0277  4.2987 -0.2464
 1707TIP3   OH226611   1.274   6.647   4.537  0.0684  0.0026  0.2520
 1707TIP3    H126612   1.200   6.708   4.539  0.1832  0.1519 -0.0128
 1707TIP3    H226613   1.334   6.684   4.473 -0.8462 -1.5081 -1.6099
 1708TIP3   OH226614   3.680   3.247   4.631  0.1124 -0.6153  0.2756
 1708TIP3    H126615   3.606   3.188   4.639  0.0917 -0.5959  0.2296
 1708TIP3    H226616   3.644   3.334   4.645 -0.4028 -0.3185 -2.2968
 1709TIP3   OH226617   2.603   5.024   5.939 -0.8687  0.6564  0.0063
 1709TIP3    H126618   2.592   4.994   6.029 -1.2652 -0.7005 -0.4734
 1709TIP3    H226619   2.578   4.949   5.885 -2.6476  2.0754 -1.2767
 1710TIP3   OH226620   0.100   5.165  12.462 -0.1173 -0.5303 -0.8116
 1710TIP3    H126621   0.045   5.225  12.513  0.9984 -1.0175  1.0308
 1710TIP3    H226622   0.166   5.221  12.421 -0.1318 -0.3029 -0.5249
 1711TIP3   OH226623   2.373   4.474  12.981 -0.1285  0.4710  0.1520
 1711TIP3    H126624   2.463   4.487  13.010 -0.3626  1.0065  0.6530
 1711TIP3    H226625   2.343   4.398  13.030 -0.4722  1.2782  1.2319
 1712TIP3   OH226626   3.583   3.894   0.497  0.1763  0.5364  0.1953
 1712TIP3    H126627   3.551   3.860   0.580  0.1466 -1.6710 -0.6558
 1712TIP3    H226628   3.651   3.833   0.470  0.1314  1.1549 -1.4376
 1713TIP3   OH226629   4.792   0.671   0.251 -0.0481  0.5874 -0.1278
 1713TIP3    H126630   4.866   0.715   0.293 -0.3408 -0.0564  1.1237
 1713TIP3    H226631   4.718   0.687   0.310 -0.5502 -0.0793 -0.5644
 1714TIP3   OH226632   0.441   0.671   5.668 -0.5051  1.0006 -0.1821
 1714TIP3    H126633   0.347   0.665   5.688 -0.5827  0.9594 -0.5551
 1714TIP3    H226634   0.474   0.583   5.683 -0.2297  1.3321  1.3857
 1715TIP3   OH226635   2.532   3.932  12.548  0.1783  0.2963 -0.4004
 1715TIP3    H126636   2.462   3.894  12.496  1.5090 -0.9043 -1.4057
 1715TIP3    H226637   2.570   4.000  12.492  1.9674 -1.3660 -1.3252
 1716TIP3   OH226638   2.995   0.724   5.690  0.1209  0.1274 -0.1538
 1716TIP3    H126639   3.053   0.788   5.649 -0.1329  0.6893  0.3532
 1716TIP3    H226640   2.969   0.764   5.773 -1.6692  0.2856 -0.7349
 1717TIP3   OH226641   3.177   6.760  14.524  0.3281 -0.0168  0.6964
 1717TIP3    H126642   3.237   6.731  14.456 -0.1677  0.2987  0.1038
 1717TIP3    H226643   3.229   6.762  14.604  1.0465  0.0595  0.2334
 1718TIP3   OH226644   2.598   0.045   2.480  0.9026  0.7626  0.2910
 1718TIP3    H126645   2.585   0.091   2.563 -0.8241 -0.8718  1.0113
 1718TIP3    H226646   2.515   0.057   2.433  1.5842  1.0201 -0.9006
 1719TIP3   OH226647   5.457   5.733  12.629 -0.3500 -0.2737 -0.9150
 1719TIP3    H126648   5.517   5.753  12.557  0.8074 -1.8074 -0.4271
 1719TIP3    H226649   5.435   5.819  12.667  1.8579  0.3119 -0.8543
 1720TIP3   OH226650   3.413   2.080  14.080  0.3249 -0.2721  0.1805
 1720TIP3    H126651   3.354   2.047  14.013 -0.3356 -0.0077  0.6166
 1720TIP3    H226652   3.429   2.005  14.137 -1.6978  0.2152  1.5478
 1721TIP3   OH226653   0.030   3.037  15.600  0.1064 -0.3767  0.2782
 1721TIP3    H126654  -0.026   3.115  15.600  0.1195 -0.3622 -0.3614
 1721TIP3    H226655   0.106   3.061  15.547 -0.3118 -1.1090 -0.6972
 1722TIP3   OH226656   3.916   5.421  13.094 -0.1569  0.3989 -0.4320
 1722TIP3    H126657   3.983   5.479  13.129  0.3176  0.5335 -1.5076
 1722TIP3    H226658   3.963   5.340  13.072 -0.5510  0.1052 -0.2252
 1723TIP3   OH226659   2.610   5.123   3.263  0.1833 -0.0400 -0.0221
 1723TIP3    H126660   2.661   5.204   3.261 -0.3478  0.2969 -2.0262
 1723TIP3    H226661   2.670   5.056   3.231 -0.2641  0.1669 -1.3693
 1724TIP3   OH226662   6.082   4.768  16.115 -0.3846 -0.2570  0.6290
 1724TIP3    H126663   6.030   4.688  16.110  2.3410 -2.1105 -0.4642
 1724TIP3    H226664   6.077   4.794  16.207 -3.1516 -0.2907  0.5797
 1725TIP3   OH226665   5.157   6.883   5.447 -0.6406  0.2327 -0.4642
 1725TIP3    H126666   5.136   6.946   5.378 -0.7387 -1.1849 -1.7909
 1725TIP3    H226667   5.197   6.809   5.400 -0.2551 -0.5670  1.0669
 1726TIP3   OH226668   0.915   4.191  16.293 -0.0387  0.0942  0.1096
 1726TIP3    H126669   0.889   4.111  16.339  1.5459 -0.7177 -0.3336
 1726TIP3    H226670   1.010   4.197  16.308 -0.0061  1.4751 -0.5171
 1727TIP3   OH226671   5.104   2.995   5.371  0.0347  0.3293  0.3025
 1727TIP3    H126672   5.083   3.059   5.439 -1.1941  0.5067 -0.2210
 1727TIP3    H226673   5.153   2.927   5.416  1.8491  1.8755  0.7730
 1728TIP3   OH226674   4.994   3.542   6.102  0.6216  0.9506  0.0885
 1728TIP3    H126675   5.070   3.580   6.146 -0.0585  1.3495  0.9501
 1728TIP3    H226676   4.942   3.503   6.173 -0.0097  0.7302 -0.4795
 1729TIP3   OH226677   3.642   5.521   0.620  0.1928 -0.4642  0.3777
 1729TIP3    H126678   3.659   5.614   0.604 -0.3847 -0.6771 -1.7070
 1729TIP3    H226679   3.554   5.506   0.586  0.1560 -1.7189  0.9735
 1730TIP3   OH226680   3.467   2.445   2.144 -0.1268  0.1464 -0.4340
 1730TIP3    H126681   3.546   2.393   2.132 -1.1225 -1.8778  1.0001
 1730TIP3    H226682   3.491   2.514   2.205  0.8356  0.3456 -1.0345
 1731TIP3   OH226683   1.171   5.103   3.266  0.1176  0.1342  0.0460
 1731TIP3    H126684   1.248   5.116   3.322  0.1450  2.7601 -0.4755
 1731TIP3    H226685   1.117   5.181   3.281 -3.2339 -2.1975  1.4655
 1732TIP3   OH226686   3.100   0.134   5.301 -0.4311  0.4203 -0.2471
 1732TIP3    H126687   3.130   0.221   5.325  0.6014  0.2315 -0.8233
 1732TIP3    H226688   3.173   0.076   5.322 -0.8177 -0.2053 -0.5782
 1733TIP3   OH226689   0.562   0.695  13.894  0.0515 -0.1187  0.4213
 1733TIP3    H126690   0.530   0.606  13.912  0.8263 -0.5092 -0.1208
 1733TIP3    H226691   0.529   0.747  13.968  1.3323 -1.2614  1.8561
 1734TIP3   OH226692   3.723   0.750   4.367 -0.1961  0.6886 -0.4899
 1734TIP3    H126693   3.688   0.820   4.422 -0.5003  1.3994 -1.5498
 1734TIP3    H226694   3.645   0.713   4.323 -0.2772 -1.4514  1.2582
 1735TIP3   OH226695   1.018   0.243  12.255 -0.5605 -0.4235  0.3283
 1735TIP3    H126696   0.984   0.294  12.181 -2.2848 -0.4093  1.0746
 1735TIP3    H226697   0.973   0.159  12.249  0.0045 -0.7682  0.8221
 1736TIP3   OH226698   3.259   1.536  16.961  0.4251 -0.0844  0.5817
 1736TIP3    H126699   3.183   1.477  16.960 -0.2286  0.7510  0.1331
 1736TIP3    H226700   3.221   1.624  16.960  1.3523  0.3944  2.6141
 1737TIP3   OH226701   3.518   3.350   1.738 -0.2271 -0.2654 -0.8861
 1737TIP3    H126702   3.590   3.405   1.766 -1.6811  0.8081  0.9770
 1737TIP3    H226703   3.502   3.291   1.812 -2.8640  1.2688 -0.1068
 1738TIP3   OH226704   3.259   0.281  15.548 -0.2566  0.0718 -0.6767
 1738TIP3    H126705   3.272   0.291  15.642  0.9642  1.2406 -0.9365
 1738TIP3    H226706   3.205   0.202  15.539 -0.0934 -0.2580  0.9721
 1739TIP3   OH226707   0.672   2.177  14.735  0.3858 -0.3984 -0.3275
 1739TIP3    H126708   0.662   2.136  14.649  3.6884 -2.1936 -0.0175
 1739TIP3    H226709   0.584   2.208  14.757 -0.3230  1.9184 -5.1236
 1740TIP3   OH226710   1.428   4.331  14.481 -0.2508 -0.1905 -0.0736
 1740TIP3    H126711   1.499   4.388  14.511  0.9059 -1.4009 -0.3959
 1740TIP3    H226712   1.382   4.382  14.415  0.1831  0.7018  0.3079
 1741TIP3   OH226713   1.595   3.758  14.879 -0.4747  0.3977  0.0527
 1741TIP3    H126714   1.618   3.820  14.809  3.1881 -0.8786 -0.1018
 1741TIP3    H226715   1.616   3.673  14.842 -1.5984 -0.6209  1.6498
 1742TIP3   OH226716   3.750   6.667  14.746 -0.1451  0.4384  0.2006
 1742TIP3    H126717   3.792   6.583  14.730  1.4882  0.7028  2.6143
 1742TIP3    H226718   3.754   6.713  14.662  3.1168 -0.1496 -0.0791
 1743TIP3   OH226719   2.781   5.272  12.909  0.3748  0.3200  0.0646
 1743TIP3    H126720   2.862   5.246  12.954 -0.0181  0.6283  0.9793
 1743TIP3    H226721   2.722   5.198  12.923  0.5895 -0.0511 -0.8927
 1744TIP3   OH226722   5.825   5.888  12.205 -0.2719 -0.4666 -0.0375
 1744TIP3    H126723   5.739   5.846  12.206 -0.0548 -0.9087  1.1051
 1744TIP3    H226724   5.860   5.868  12.118 -0.9639 -1.0234 -0.2005
 1745TIP3   OH226725   5.230   6.790   2.701 -0.0177  0.3857  0.4464
 1745TIP3    H126726   5.304   6.729   2.706 -0.3435  0.0851  2.8018
 1745TIP3    H226727   5.252   6.849   2.629  0.8704 -1.7659 -1.1521
 1746TIP3   OH226728   1.193   0.489   0.241 -0.3256 -0.7222  0.3199
 1746TIP3    H126729   1.258   0.534   0.296  0.4955 -0.7594 -0.5827
 1746TIP3    H226730   1.222   0.506   0.151 -2.2406  0.2404 -0.1549
 1747TIP3   OH226731   1.776   3.172  16.105 -0.1346 -0.1329 -0.6887
 1747TIP3    H126732   1.754   3.264  16.088 -0.9438 -0.6530 -2.7057
 1747TIP3    H226733   1.835   3.148  16.034  0.6954 -0.9802  0.2561
 1748TIP3   OH226734   5.015   6.490  14.190 -0.3883 -0.1917 -0.3105
 1748TIP3    H126735   4.933   6.478  14.238  0.7982 -1.3754  1.5329
 1748TIP3    H226736   5.050   6.401  14.182  1.1969  0.3995 -0.1737
 1749TIP3   OH226737   5.907   1.694  11.989  0.2501 -0.8398 -0.1491
 1749TIP3    H126738   5.956   1.767  12.025 -0.0528 -0.7787  0.1435
 1749TIP3    H226739   5.941   1.617  12.035  0.4413 -0.8616 -0.3273
 1750TIP3   OH226740   4.779   6.182   2.188  0.2356  0.0620 -0.0112
 1750TIP3    H126741   4.809   6.265   2.224 -0.1822  1.5483 -2.8418
 1750TIP3    H226742   4.684   6.185   2.199  0.2952 -0.5155  0.7477
 1751TIP3   OH226743   4.112   6.000   4.977  0.2007 -0.4927  0.1116
 1751TIP3    H126744   4.046   5.944   4.937 -0.3244 -0.3621  0.7825
 1751TIP3    H226745   4.196   5.957   4.958  0.0026 -0.2386 -1.4385
 1752TIP3   OH226746   0.743   1.997  14.277 -0.3343  0.1313  0.0717
 1752TIP3    H126747   0.730   1.916  14.228 -0.8407  1.1030 -1.4831
 1752TIP3    H226748   0.822   1.982  14.328 -0.4567 -1.3576 -0.1272
 1753TIP3   OH226749   6.515   5.849  12.958  0.1773 -0.2136 -0.5041
 1753TIP3    H126750   6.598   5.803  12.941  0.4351  0.1804 -0.3235
 1753TIP3    H226751   6.455   5.779  12.985  0.7588 -0.3689  0.4439
 1754TIP3   OH226752   6.587   1.724  11.359 -0.2157 -0.3079  0.4654
 1754TIP3    H126753   6.627   1.670  11.292  0.4009  0.9768 -0.2470
 1754TIP3    H226754   6.518   1.772  11.313  1.7976  2.4547  0.0469
 1755TIP3   OH226755   2.869   0.296   5.239 -0.0882  0.8030  0.2579
 1755TIP3    H126756   2.862   0.340   5.324  0.0820  1.6877 -0.1730
 1755TIP3    H226757   2.943   0.237   5.249  0.8673  1.9668  0.2815
 1756TIP3   OH226758   2.953   2.582  13.323  0.6540 -0.1355 -0.4308
 1756TIP3    H126759   2.933   2.550  13.411  1.1820 -0.1913 -0.3296
 1756TIP3    H226760   3.049   2.578  13.317  0.6493  0.3051 -0.8415
 1757TIP3   OH226761   0.192   5.076   1.486  0.1749 -0.3206 -0.6046
 1757TIP3    H126762   0.281   5.110   1.486  0.0605 -0.0154 -0.2898
 1757TIP3    H226763   0.196   4.998   1.431  0.6849 -0.4318 -0.4145
 1758TIP3   OH226764   6.526   6.064   2.906 -0.9428 -0.3960  0.6584
 1758TIP3    H126765   6.583   6.016   2.966  0.3954  0.7798  0.3839
 1758TIP3    H226766   6.446   6.011   2.901 -0.1991 -1.6745  1.6918
 1759TIP3   OH226767   4.273   2.588   3.667  0.1754 -0.4442 -0.4751
 1759TIP3    H126768   4.221   2.649   3.614  1.0078  1.0733  0.3875
 1759TIP3    H226769   4.343   2.642   3.704  1.2349 -2.0418 -0.0571
 1760TIP3   OH226770   6.777   3.047   3.794  0.2501  0.9806 -0.4687
 1760TIP3    H126771   6.775   2.978   3.860 -1.4273  0.1246 -1.3419
 1760TIP3    H226772   6.870   3.060   3.776  0.6505 -0.3160  0.4703
 1761TIP3   OH226773   4.716   6.135  11.131  0.1846  0.2075  0.3766
 1761TIP3    H126774   4.805   6.100  11.129  0.2661  0.4173 -0.7791
 1761TIP3    H226775   4.690   6.137  11.039 -0.6758  1.0091  0.6239
 1762TIP3   OH226776   2.394   2.491   2.385 -0.2012 -0.2179  0.5920
 1762TIP3    H126777   2.419   2.558   2.321  0.8677 -0.7526  0.4338
 1762TIP3    H226778   2.345   2.539   2.452 -0.6643  0.4810 -0.2237
 1763TIP3   OH226779   6.666   3.090   1.329 -0.2623 -0.3642  0.1693
 1763TIP3    H126780   6.755   3.082   1.362 -0.3605 -0.6017  0.3759
 1763TIP3    H226781   6.663   3.031   1.254  0.0276  0.3421 -0.4186
 1764TIP3   OH226782   0.855   1.599   4.023  0.4180 -0.5377 -0.2511
 1764TIP3    H126783   0.798   1.610   3.947  1.0696 -1.0894 -0.8346
 1764TIP3    H226784   0.795   1.585   4.097 -0.2023 -1.0150 -0.8353
 1765TIP3   OH226785   0.862   1.361  10.954 -0.0683  0.4733  0.4663
 1765TIP3    H126786   0.772   1.379  10.926 -0.0754 -2.5151 -1.9759
 1765TIP3    H226787   0.906   1.328  10.876  3.0137  1.1655  1.7484
 1766TIP3   OH226788   2.467   0.105  16.947 -0.2301 -0.4469 -0.1145
 1766TIP3    H126789   2.375   0.133  16.950 -0.2648 -0.5025 -0.5879
 1766TIP3    H226790   2.515   0.175  16.990 -0.5653 -0.7163  0.7033
 1767TIP3   OH226791   5.024   1.188   1.414  0.1622  0.5119 -0.3293
 1767TIP3    H126792   5.089   1.175   1.345  0.5026 -0.6529  0.1859
 1767TIP3    H226793   4.941   1.158   1.376  0.4437 -0.6294 -0.0758
 1768TIP3   OH226794   3.944   6.569  11.987 -0.1895 -0.3588 -0.1801
 1768TIP3    H126795   4.031   6.582  11.948  1.0854 -2.0014  1.9285
 1768TIP3    H226796   3.921   6.479  11.963 -1.8828  0.4005 -1.6389
 1769TIP3   OH226797   2.705   3.015   5.433 -0.4040 -0.2845 -0.5165
 1769TIP3    H126798   2.726   2.925   5.458  0.6860 -0.2071 -1.0968
 1769TIP3    H226799   2.685   3.059   5.515  0.1657 -0.7757 -0.1078
 1770TIP3   OH226800   6.524   5.425   5.987  0.5841 -0.6247  0.1275
 1770TIP3    H126801   6.612   5.452   6.016  0.2726 -0.4978  1.0012
 1770TIP3    H226802   6.465   5.470   6.047 -0.1621  0.5268 -1.4268
 1771TIP3   OH226803   2.470   6.578   4.678 -0.0338  0.3296 -0.0925
 1771TIP3    H126804   2.527   6.655   4.676  0.4249  0.0080  0.4209
 1771TIP3    H226805   2.500   6.524   4.605 -0.0020  0.3923 -0.1256
 1772TIP3   OH226806   4.569   5.989   1.346  0.0632  0.3231  0.1829
 1772TIP3    H126807   4.519   5.909   1.362 -0.8151  0.5597 -1.2313
 1772TIP3    H226808   4.504   6.052   1.314  0.9680  1.2110  0.0350
 1773TIP3   OH226809   6.185   3.081  13.516 -0.4512 -0.5287 -0.0952
 1773TIP3    H126810   6.159   3.026  13.441 -3.2080  1.1623 -0.5358
 1773TIP3    H226811   6.133   3.048  13.589 -2.8434  1.8557 -0.5709
 1774TIP3   OH226812   6.306   4.293  16.665  0.2839  0.0440  0.3316
 1774TIP3    H126813   6.229   4.349  16.673  0.3849  0.2744 -0.2927
 1774TIP3    H226814   6.329   4.271  16.755 -0.4930 -0.0041  0.5216
 1775TIP3   OH226815   3.782   5.455   5.251 -0.2216  0.2796  0.2949
 1775TIP3    H126816   3.751   5.396   5.183 -0.6508 -0.3497  1.0237
 1775TIP3    H226817   3.777   5.404   5.332 -0.0584  1.1257  0.8575
 1776TIP3   OH226818   0.384   2.445   3.975  0.0268  0.1644  0.4585
 1776TIP3    H126819   0.399   2.532   3.938  1.1085 -0.2939 -0.2280
 1776TIP3    H226820   0.407   2.454   4.068  0.2792  0.5745  0.3593
 1777TIP3   OH226821   0.356   5.017  14.495  1.0225 -0.4164  0.6169
 1777TIP3    H126822   0.384   4.948  14.555 -0.2523 -2.2114 -0.7256
 1777TIP3    H226823   0.262   5.027  14.512  0.9786  0.2099  0.0483
 1778TIP3   OH226824   0.853   5.091  12.932 -0.8389 -0.6523  0.5200
 1778TIP3    H126825   0.775   5.093  12.876 -0.0980 -0.0727 -0.5092
 1778TIP3    H226826   0.818   5.079  13.020 -1.9940 -2.3794 -0.1172
 1779TIP3   OH226827   3.219   5.888  13.990 -0.1819 -0.1442  0.1425
 1779TIP3    H126828   3.278   5.901  13.916 -1.1163 -1.4689 -0.8862
 1779TIP3    H226829   3.274   5.849  14.058  0.9758  2.2433  0.6748
 1780TIP3   OH226830   1.894   2.977  15.389  0.2549  0.3554  0.2882
 1780TIP3    H126831   1.984   3.005  15.399  0.5068 -0.0458 -0.7120
 1780TIP3    H226832   1.874   2.929  15.469  1.6586 -1.4617 -0.3639
 1781TIP3   OH226833   4.006   6.564  14.200 -0.4029  0.5147  0.7510
 1781TIP3    H126834   4.015   6.658  14.213 -1.2639  0.9708 -1.4750
 1781TIP3    H226835   3.912   6.549  14.198 -0.3047 -0.0607 -0.7713
 1782TIP3   OH226836   5.563   1.867  16.227 -0.1295  0.4429 -0.2056
 1782TIP3    H126837   5.633   1.810  16.260  0.0384  0.2308 -0.9190
 1782TIP3    H226838   5.549   1.930  16.298 -0.6589 -0.7661  0.8164
 1783TIP3   OH226839   2.816   2.504  14.816  0.1436  0.9538  0.0451
 1783TIP3    H126840   2.754   2.434  14.793  0.6877  0.7704 -0.9376
 1783TIP3    H226841   2.859   2.526  14.733  0.4403  2.0157  0.4576
 1784TIP3   OH226842   5.597   5.406   6.030  0.2251  0.5340 -0.2775
 1784TIP3    H126843   5.621   5.385   6.121 -1.0366 -1.2386 -0.3013
 1784TIP3    H226844   5.549   5.328   6.000  1.0775  0.8627 -2.6468
 1785TIP3   OH226845   0.060   5.829  16.896  0.2762 -0.4585 -0.3713
 1785TIP3    H126846   0.079   5.846  16.803 -0.2798  0.4285 -0.3331
 1785TIP3    H226847   0.086   5.737  16.909  0.8595 -0.4346 -1.2665
 1786TIP3   OH226848   6.094   1.734  15.592  0.2459  0.0427  0.2085
 1786TIP3    H126849   6.052   1.797  15.651  0.0712 -1.6172  1.9765
 1786TIP3    H226850   6.089   1.651  15.639  0.3970 -1.3272 -2.0706
 1787TIP3   OH226851   3.220   0.972  10.865  0.3304 -0.6113  0.1173
 1787TIP3    H126852   3.211   0.878  10.850  0.3367 -0.5658 -0.1932
 1787TIP3    H226853   3.247   0.980  10.956 -1.1355 -0.8313  0.5853
 1788TIP3   OH226854   4.904   0.315  16.046 -0.1766  0.8546  0.4292
 1788TIP3    H126855   4.965   0.269  16.104 -0.5966 -0.4826 -0.1414
 1788TIP3    H226856   4.818   0.297  16.083 -0.7700 -2.5147 -2.0576
 1789TIP3   OH226857   0.718   4.910   5.650  0.0369 -0.0994  0.2938
 1789TIP3    H126858   0.679   4.940   5.733  0.0772 -0.5271  0.4679
 1789TIP3    H226859   0.643   4.889   5.595  0.0140 -0.1256  0.3347
 1790TIP3   OH226860   1.414   3.822  15.421  0.1612  0.2265 -0.6544
 1790TIP3    H126861   1.425   3.815  15.516  2.6829 -1.0343 -0.9692
 1790TIP3    H226862   1.492   3.868  15.391 -0.1653 -0.1865 -2.2148
 1791TIP3   OH226863   4.162   6.557   2.300 -0.0566  0.0614  0.2451
 1791TIP3    H126864   4.099   6.543   2.229 -0.5203 -3.4915  1.1890
 1791TIP3    H226865   4.247   6.561   2.256 -0.5376  0.5507 -0.6835
 1792TIP3   OH226866   2.386   5.496  12.915 -0.6484 -0.1713 -0.0425
 1792TIP3    H126867   2.340   5.505  12.831 -1.2145 -0.6214  0.2118
 1792TIP3    H226868   2.391   5.584  12.950 -0.4311  0.0163 -0.5387
 1793TIP3   OH226869   2.530   1.572   5.693  0.0327 -0.8668  0.3214
 1793TIP3    H126870   2.599   1.633   5.718  0.1910 -0.9610  0.1197
 1793TIP3    H226871   2.459   1.588   5.755 -0.9896  1.3507 -1.2922
 1794TIP3   OH226872   6.503   2.045   6.246 -0.2455  0.7342  0.5991
 1794TIP3    H126873   6.544   2.113   6.193 -3.1614  1.0823 -1.4286
 1794TIP3    H226874   6.424   2.085   6.280 -1.7098 -1.3919 -0.1009
 1795TIP3   OH226875   0.187   6.133  11.734  0.2368  0.6734 -1.1991
 1795TIP3    H126876   0.142   6.187  11.669 -1.9530 -0.3620 -0.6149
 1795TIP3    H226877   0.208   6.194  11.805 -2.2481  0.8460 -0.5209
 1796TIP3   OH226878   2.250   5.857  13.455 -0.6255  0.4419  0.2074
 1796TIP3    H126879   2.332   5.878  13.499  0.1316 -0.9879 -0.4528
 1796TIP3    H226880   2.217   5.780  13.501 -1.6068  1.0078  0.4679
 1797TIP3   OH226881   2.344   1.205  12.822 -0.2241 -0.3646  0.5262
 1797TIP3    H126882   2.362   1.229  12.913  0.0978 -2.5547  1.0907
 1797TIP3    H226883   2.370   1.113  12.816 -2.7798 -1.0787 -1.0567
 1798TIP3   OH226884   5.326   5.067  16.815  0.3411  0.7798  0.5596
 1798TIP3    H126885   5.377   5.029  16.887  0.1561 -0.8823 -0.1298
 1798TIP3    H226886   5.241   5.087  16.854 -0.2216 -1.3590  0.5793
 1799TIP3   OH226887   1.800   4.337  11.176 -0.4405 -0.0304  0.3321
 1799TIP3    H126888   1.874   4.277  11.162  0.4187  1.5451 -3.1554
 1799TIP3    H226889   1.734   4.308  11.113 -1.0336  1.1344  0.3956
 1800TIP3   OH226890   0.267   2.857   3.848 -0.2078  0.5081 -0.0704
 1800TIP3    H126891   0.288   2.873   3.940 -1.0523 -1.8271  0.6041
 1800TIP3    H226892   0.238   2.942   3.815  0.0967  1.4054  1.8142
 1801TIP3   OH226893   0.873   2.388  10.970 -0.3042  0.1110 -0.1961
 1801TIP3    H126894   0.870   2.460  11.033  0.1627  0.9543 -1.1097
 1801TIP3    H226895   0.784   2.354  10.968 -0.2226 -0.2720  1.2821
 1802TIP3   OH226896   1.957   2.670   0.054  0.3960  0.5135  0.5106
 1802TIP3    H126897   2.013   2.622  -0.008 -2.6710 -0.4947 -1.7445
 1802TIP3    H226898   1.986   2.761   0.047  1.4067  0.1203 -0.9782
 1803TIP3   OH226899   3.593   0.155   0.995 -0.6804  0.3218 -0.3223
 1803TIP3    H126900   3.575   0.108   1.076 -0.6261  0.8589  0.0050
 1803TIP3    H226901   3.612   0.086   0.931  0.6443 -0.0750  0.4542
 1804TIP3   OH226902   4.252   3.302   1.568 -0.2731 -0.3542 -0.2425
 1804TIP3    H126903   4.315   3.267   1.505 -0.5522 -0.0723 -0.6832
 1804TIP3    H226904   4.201   3.366   1.518 -0.8622 -0.5260  0.1243
 1805TIP3   OH226905   2.035   0.456   5.637  0.0908 -0.5191  0.1422
 1805TIP3    H126906   2.091   0.381   5.656 -0.9261 -1.8544 -1.7862
 1805TIP3    H226907   2.093   0.532   5.642  0.4968 -0.7553  5.8062
 1806TIP3   OH226908   0.215   2.357  12.188  0.7335 -0.2824  0.5638
 1806TIP3    H126909   0.163   2.431  12.221  1.0508 -0.1347  0.7307
 1806TIP3    H226910   0.234   2.305  12.266 -0.3613 -1.1013  0.3200
 1807TIP3   OH226911   1.273   5.475  13.698  0.0720 -0.0274  0.0197
 1807TIP3    H126912   1.288   5.386  13.729  1.4323  0.2018  0.0802
 1807TIP3    H226913   1.281   5.530  13.776  3.0330  0.5009 -0.5324
 1808TIP3   OH226914   6.022   5.067   4.642  0.1998  0.3535 -0.1547
 1808TIP3    H126915   6.088   5.127   4.677 -0.1642  0.5182  0.2562
 1808TIP3    H226916   5.940   5.095   4.682 -0.5386  1.6147 -2.4156
 1809TIP3   OH226917   0.820   1.874  12.126  0.4914 -0.1482  0.4590
 1809TIP3    H126918   0.769   1.857  12.205  0.1103  1.3308  0.5669
 1809TIP3    H226919   0.780   1.952  12.088  0.2682 -1.1746 -1.5574
 1810TIP3   OH226920   6.489   3.763   5.483  0.9170 -0.3294 -0.0662
 1810TIP3    H126921   6.467   3.691   5.425 -1.0496  0.5472 -0.4998
 1810TIP3    H226922   6.507   3.837   5.425  0.4955  0.1428  0.3837
 1811TIP3   OH226923   1.878   0.498   3.288 -0.3618 -0.7459  0.0279
 1811TIP3    H126924   1.873   0.456   3.202 -1.7283 -0.9233  0.1652
 1811TIP3    H226925   1.794   0.543   3.298  0.3937  0.6162  0.6139
 1812TIP3   OH226926   3.353   1.876   0.979  0.2395 -0.3828 -0.6278
 1812TIP3    H126927   3.338   1.915   1.065 -0.2573 -0.4388 -0.6900
 1812TIP3    H226928   3.415   1.805   0.996 -0.6446 -1.0478 -0.1531
 1813TIP3   OH226929   1.386   2.014   2.594 -0.0891  0.1465  0.0311
 1813TIP3    H126930   1.415   2.056   2.675 -0.5233  0.1213  0.1993
 1813TIP3    H226931   1.437   2.058   2.526 -0.2811  0.7056  0.2388
 1814TIP3   OH226932   2.697   0.979  11.167 -0.2626  0.8389 -0.0547
 1814TIP3    H126933   2.786   0.952  11.189 -0.2698  1.9359  1.4255
 1814TIP3    H226934   2.662   0.905  11.118  1.4386  0.3683 -0.6473
 1815TIP3   OH226935   6.056   2.412   5.812 -0.8097  0.5273  1.0483
 1815TIP3    H126936   6.137   2.431   5.765 -0.6655 -1.7836  0.2495
 1815TIP3    H226937   6.069   2.451   5.899  0.5293  1.4621  0.4715
 1816TIP3   OH226938   5.976   4.083  14.689  0.1662 -0.0198  0.0112
 1816TIP3    H126939   5.886   4.108  14.667 -0.6474 -1.5484  1.3718
 1816TIP3    H226940   6.000   4.145  14.759  0.8537  1.4912 -1.4929
 1817TIP3   OH226941   6.675   0.664  15.404 -0.0378  0.4051  0.4878
 1817TIP3    H126942   6.664   0.664  15.499 -1.3087  0.6603  0.3575
 1817TIP3    H226943   6.636   0.581  15.375  1.6330 -0.3501  0.3001
 1818TIP3   OH226944   0.889   6.677   5.644 -0.2064  0.0308 -0.2755
 1818TIP3    H126945   0.899   6.595   5.595  0.3356  0.6607 -1.2508
 1818TIP3    H226946   0.867   6.649   5.733 -1.1135 -1.1383 -0.8446
 1819TIP3   OH226947   5.560   1.675  11.073 -0.1845 -0.4361  0.7097
 1819TIP3    H126948   5.468   1.687  11.048  0.3416 -0.2538 -1.2445
 1819TIP3    H226949   5.608   1.736  11.017  1.1751 -0.7802  1.4678
 1820TIP3   OH226950   6.605   2.813   5.443 -0.2161 -0.1146  0.1022
 1820TIP3    H126951   6.609   2.840   5.535  0.0281  1.1935 -0.2647
 1820TIP3    H226952   6.683   2.759   5.430 -0.4925 -0.6789  0.7735
 1821TIP3   OH226953   1.853   4.854  11.302 -0.3311  0.6199  0.0864
 1821TIP3    H126954   1.837   4.761  11.288 -2.7713  0.9557  0.1133
 1821TIP3    H226955   1.870   4.889  11.214  1.1274  0.0999  0.1389
 1822TIP3   OH226956   0.462   3.975   3.749 -0.1132  0.4606 -0.0038
 1822TIP3    H126957   0.416   3.974   3.833 -0.1069  1.4339  0.0257
 1822TIP3    H226958   0.553   3.993   3.773 -0.1784  1.1166 -0.2427
 1823TIP3   OH226959   3.882   1.658   1.793 -0.6542 -0.7683 -0.4636
 1823TIP3    H126960   3.934   1.595   1.742  0.9644  0.1351 -0.0002
 1823TIP3    H226961   3.918   1.653   1.881 -1.4627 -0.2012 -0.0878
 1824TIP3   OH226962   5.129   4.389  14.069 -0.0887 -0.2441 -0.2367
 1824TIP3    H126963   5.101   4.381  14.160  0.6404  0.4999  0.0555
 1824TIP3    H226964   5.211   4.339  14.064 -0.0990 -0.2419 -0.4729
 1825TIP3   OH226965   2.865   2.319  13.583  0.0879 -0.1833  0.3455
 1825TIP3    H126966   2.810   2.273  13.520 -0.5811  0.1714  0.6538
 1825TIP3    H226967   2.803   2.360  13.644  0.7161 -0.7779  1.4293
 1826TIP3   OH226968   1.577   3.952   2.241 -0.4699 -1.1621 -0.1559
 1826TIP3    H126969   1.594   3.871   2.194  0.4042 -0.5449 -0.9527
 1826TIP3    H226970   1.652   4.008   2.221 -1.0595 -0.1447  0.3524
 1827TIP3   OH226971   5.502   2.471  14.446  0.6158 -0.9774  0.4449
 1827TIP3    H126972   5.431   2.470  14.382  0.3019  0.5647  0.7331
 1827TIP3    H226973   5.468   2.423  14.521 -1.4450  2.2941  1.8335
 1828TIP3   OH226974   0.636   5.244   5.897 -0.1842  0.3162  0.5121
 1828TIP3    H126975   0.580   5.303   5.847 -0.3363  0.0934  0.4201
 1828TIP3    H226976   0.706   5.300   5.931 -0.0227  0.4450 -0.0334
 1829TIP3   OH226977   4.223   2.539   5.601 -0.4010 -0.5415  0.3438
 1829TIP3    H126978   4.174   2.471   5.649  1.7477 -1.9640  0.6511
 1829TIP3    H226979   4.262   2.493   5.528  1.3395  0.2925  0.7076
 1830TIP3   OH226980   3.510   4.760   2.073  0.1050  0.4051 -0.0326
 1830TIP3    H126981   3.505   4.792   1.983 -1.6430  1.1239  0.2704
 1830TIP3    H226982   3.442   4.810   2.120  2.7583  2.0830  2.3469
 1831TIP3   OH226983   1.806   5.754  14.299 -0.1928  0.0815 -0.0816
 1831TIP3    H126984   1.771   5.690  14.236 -0.0590  1.3292 -1.4998
 1831TIP3    H226985   1.783   5.719  14.385 -0.4162 -1.6812 -0.8228
 1832TIP3   OH226986   2.305   6.110   1.240  0.7005 -0.2484  0.2539
 1832TIP3    H126987   2.267   6.043   1.296  1.7727 -1.3711 -0.3293
 1832TIP3    H226988   2.294   6.076   1.151  1.9051  0.0069 -0.0026
 1833TIP3   OH226989   0.986   0.269  13.575  0.3500  0.4810  0.4917
 1833TIP3    H126990   0.947   0.186  13.547 -0.7317  0.7921  1.0075
 1833TIP3    H226991   0.962   0.331  13.507  0.8542  0.4516  0.2848
 1834TIP3   OH226992   5.939   1.859  16.794 -0.5648 -0.0191  0.5403
 1834TIP3    H126993   5.959   1.953  16.791 -1.4317  0.1725  0.4338
 1834TIP3    H226994   5.983   1.828  16.873  0.1078  0.3792  0.3370
 1835TIP3   OH226995   2.993   1.294  11.960  0.2152  0.1981 -0.2475
 1835TIP3    H126996   3.045   1.289  12.040  0.4480 -0.6519 -0.4401
 1835TIP3    H226997   3.058   1.308  11.891 -0.1784  4.1161 -0.0393
 1836TIP3   OH226998   1.747   6.802  15.286 -0.4691 -0.0025 -0.1458
 1836TIP3    H126999   1.748   6.860  15.210 -0.6774  2.1545  1.3872
 1836TIP3    H227000   1.658   6.808  15.320  0.3408  1.5306  1.9452
 1837TIP3   OH227001   2.914   5.186  11.057 -0.0669  0.4179  0.2966
 1837TIP3    H127002   2.890   5.262  11.109 -0.2555  0.8260 -0.3778
 1837TIP3    H227003   2.941   5.120  11.121 -1.3068  0.5429  0.9739
 1838TIP3   OH227004   6.134   6.161   4.685  0.3028 -0.1813  0.5563
 1838TIP3    H127005   6.118   6.068   4.702  2.5342 -0.9647 -1.0832
 1838TIP3    H227006   6.092   6.206   4.758 -1.4451 -2.4053  1.0535
 1839TIP3   OH227007   6.273   6.016  11.620 -0.6494  0.5419  0.1013
 1839TIP3    H127008   6.245   5.935  11.577  1.2860  0.1953 -0.6202
 1839TIP3    H227009   6.367   6.004  11.634 -0.7175  1.7872  1.9781
 1840TIP3   OH227010   1.909   5.233   3.717  0.1830  0.6376  0.0803
 1840TIP3    H127011   1.887   5.227   3.624  0.8653  0.5506 -0.0855
 1840TIP3    H227012   1.998   5.268   3.718  0.1068  0.8255  0.7101
 1841TIP3   OH227013   0.085   3.753  15.200  0.0047  0.1151  0.3422
 1841TIP3    H127014   0.081   3.814  15.273 -0.5274  0.9455 -0.3678
 1841TIP3    H227015   0.020   3.784  15.138  1.4502  0.3156 -1.1566
 1842TIP3   OH227016   5.936   3.920   0.692  0.0953 -0.8343 -0.6526
 1842TIP3    H127017   5.985   3.976   0.752 -0.4266  0.4913 -1.4081
 1842TIP3    H227018   5.962   3.950   0.605 -0.8096 -1.2157 -1.0721
 1843TIP3   OH227019   3.383   3.037   0.146 -0.1500 -0.0186  0.0704
 1843TIP3    H127020   3.300   3.046   0.194 -0.9904  0.6528 -1.4476
 1843TIP3    H227021   3.450   3.051   0.213 -1.2116 -1.1838  1.4814
 1844TIP3   OH227022   6.352   0.337  14.704 -0.2060 -0.3831  0.0393
 1844TIP3    H127023   6.301   0.416  14.722  1.1150  0.6402 -0.5257
 1844TIP3    H227024   6.422   0.338  14.769 -0.8248 -1.7397  0.7753
 1845TIP3   OH227025   2.953   0.587   2.028  0.4743 -0.1213 -0.8162
 1845TIP3    H127026   2.938   0.533   2.105 -1.2502  2.2084  0.6067
 1845TIP3    H227027   3.037   0.630   2.044 -0.0636  0.6587  0.0063
 1846TIP3   OH227028   0.644   0.980   5.607 -0.2256  0.1027  0.5150
 1846TIP3    H127029   0.570   1.025   5.567  0.7264  1.9708  0.7389
 1846TIP3    H227030   0.716   1.042   5.600  2.1313 -2.6277 -2.1870
 1847TIP3   OH227031   1.740   2.711   5.770  0.0214  0.0348 -0.0240
 1847TIP3    H127032   1.807   2.642   5.774 -1.4140 -1.7082 -2.8331
 1847TIP3    H227033   1.658   2.666   5.788 -0.9273  1.0149 -1.6707
 1848TIP3   OH227034   0.599   1.836   0.117  0.0607 -0.3579 -0.0146
 1848TIP3    H127035   0.623   1.885   0.195  1.3696 -1.0258  0.0216
 1848TIP3    H227036   0.677   1.840   0.061  0.2949 -2.5546  0.0804
 1849TIP3   OH227037   4.549   1.894  15.896  0.5071 -0.0836 -0.2963
 1849TIP3    H127038   4.620   1.924  15.839  0.8907 -0.0396  0.1861
 1849TIP3    H227039   4.493   1.971  15.908  1.0690  0.2424  0.3211
 1850TIP3   OH227040   0.988   0.216  10.155  0.4467  0.0798 -0.8879
 1850TIP3    H127041   1.069   0.267  10.149 -0.3275  1.3248 -1.0753
 1850TIP3    H227042   1.017   0.125  10.156  1.7872  0.4621 -2.1604
 1851TIP3   OH227043   2.782   1.380  16.167 -0.1171 -0.0361  0.0622
 1851TIP3    H127044   2.707   1.420  16.124  0.8232  3.1432  1.1391
 1851TIP3    H227045   2.838   1.350  16.094 -0.1709  2.0688 -0.9315
 1852TIP3   OH227046   5.263   0.602  12.407 -0.4881  0.2677  0.5950
 1852TIP3    H127047   5.286   0.558  12.325 -2.0481 -2.1557  1.3612
 1852TIP3    H227048   5.244   0.693  12.381 -2.3933 -0.7614 -2.0363
 1853TIP3   OH227049   1.832   4.110  15.541 -0.3334  0.5774 -0.2949
 1853TIP3    H127050   1.848   4.029  15.591  0.1728  0.9499  0.1624
 1853TIP3    H227051   1.801   4.173  15.606  1.3950  1.4007 -0.2166
 1854TIP3   OH227052   4.164   2.786   3.059 -0.0759 -0.0028  0.4280
 1854TIP3    H127053   4.157   2.845   2.983 -1.5262  0.0742  0.5995
 1854TIP3    H227054   4.238   2.821   3.109 -0.4614  1.2784  0.1594
 1855TIP3   OH227055   6.162   3.303  15.065 -0.4829 -0.0412  0.8614
 1855TIP3    H127056   6.170   3.347  14.981 -0.0081 -1.0954  0.3332
 1855TIP3    H227057   6.252   3.299  15.098 -0.3810 -1.3990  0.4711
 1856TIP3   OH227058   3.212   5.708   3.876 -0.0509  0.3166 -0.1694
 1856TIP3    H127059   3.140   5.672   3.928  0.2972  1.8856  1.5042
 1856TIP3    H227060   3.193   5.801   3.869  1.1826  0.5478 -0.7697
 1857TIP3   OH227061   4.887   1.883   4.048 -0.3962  0.5013  0.5767
 1857TIP3    H127062   4.840   1.839   4.118 -1.3439  2.3142  1.1605
 1857TIP3    H227063   4.958   1.929   4.092  1.6340 -1.6985 -0.2258
 1858TIP3   OH227064   4.473   0.717  16.219 -0.3975 -0.3712 -0.4631
 1858TIP3    H127065   4.552   0.734  16.168  0.3815 -0.8685  0.5542
 1858TIP3    H227066   4.403   0.714  16.154  0.4515 -0.1975 -1.4092
 1859TIP3   OH227067   5.255   0.963   5.764 -0.3032 -0.1204 -0.6154
 1859TIP3    H127068   5.315   0.897   5.731 -0.5972 -0.2415 -0.9133
 1859TIP3    H227069   5.311   1.031   5.802  0.0694  0.3660 -1.9959
 1860TIP3   OH227070   2.155   3.179  15.156 -0.7571  0.4589  0.4813
 1860TIP3    H127071   2.091   3.115  15.124 -1.3311  1.3383 -0.1815
 1860TIP3    H227072   2.238   3.133  15.154 -1.3642 -0.7751  1.5242
 1861TIP3   OH227073   5.306   3.679   3.454  0.4722  0.0772 -0.1256
 1861TIP3    H127074   5.372   3.642   3.396  0.4232  0.5477 -0.4943
 1861TIP3    H227075   5.225   3.676   3.403 -0.1100 -1.7731  0.8230
 1862TIP3   OH227076   2.995   2.376  12.320  0.4683  0.2024 -0.1288
 1862TIP3    H127077   3.072   2.332  12.356  1.0862  2.3351  1.3607
 1862TIP3    H227078   3.026   2.464  12.299 -0.9144  0.2507 -2.1756
 1863TIP3   OH227079   5.151   4.660  14.068  0.1977 -0.9438  0.4496
 1863TIP3    H127080   5.199   4.619  14.140  0.8374  0.8254  1.0752
 1863TIP3    H227081   5.123   4.587  14.013  3.3374 -2.1012  0.2271
 1864TIP3   OH227082   4.396   2.822  16.832 -0.3279 -0.0669  0.3688
 1864TIP3    H127083   4.356   2.908  16.847  0.8030  0.6451 -0.4551
 1864TIP3    H227084   4.410   2.818  16.738  2.1445  0.0736  0.6448
 1865TIP3   OH227085   1.099   1.023  11.125  0.0024  0.3148 -0.3479
 1865TIP3    H127086   1.125   1.067  11.044 -1.3433 -0.7873 -1.4370
 1865TIP3    H227087   1.008   0.996  11.108 -0.1857 -0.2321  1.4138
 1866TIP3   OH227088   3.452   4.622  15.287  0.5566  0.1284  0.2069
 1866TIP3    H127089   3.517   4.611  15.218  2.5488 -0.0201  2.0030
 1866TIP3    H227090   3.432   4.716  15.286  2.3887  0.5703  0.9281
 1867TIP3   OH227091   6.259   6.750   5.304 -0.5660 -0.0281 -0.2490
 1867TIP3    H127092   6.322   6.689   5.342  0.1977 -0.0940 -1.5691
 1867TIP3    H227093   6.175   6.705   5.311 -0.1172 -0.9371 -0.5495
 1868TIP3   OH227094   1.679   6.300  10.515 -0.2141  0.1989  0.8772
 1868TIP3    H127095   1.653   6.211  10.494  1.3900 -0.6964  2.4089
 1868TIP3    H227096   1.733   6.327  10.441 -1.5920  0.3621 -0.1166
 1869TIP3   OH227097   6.334   3.399   3.587  0.5261  0.4535 -0.2889
 1869TIP3    H127098   6.348   3.324   3.646 -0.2219  0.2080 -0.4141
 1869TIP3    H227099   6.246   3.386   3.552  0.6426  1.0453 -0.8245
 1870TIP3   OH227100   5.680   3.978   1.361  0.2262 -0.8289 -0.7946
 1870TIP3    H127101   5.725   4.002   1.441 -1.1822  2.0959 -0.7626
 1870TIP3    H227102   5.686   4.055   1.305 -2.5519 -1.1818 -1.7395
 1871TIP3   OH227103   4.995   5.792   1.643  0.2312  0.6845  0.2611
 1871TIP3    H127104   4.930   5.838   1.696  0.2290  2.6380 -1.3062
 1871TIP3    H227105   4.951   5.712   1.614 -1.0081  1.3299  0.3081
 1872TIP3   OH227106   2.534   0.376  11.639  0.1709 -0.4466  0.2976
 1872TIP3    H127107   2.495   0.317  11.575  1.0505  0.2929 -0.9718
 1872TIP3    H227108   2.495   0.351  11.723 -0.2795 -2.0921 -0.3716
 1873TIP3   OH227109   3.584   4.829   1.154  0.1179 -0.2309 -0.5149
 1873TIP3    H127110   3.657   4.885   1.130  1.2980 -1.9891 -1.2277
 1873TIP3    H227111   3.612   4.788   1.236 -0.8312  0.3541  0.1229
 1874TIP3   OH227112   1.825   1.140   0.848  0.0118  0.4625  0.0123
 1874TIP3    H127113   1.917   1.114   0.852 -0.4880 -1.8199 -1.5195
 1874TIP3    H227114   1.782   1.083   0.913 -0.2348  2.2255  1.4688
 1875TIP3   OH227115   6.577   2.892  14.723 -0.6042 -0.3381 -0.1833
 1875TIP3    H127116   6.551   2.978  14.688 -0.1171  0.8127  2.1149
 1875TIP3    H227117   6.495   2.846  14.737 -1.0801  0.8007  0.9980
 1876TIP3   OH227118   2.294   2.323  12.614 -0.4979 -0.1492  0.6419
 1876TIP3    H127119   2.378   2.360  12.584 -1.9038  0.7456 -2.5567
 1876TIP3    H227120   2.261   2.389  12.676  0.5364  0.1475  0.9039
 1877TIP3   OH227121   0.473   0.870  14.099  0.3873 -0.0995 -0.0710
 1877TIP3    H127122   0.547   0.914  14.140 -0.0409  0.0394  0.5873
 1877TIP3    H227123   0.440   0.811  14.167  0.4719 -0.8558 -0.6743
 1878TIP3   OH227124   2.884   2.661  16.497 -0.4269 -0.4730  0.2875
 1878TIP3    H127125   2.817   2.625  16.554 -1.1143  0.4525  0.0875
 1878TIP3    H227126   2.835   2.699  16.423  0.1506  1.6775  0.9303
 1879TIP3   OH227127   6.190   5.628   3.834 -0.3144  0.2157  0.5807
 1879TIP3    H127128   6.209   5.694   3.901  1.0025 -0.1509  0.5980
 1879TIP3    H227129   6.236   5.550   3.865  0.2145  0.0072 -0.6772
 1880TIP3   OH227130   2.130   2.270  14.645  0.0382  0.0955 -0.3254
 1880TIP3    H127131   2.211   2.221  14.632 -1.5194 -2.2932 -1.6068
 1880TIP3    H227132   2.106   2.252  14.736  0.2703 -0.3086 -0.3411
 1881TIP3   OH227133   5.694   6.140  10.170 -0.3093 -0.3914 -0.2859
 1881TIP3    H127134   5.732   6.228  10.176 -1.6875  0.3264 -1.4695
 1881TIP3    H227135   5.757   6.083  10.214  0.1986  1.3121  1.3074
 1882TIP3   OH227136   1.248   1.431  13.466  0.2223  0.4381 -0.3959
 1882TIP3    H127137   1.293   1.407  13.547  0.7401 -0.7749 -1.0168
 1882TIP3    H227138   1.319   1.437  13.401 -0.3352  0.0573 -1.0513
 1883TIP3   OH227139   6.741   1.069  14.697  0.1772 -0.4282  0.1749
 1883TIP3    H127140   6.748   1.124  14.775 -0.7044 -0.4650  0.2916
 1883TIP3    H227141   6.797   0.994  14.715  0.6002 -0.0511  0.4386
 1884TIP3   OH227142   5.377   4.130  14.616 -0.2911  0.4074 -0.3987
 1884TIP3    H127143   5.415   4.201  14.566  2.5728 -0.2130  0.7352
 1884TIP3    H227144   5.441   4.110  14.684 -2.4824 -1.0504  1.4256
 1885TIP3   OH227145   5.786   6.816  16.766  0.3049  0.6658 -0.3802
 1885TIP3    H127146   5.843   6.799  16.841 -1.8807 -0.2347  1.2155
 1885TIP3    H227147   5.710   6.861  16.804 -0.4483  1.0617 -2.2487
 1886TIP3   OH227148   1.461   2.183  12.757 -0.2092 -0.2388  0.3106
 1886TIP3    H127149   1.388   2.237  12.728  0.3368  2.4487  3.3238
 1886TIP3    H227150   1.427   2.094  12.757 -1.8825  0.2453 -2.8098
 1887TIP3   OH227151   0.999   4.386   4.465  0.1075  0.6331 -0.2058
 1887TIP3    H127152   1.081   4.374   4.418 -0.4120 -2.1427 -0.5569
 1887TIP3    H227153   0.939   4.422   4.399  0.4919  0.7656 -0.4863
 1888TIP3   OH227154   6.828   6.443   2.735  0.2505 -0.1654 -0.1950
 1888TIP3    H127155   6.746   6.411   2.772  0.1737  1.0812  0.7871
 1888TIP3    H227156   6.889   6.443   2.809  0.7687  0.1371 -0.6154
 1889TIP3   OH227157   6.377   2.389  11.472 -0.1481  0.0149 -0.2882
 1889TIP3    H127158   6.370   2.362  11.380 -0.5478 -1.4842  0.1456
 1889TIP3    H227159   6.297   2.355  11.513  0.1866  0.3608  0.6853
 1890TIP3   OH227160   2.195   0.421  11.066  0.1228  0.1433  0.1391
 1890TIP3    H127161   2.163   0.511  11.059  0.1778  0.1714  0.2478
 1890TIP3    H227162   2.157   0.376  10.991  0.3677  0.3391 -0.1017
 1891TIP3   OH227163   3.856   5.204   2.893  0.4418  0.2608 -0.5887
 1891TIP3    H127164   3.782   5.223   2.836 -0.6301 -0.7351  0.4235
 1891TIP3    H227165   3.871   5.285   2.941  0.6765  0.7741 -1.4971
 1892TIP3   OH227166   5.891   3.992   1.976 -0.1384  0.0332  0.4164
 1892TIP3    H127167   5.894   4.059   1.907  0.8906 -0.9628 -0.5459
 1892TIP3    H227168   5.798   3.981   1.993 -0.3866  0.7783 -0.3424
 1893TIP3   OH227169   3.596   3.527  14.485  0.7500 -0.4116  0.0395
 1893TIP3    H127170   3.571   3.608  14.530  1.1450  0.1057 -0.6442
 1893TIP3    H227171   3.527   3.515  14.419  0.2969 -1.0400  0.6153
 1894TIP3   OH227172   5.982   4.314   2.966  0.0592 -0.0897  0.5319
 1894TIP3    H127173   5.945   4.316   3.054  0.8905 -2.2461  0.9967
 1894TIP3    H227174   5.906   4.311   2.908 -0.5165 -0.8518  1.2963
 1895TIP3   OH227175   2.240   1.590   3.603  0.0623 -0.6360  0.2944
 1895TIP3    H127176   2.177   1.660   3.587  2.4516  1.6700  0.2275
 1895TIP3    H227177   2.263   1.599   3.696  1.3669 -0.4433 -0.0344
 1896TIP3   OH227178   1.422   1.554  13.139 -0.3093  0.1192 -0.7362
 1896TIP3    H127179   1.368   1.486  13.098 -1.1536 -0.5904  1.4528
 1896TIP3    H227180   1.448   1.517  13.223  2.6831  0.9135 -1.1947
 1897TIP3   OH227181   6.612   3.906  14.639 -0.3837  0.4172 -0.2584
 1897TIP3    H127182   6.541   3.954  14.596  0.5111  0.2871 -1.9394
 1897TIP3    H227183   6.692   3.950  14.611  0.3011 -0.3470  0.4398
 1898TIP3   OH227184   0.895   4.049   4.262 -0.4189 -0.2591 -0.0734
 1898TIP3    H127185   0.941   3.965   4.263  0.1679  0.0287 -0.9074
 1898TIP3    H227186   0.885   4.073   4.354 -2.7228 -2.3542  0.3027
 1899TIP3   OH227187   0.369   2.294   1.962 -0.1325  0.0861 -0.2153
 1899TIP3    H127188   0.393   2.371   1.911  0.8105 -0.8251 -1.2031
 1899TIP3    H227189   0.400   2.313   2.050 -0.6356  1.1538 -0.2456
 1900TIP3   OH227190   1.967   5.745   1.516 -0.3160  0.1510 -0.2267
 1900TIP3    H127191   1.905   5.769   1.585 -2.1354 -1.8677 -1.0340
 1900TIP3    H227192   1.989   5.654   1.535 -0.8520 -0.4516 -2.2621
 1901TIP3   OH227193   5.089   3.650   6.333  0.4279  0.7931 -0.2767
 1901TIP3    H127194   5.016   3.588   6.334  1.2649 -0.3781 -2.8540
 1901TIP3    H227195   5.159   3.605   6.380  0.6728  0.2291 -1.1570
 1902TIP3   OH227196   0.138   2.501   6.009  0.8293  0.0247  0.3266
 1902TIP3    H127197   0.108   2.418   6.045 -0.1205 -0.2382 -0.9913
 1902TIP3    H227198   0.061   2.558   6.011  1.4281  0.8349  1.0725
 1903TIP3   OH227199   0.594   0.242  12.751 -0.2272 -0.0325  0.3481
 1903TIP3    H127200   0.635   0.156  12.739  0.1248  0.2367 -0.4153
 1903TIP3    H227201   0.599   0.283  12.665 -1.7572  0.1588  0.3203
 1904TIP3   OH227202   3.203   1.361  13.049  0.0971 -0.0415  0.1208
 1904TIP3    H127203   3.185   1.443  13.096 -0.1394  0.4300 -0.7809
 1904TIP3    H227204   3.299   1.359  13.041  0.0385  0.9230 -1.1801
 1905TIP3   OH227205   5.750   6.209  15.638 -0.2929  0.1364  0.7160
 1905TIP3    H127206   5.832   6.256  15.649 -0.1285 -0.1897  0.8941
 1905TIP3    H227207   5.736   6.205  15.544  0.2037 -0.3368  0.6620
 1906TIP3   OH227208   5.849   1.200   3.395 -0.2466 -0.2741 -0.0251
 1906TIP3    H127209   5.944   1.211   3.404 -0.5334  0.8556  2.0076
 1906TIP3    H227210   5.826   1.255   3.320  0.6071 -0.0592 -0.1433
 1907TIP3   OH227211   1.543   2.215   1.541 -0.6970 -0.7660 -0.1768
 1907TIP3    H127212   1.529   2.256   1.627 -0.6729 -1.2196  0.0462
 1907TIP3    H227213   1.575   2.127   1.561 -0.7826 -0.9090 -0.6490
 1908TIP3   OH227214   0.388   4.890  11.575 -0.5951 -0.8349  0.6122
 1908TIP3    H127215   0.479   4.878  11.546 -1.0455 -0.5768 -0.9725
 1908TIP3    H227216   0.367   4.808  11.620  0.3494 -0.9799  0.8125
 1909TIP3   OH227217   4.037   6.397  15.283 -0.1212  0.0750  0.5039
 1909TIP3    H127218   4.106   6.364  15.226  0.6690  1.9936  0.2558
 1909TIP3    H227219   4.067   6.377  15.372  0.4869  0.3835  0.3755
 1910TIP3   OH227220   1.200   3.065  14.614  0.6284 -0.1177 -0.4652
 1910TIP3    H127221   1.220   2.987  14.666 -0.7539  0.2314  0.6370
 1910TIP3    H227222   1.177   3.031  14.528 -1.8820 -1.1557  0.5206
 1911TIP3   OH227223   2.606   3.477   1.311  0.2237  0.2813  0.0024
 1911TIP3    H127224   2.681   3.476   1.371  0.4631  2.7877 -0.1376
 1911TIP3    H227225   2.638   3.432   1.233  0.6537 -1.0467  0.8918
 1912TIP3   OH227226   0.675   2.739   1.962  0.9019 -0.3600  0.2321
 1912TIP3    H127227   0.641   2.653   1.986 -1.1779  0.3075 -0.1871
 1912TIP3    H227228   0.656   2.747   1.868  0.9304  0.6201  0.3054
 1913TIP3   OH227229   1.875   5.344  14.019 -0.4768  0.3751  0.0588
 1913TIP3    H127230   1.819   5.268  14.031 -0.0679  0.2008  0.9929
 1913TIP3    H227231   1.952   5.310  13.972  0.2739 -0.0884  1.5495
 1914TIP3   OH227232   1.049   3.331  13.333 -0.6111  0.7275  0.3568
 1914TIP3    H127233   1.036   3.240  13.306  0.8125  1.1740 -2.2047
 1914TIP3    H227234   1.084   3.325  13.422 -0.7495 -1.2118  0.3188
 1915TIP3   OH227235   4.475   1.210  15.808  0.0047 -0.3597  0.4188
 1915TIP3    H127236   4.534   1.237  15.737  0.2108 -0.5831  0.5028
 1915TIP3    H227237   4.506   1.258  15.885 -1.8040  1.8765 -0.1710
 1916TIP3   OH227238   4.551   1.102   3.648  0.4415  0.2602 -0.9511
 1916TIP3    H127239   4.624   1.083   3.589 -1.0912 -0.6232 -2.6797
 1916TIP3    H227240   4.536   1.196   3.638  1.8458  0.6391  0.1115
 1917TIP3   OH227241   6.181   5.550  14.576  0.2507  0.4908  0.0376
 1917TIP3    H127242   6.230   5.583  14.652  1.8982  0.4899 -0.9755
 1917TIP3    H227243   6.245   5.498  14.528 -1.1803 -0.7364 -0.5895
 1918TIP3   OH227244   6.458   2.173   0.858 -0.0259  0.3997 -1.0225
 1918TIP3    H127245   6.394   2.233   0.896  1.3772  1.9485 -1.0345
 1918TIP3    H227246   6.526   2.229   0.821  2.9522 -1.1214  1.6581
 1919TIP3   OH227247   2.040   6.648   4.671  0.6353  0.3795  0.1705
 1919TIP3    H127248   2.105   6.716   4.659  0.4062  0.7726  1.1019
 1919TIP3    H227249   1.957   6.695   4.683  0.4257 -0.0654  0.5185
 1920TIP3   OH227250   1.548   3.648   1.008 -0.0418  0.0406 -0.5252
 1920TIP3    H127251   1.540   3.553   0.999 -1.8545 -0.1806  2.2757
 1920TIP3    H227252   1.524   3.683   0.922 -2.0125 -1.9553 -0.8646
 1921TIP3   OH227253   4.400   1.069   4.614 -0.4934  0.8139  0.0051
 1921TIP3    H127254   4.346   1.076   4.535  1.9009  2.4307 -1.6103
 1921TIP3    H227255   4.408   1.159   4.646 -0.6016  0.3004  1.5322
 1922TIP3   OH227256   2.986   0.504   5.857 -0.0328 -0.3099 -0.5247
 1922TIP3    H127257   3.014   0.540   5.941 -2.6866  0.5379  0.0768
 1922TIP3    H227258   2.970   0.580   5.802 -0.7081 -0.7561 -0.9588
 1923TIP3   OH227259   6.198   0.966   2.254 -0.6246 -0.3175 -0.1861
 1923TIP3    H127260   6.126   0.961   2.191 -2.3575 -0.6644  1.7005
 1923TIP3    H227261   6.179   1.044   2.306 -1.2859 -1.9494  2.1572
 1924TIP3   OH227262   1.911   6.292   4.180 -0.3335 -0.1236  0.1860
 1924TIP3    H127263   2.005   6.306   4.196 -0.4749  1.4592 -0.1522
 1924TIP3    H227264   1.872   6.296   4.267 -0.2679  1.0893  0.1866
 1925TIP3   OH227265   2.051   6.264   3.753 -0.1976 -0.2352  0.4504
 1925TIP3    H127266   2.078   6.205   3.682  0.2545 -0.3125  0.6836
 1925TIP3    H227267   1.989   6.212   3.804  1.3159 -1.0618  1.5187
 1926TIP3   OH227268   2.568   3.744  14.632 -0.0401  0.2385  0.4715
 1926TIP3    H127269   2.493   3.693  14.600  0.4750 -0.1216 -0.1848
 1926TIP3    H227270   2.637   3.680  14.644  0.4053  0.6852  0.3213
 1927TIP3   OH227271   1.081   4.732  12.308  0.0420  0.5337  0.5223
 1927TIP3    H127272   1.157   4.768  12.354 -0.4622  1.3573  0.7241
 1927TIP3    H227273   1.006   4.781  12.342 -0.4552  0.4772 -0.4594
 1928TIP3   OH227274   1.667   3.100  11.204 -0.5654 -0.6365  0.1805
 1928TIP3    H127275   1.751   3.056  11.220 -0.0776 -0.4472 -1.6468
 1928TIP3    H227276   1.604   3.028  11.202 -0.3169 -0.8780  0.6952
 1929TIP3   OH227277   5.954   4.137   4.346  0.0959 -0.1076  0.5645
 1929TIP3    H127278   5.927   4.192   4.420  0.5575 -0.5793  1.0874
 1929TIP3    H227279   5.878   4.137   4.289 -0.9001 -1.0981  1.8353
 1930TIP3   OH227280   5.762   6.649   4.618 -0.2389 -0.2869 -0.2592
 1930TIP3    H127281   5.754   6.554   4.607 -1.2528  0.0338 -3.5520
 1930TIP3    H227282   5.676   6.677   4.649 -0.0659 -0.3840  0.3192
 1931TIP3   OH227283   6.596   1.077   0.729  0.4115 -0.5919  0.2100
 1931TIP3    H127284   6.673   1.133   0.724  1.2504 -1.5481  1.5911
 1931TIP3    H227285   6.599   1.025   0.649  0.5609  0.1497 -0.2749
 1932TIP3   OH227286   1.491   3.933  16.175 -0.2548  0.2325  0.1297
 1932TIP3    H127287   1.522   4.010  16.223  3.0531  0.0229 -1.3810
 1932TIP3    H227288   1.399   3.950  16.158 -0.0452  3.0428  1.3215
 1933TIP3   OH227289   1.076   0.677  13.446 -0.9674  0.1156 -0.1909
 1933TIP3    H127290   1.138   0.749  13.431 -2.1148  1.3241  0.6263
 1933TIP3    H227291   0.990   0.717  13.435 -1.6368 -1.3321 -0.4652
 1934TIP3   OH227292   1.131   5.642  15.265 -0.1018 -0.0538 -0.4691
 1934TIP3    H127293   1.071   5.610  15.332  0.5521 -0.0462  0.1298
 1934TIP3    H227294   1.201   5.576  15.261 -0.8241 -0.7820 -2.1364
 1935TIP3   OH227295   3.013   5.995  16.795 -0.3928 -0.6141 -0.2012
 1935TIP3    H127296   3.004   5.995  16.699  0.4984  1.7845 -0.3569
 1935TIP3    H227297   2.940   6.048  16.826 -0.0521 -0.4655  0.3586
 1936TIP3   OH227298   1.025   3.173   0.823  0.2415 -0.3681 -0.0357
 1936TIP3    H127299   0.961   3.229   0.868  0.5378  0.0149 -0.0926
 1936TIP3    H227300   1.005   3.085   0.855 -1.9167 -0.6224 -1.8905
 1937TIP3   OH227301   4.569   0.011  16.376  0.0813  0.3396  0.5150
 1937TIP3    H127302   4.602   0.019  16.466 -1.7568 -1.1067  1.3730
 1937TIP3    H227303   4.477  -0.010  16.386  0.0946 -1.0316 -1.7047
 1938TIP3   OH227304   1.916   6.637  11.176 -0.5360  0.0934  0.7324
 1938TIP3    H127305   1.892   6.601  11.091 -1.6781  0.5255  0.8500
 1938TIP3    H227306   1.944   6.727  11.158 -2.3407  0.7378  0.9665
 1939TIP3   OH227307   1.184   0.430   3.948  0.3932 -0.3028 -0.0297
 1939TIP3    H127308   1.275   0.410   3.926  0.1345 -2.4444  0.6318
 1939TIP3    H227309   1.136   0.411   3.867  0.3419 -0.9097  0.1356
 1940TIP3   OH227310   3.163   4.353   4.948 -0.0834  0.5260 -0.0124
 1940TIP3    H127311   3.165   4.390   5.036 -0.4065 -0.2410  0.3298
 1940TIP3    H227312   3.252   4.321   4.933  0.0257  0.8407 -0.0531
 1941TIP3   OH227313   0.711   0.912  11.938  0.5358  0.8244 -0.0502
 1941TIP3    H127314   0.705   0.895  11.844  2.4254  0.2328 -0.1102
 1941TIP3    H227315   0.785   0.857  11.968 -0.6040  0.2656  1.9618
 1942TIP3   OH227316   3.439   5.933   5.901  0.2829 -0.3461 -0.2441
 1942TIP3    H127317   3.511   5.871   5.896  1.1924  0.7090 -0.6014
 1942TIP3    H227318   3.372   5.888   5.953 -0.0503 -2.5414 -2.4266
 1943TIP3   OH227319   6.134   0.173  12.663 -0.4880  0.0878  0.5662
 1943TIP3    H127320   6.198   0.105  12.641 -1.1691 -0.6701  0.8781
 1943TIP3    H227321   6.055   0.147  12.617 -0.8647  0.4620  1.0001
 1944TIP3   OH227322   5.667   3.971  11.027 -0.0769 -0.1115 -0.3574
 1944TIP3    H127323   5.598   4.019  10.981  0.5653 -1.1550 -2.5578
 1944TIP3    H227324   5.699   3.908  10.962  2.6057 -0.0073  0.7432
 1945TIP3   OH227325   5.545   6.694   0.476 -0.0170 -0.1336 -0.0876
 1945TIP3    H127326   5.608   6.761   0.502 -0.1379 -0.5082  1.2501
 1945TIP3    H227327   5.596   6.633   0.422  0.0949  0.9906 -1.3026
 1946TIP3   OH227328   6.134   0.799  13.963  0.5057  0.0448 -0.1377
 1946TIP3    H127329   6.191   0.725  13.983  0.6502  0.2184  0.0960
 1946TIP3    H227330   6.070   0.764  13.901  0.9087 -0.1340 -0.4557
 1947TIP3   OH227331   4.639   1.764  16.127 -0.0655 -0.6461  0.2953
 1947TIP3    H127332   4.718   1.810  16.153  1.2122 -2.8903  0.6644
 1947TIP3    H227333   4.610   1.808  16.047  2.4136 -0.6780 -0.6905
 1948TIP3   OH227334   1.803   6.717  13.303 -0.0525  0.5050  0.0068
 1948TIP3    H127335   1.738   6.768  13.353 -0.3156 -0.0951  0.2938
 1948TIP3    H227336   1.756   6.637  13.279  0.2644  0.5284 -0.6946
 1949TIP3   OH227337   5.475   2.423  11.033  0.3453 -0.3827 -0.0440
 1949TIP3    H127338   5.528   2.348  11.008  0.8431 -0.3074  0.7474
 1949TIP3    H227339   5.385   2.391  11.029  0.5660 -1.1153  0.5825
 1950TIP3   OH227340   5.951   1.728   0.892  0.3069  0.5724 -0.2143
 1950TIP3    H127341   5.949   1.801   0.829  2.6190  0.3097 -0.6873
 1950TIP3    H227342   5.923   1.652   0.842 -3.9978  1.2766  0.7412
 1951TIP3   OH227343   0.501   4.174  13.488 -0.0377 -0.0750  0.2269
 1951TIP3    H127344   0.513   4.261  13.526 -0.1557 -0.1776  0.5044
 1951TIP3    H227345   0.582   4.157  13.441 -0.4419  0.6448 -0.7710
 1952TIP3   OH227346   2.699   2.794   0.970  0.8739 -0.3284  0.0926
 1952TIP3    H127347   2.691   2.848   0.891  0.2996 -1.0703 -0.3707
 1952TIP3    H227348   2.658   2.847   1.039  0.3054 -0.1698 -0.3572
 1953TIP3   OH227349   0.643   1.276   0.281  0.0611 -0.1856 -0.1775
 1953TIP3    H127350   0.697   1.260   0.203 -0.0457  0.7220 -0.4422
 1953TIP3    H227351   0.613   1.366   0.272  0.2644  0.0225  1.0473
 1954TIP3   OH227352   5.687   3.040  12.646 -0.0299 -0.3208 -0.3043
 1954TIP3    H127353   5.619   2.994  12.697 -0.2009  0.7465  0.4653
 1954TIP3    H227354   5.724   2.973  12.589  0.0246 -1.5228  1.0956
 1955TIP3   OH227355   2.457   5.872   1.938 -0.1152  0.0573 -0.3545
 1955TIP3    H127356   2.473   5.779   1.924  1.5082  0.2516  0.0215
 1955TIP3    H227357   2.465   5.884   2.032 -1.1465  0.4637 -0.2971
 1956TIP3   OH227358   3.946   0.736  14.996  0.0975  0.4078 -0.1200
 1956TIP3    H127359   4.034   0.736  15.032 -0.1105  1.7053  0.4531
 1956TIP3    H227360   3.895   0.684  15.058  1.0429 -3.2326 -2.1647
 1957TIP3   OH227361   2.653   2.598  13.498  0.1514 -0.3071  0.5955
 1957TIP3    H127362   2.622   2.552  13.420  1.0084  1.8533 -1.1227
 1957TIP3    H227363   2.615   2.686  13.491 -0.6067 -0.3537  3.2067
 1958TIP3   OH227364   5.583   2.703   0.998  0.0474  0.3495 -0.0747
 1958TIP3    H127365   5.569   2.616   1.035 -0.8815  0.0259 -1.1259
 1958TIP3    H227366   5.674   2.725   1.021  0.5609 -1.2330 -0.4790
 1959TIP3   OH227367   6.336   5.217  15.556 -0.3423  0.4050 -0.0910
 1959TIP3    H127368   6.401   5.258  15.613  1.0516 -0.7114 -0.7948
 1959TIP3    H227369   6.265   5.192  15.615 -0.0772  1.5033  0.7293
 1960TIP3   OH227370   2.049   3.554   0.743 -0.4990 -0.3986 -0.0644
 1960TIP3    H127371   2.123   3.574   0.801 -1.9744  0.2940  1.6813
 1960TIP3    H227372   2.085   3.563   0.655  1.1497  1.4135  0.7104
 1961TIP3   OH227373   0.937   1.859   4.675  0.1599 -0.2103 -0.6640
 1961TIP3    H127374   0.981   1.788   4.723 -0.8349  0.3611  1.1885
 1961TIP3    H227375   1.005   1.925   4.663  0.3949 -0.3017  0.1136
 1962TIP3   OH227376   1.764   2.962   2.339  0.3556  0.1491 -0.2645
 1962TIP3    H127377   1.751   2.875   2.377  2.0357 -0.1740 -0.3500
 1962TIP3    H227378   1.709   2.962   2.261  0.2478 -0.8051 -0.2056
 1963TIP3   OH227379   2.472   3.000  15.201 -0.6274  0.0447 -0.0109
 1963TIP3    H127380   2.407   2.930  15.193 -1.2964  0.6341  0.2005
 1963TIP3    H227381   2.551   2.955  15.231 -0.8152 -0.7379 -0.6448
 1964TIP3   OH227382   6.494   2.785  16.313  0.2492 -0.2668  0.4623
 1964TIP3    H127383   6.459   2.696  16.312 -1.1068  0.2434 -0.3472
 1964TIP3    H227384   6.587   2.774  16.330  0.4429 -1.9813 -1.3335
 1965TIP3   OH227385   3.145   4.518  14.249 -0.2115 -0.0090 -0.1825
 1965TIP3    H127386   3.218   4.550  14.303  1.0696  2.1692 -2.9557
 1965TIP3    H227387   3.136   4.426  14.274  2.0543  0.1916  1.7730
 1966TIP3   OH227388   2.332   4.459  12.164  0.0489  0.6974  0.4617
 1966TIP3    H127389   2.249   4.410  12.162  0.5346 -0.2272 -2.6580
 1966TIP3    H227390   2.306   4.551  12.163 -0.8649  0.5604  3.1355
 1967TIP3   OH227391   2.110   1.346  10.878 -0.3685 -0.6895 -0.1528
 1967TIP3    H127392   2.200   1.357  10.909 -0.6796  0.7737  0.3088
 1967TIP3    H227393   2.116   1.357  10.783 -0.3508  2.0429  0.0714
 1968TIP3   OH227394   0.899   2.368  14.750  0.1042  0.0696 -0.1707
 1968TIP3    H127395   0.836   2.296  14.754  0.8161 -0.5269  0.9968
 1968TIP3    H227396   0.983   2.325  14.733  0.5467  0.6044  0.5904
 1969TIP3   OH227397   3.818   4.730  11.279 -0.4599 -0.2767 -0.1371
 1969TIP3    H127398   3.732   4.702  11.248  0.4700 -3.1989 -0.4239
 1969TIP3    H227399   3.854   4.652  11.322  1.0598  1.6258  2.2447
 1970TIP3   OH227400   5.816   0.153  15.472 -0.5238 -0.2927 -0.5344
 1970TIP3    H127401   5.765   0.233  15.483 -1.0314 -0.4575 -1.5811
 1970TIP3    H227402   5.899   0.182  15.432 -0.8609 -0.3224 -1.2712
 1971TIP3   OH227403   5.155   0.240   5.305 -0.7480  0.3110  0.6624
 1971TIP3    H127404   5.222   0.308   5.291 -1.7486  0.9392 -1.4723
 1971TIP3    H227405   5.085   0.262   5.243 -1.0138 -2.7966 -0.3367
 1972TIP3   OH227406   0.203   5.499  12.932 -0.5391  0.0364  0.3281
 1972TIP3    H127407   0.208   5.583  12.886  0.9100  0.4490  1.1573
 1972TIP3    H227408   0.283   5.453  12.905  0.8268  0.6374  2.9675
 1973TIP3   OH227409   2.436   1.004   2.729  0.1221 -0.4531 -0.2083
 1973TIP3    H127410   2.387   0.933   2.771 -1.1101  1.0050  0.9586
 1973TIP3    H227411   2.528   0.983   2.746 -0.2730 -1.0037  1.4707
 1974TIP3   OH227412   4.138   2.318  16.950  0.2768  0.6044  0.3268
 1974TIP3    H127413   4.212   2.342  17.004  0.3011  1.0202  0.1084
 1974TIP3    H227414   4.173   2.253  16.889 -0.1748 -1.3407  2.0214
 1975TIP3   OH227415   0.244   6.409  15.833 -0.4411  0.4429 -0.3457
 1975TIP3    H127416   0.322   6.387  15.884 -0.5589  0.9906  0.0814
 1975TIP3    H227417   0.265   6.493  15.793 -0.1599 -0.1941 -1.6189
 1976TIP3   OH227418   5.892   1.466   0.048  0.6053  0.1669  0.8393
 1976TIP3    H127419   5.971   1.473   0.102 -0.7863 -0.9257  3.1753
 1976TIP3    H227420   5.915   1.402  -0.020  1.3231 -1.2494  2.3516
 1977TIP3   OH227421   6.445   3.965   2.453  0.1947  0.2105 -0.4261
 1977TIP3    H127422   6.452   4.043   2.508  0.2541  0.1834 -0.3950
 1977TIP3    H227423   6.362   3.924   2.478 -0.0531  0.5016 -0.7538
 1978TIP3   OH227424   6.863   4.277   2.234 -0.0183  0.3975 -0.1477
 1978TIP3    H127425   6.796   4.340   2.205  0.9140  1.1342 -0.7572
 1978TIP3    H227426   6.822   4.192   2.220 -1.3668  0.8457  0.8457
 1979TIP3   OH227427   0.083   0.863  15.244 -0.3974  0.0787  0.5418
 1979TIP3    H127428   0.003   0.825  15.207 -0.1799  0.1777 -0.0453
 1979TIP3    H227429   0.153   0.803  15.216  0.1535  1.6252 -1.6431
 1980TIP3   OH227430   6.105   0.168  16.440 -0.1560 -1.2011  0.0197
 1980TIP3    H127431   6.169   0.151  16.371 -0.2356  0.8485 -0.6088
 1980TIP3    H227432   6.157   0.172  16.521  0.4018 -0.4315 -0.3667
 1981TIP3   OH227433   2.746   2.314  12.365  0.0379  0.2381  0.3454
 1981TIP3    H127434   2.840   2.311  12.377 -0.1105 -0.4251  1.4946
 1981TIP3    H227435   2.726   2.407  12.353  0.6503  0.5761  1.7976
 1982TIP3   OH227436   6.686   4.980   3.291  0.5464  0.2451 -0.1238
 1982TIP3    H127437   6.754   4.913   3.285 -1.0207 -1.4005 -0.4176
 1982TIP3    H227438   6.615   4.948   3.236 -0.5243  1.8675  0.2208
 1983TIP3   OH227439   2.539   6.492   2.594 -0.1357  0.3131 -0.1289
 1983TIP3    H127440   2.510   6.542   2.518  0.7816 -0.5733 -1.0946
 1983TIP3    H227441   2.634   6.492   2.588 -0.0311  0.5350  1.2373
 1984TIP3   OH227442   3.330   3.304  12.667  0.6085  0.0675 -0.2959
 1984TIP3    H127443   3.272   3.241  12.709  0.3724  0.2684 -0.3175
 1984TIP3    H227444   3.418   3.270  12.682  0.4136 -2.1084 -3.1929
 1985TIP3   OH227445   0.170   4.902   5.641  0.2344 -0.3731 -0.0081
 1985TIP3    H127446   0.135   4.813   5.640  0.1960 -0.3824  1.2600
 1985TIP3    H227447   0.168   4.928   5.733  0.9429  0.6634 -0.2672
 1986TIP3   OH227448   0.964   2.753  15.942  0.7028 -0.3557  0.9104
 1986TIP3    H127449   1.040   2.797  15.906 -0.8431  1.2934 -0.5541
 1986TIP3    H227450   0.906   2.824  15.970 -1.7280 -1.3390 -1.1465
 1987TIP3   OH227451   3.839   0.962  15.521 -0.3426 -0.1645  0.5107
 1987TIP3    H127452   3.884   0.919  15.449 -0.7074 -0.4740  0.4655
 1987TIP3    H227453   3.879   0.927  15.600  0.0353  0.1511  0.4635
 1988TIP3   OH227454   6.299   4.668   1.282  0.0216 -0.2124  0.2827
 1988TIP3    H127455   6.263   4.626   1.204  0.9487 -0.8361  0.1757
 1988TIP3    H227456   6.239   4.642   1.353  0.7329 -2.0323  0.2818
 1989TIP3   OH227457   6.066   6.009   2.739 -0.9015 -0.5110 -0.1951
 1989TIP3    H127458   5.981   6.033   2.777 -1.0152 -0.4469 -0.4840
 1989TIP3    H227459   6.076   6.069   2.665 -0.4390 -0.2824  0.0497
 1990TIP3   OH227460   3.237   6.478   0.197  0.1589 -0.1809  0.1272
 1990TIP3    H127461   3.146   6.460   0.218  0.1757  0.7726  1.1378
 1990TIP3    H227462   3.264   6.406   0.139 -0.9066 -1.0600  0.6931
 1991TIP3   OH227463   0.768   2.480  15.165  0.4558  1.0774 -0.4390
 1991TIP3    H127464   0.861   2.462  15.175  0.4727  0.2475 -1.8609
 1991TIP3    H227465   0.752   2.557  15.220  2.0874  1.5541 -0.5960
 1992TIP3   OH227466   3.257   2.980   6.168  0.6229  0.4626 -0.0218
 1992TIP3    H127467   3.279   2.888   6.151 -1.5931 -0.0024 -0.7697
 1992TIP3    H227468   3.312   3.030   6.107  2.3490 -0.2813  0.8724
 1993TIP3   OH227469   0.927   3.125   5.392  0.6878  0.0888 -0.4598
 1993TIP3    H127470   0.927   3.115   5.487  1.1201 -0.3884 -0.5094
 1993TIP3    H227471   0.853   3.072   5.362 -0.5970  1.6737 -0.2551
 1994TIP3   OH227472   4.370   5.364  13.104  0.2505 -0.0288 -0.3735
 1994TIP3    H127473   4.391   5.431  13.169  1.8154  1.0258 -1.8746
 1994TIP3    H227474   4.450   5.313  13.096 -0.3073 -0.8710 -0.6394
 1995TIP3   OH227475   3.181   1.765  11.352  0.3872  0.0941 -0.2034
 1995TIP3    H127476   3.133   1.816  11.417  0.8946  1.5387 -0.8903
 1995TIP3    H227477   3.163   1.674  11.373 -1.0013  0.5680  0.7698
 1996TIP3   OH227478   1.945   2.155   2.210  0.3947  0.3923  0.0079
 1996TIP3    H127479   2.021   2.213   2.215  1.2802 -0.7998  1.3494
 1996TIP3    H227480   1.924   2.136   2.302  0.3269 -1.5833 -0.3643
 1997TIP3   OH227481   3.821   6.883  14.018 -0.3946  0.2113 -0.0125
 1997TIP3    H127482   3.863   6.910  14.099 -0.5776  1.6219 -0.3673
 1997TIP3    H227483   3.893   6.869  13.956 -0.3727  2.2274 -0.5017
 1998TIP3   OH227484   1.349   3.780   6.418 -0.3690 -0.3500 -0.0766
 1998TIP3    H127485   1.380   3.861   6.458 -0.1248 -0.7459  0.5476
 1998TIP3    H227486   1.387   3.711   6.471  0.6408 -0.9233 -1.4709
 1999TIP3   OH227487   5.060   1.236  15.605  1.0094  0.8220 -0.5142
 1999TIP3    H127488   5.033   1.148  15.581  1.8283  0.8190 -1.4648
 1999TIP3    H227489   5.155   1.237  15.590  0.8302  2.2490 -1.7792
 2000TIP3   OH227490   1.467   2.495   2.848 -0.4660  0.3738  0.1835
 2000TIP3    H127491   1.422   2.419   2.811  0.1013 -0.8896  1.9337
 2000TIP3    H227492   1.411   2.570   2.826 -1.5955 -0.6898 -0.6887
 2001TIP3   OH227493   0.645   0.481   1.340  0.5723 -0.7281  0.2270
 2001TIP3    H127494   0.640   0.411   1.406 -2.1375 -2.0510 -1.2157
 2001TIP3    H227495   0.589   0.550   1.374  1.7078 -0.0206  0.7301
 2002TIP3   OH227496   5.998   2.945  12.497 -0.1778 -0.2118 -0.0339
 2002TIP3    H127497   5.939   2.884  12.542  2.8585 -1.2101  2.9401
 2002TIP3    H227498   5.999   3.023  12.553  0.9762 -0.0407 -0.2771
 2003TIP3   OH227499   2.606   1.293   5.077 -0.1444  0.4589 -0.5374
 2003TIP3    H127500   2.685   1.337   5.110 -0.7556 -0.1488  1.8794
 2003TIP3    H227501   2.543   1.364   5.064  0.2625  0.7601 -0.9349
 2004TIP3   OH227502   0.068   5.083  13.338 -0.6305  0.4269  0.6944
 2004TIP3    H127503   0.065   5.096  13.433  0.6901 -0.3854  0.8822
 2004TIP3    H227504   0.156   5.047  13.322 -0.8740  0.4493 -0.8237
 2005TIP3   OH227505   3.847   3.630  12.718 -0.1612  0.1304 -0.5586
 2005TIP3    H127506   3.916   3.693  12.739 -0.4940  0.1291  0.5951
 2005TIP3    H227507   3.817   3.655  12.631  0.6592  0.7047 -0.6824
 2006TIP3   OH227508   0.267   2.233  15.965  0.0685 -0.6578  0.6574
 2006TIP3    H127509   0.326   2.221  15.890 -1.1644 -0.0873 -0.4520
 2006TIP3    H227510   0.286   2.322  15.996 -1.8881  0.5428 -1.3161
 2007TIP3   OH227511   5.298   0.292   1.350 -0.3075 -0.2559 -0.1870
 2007TIP3    H127512   5.255   0.209   1.329  1.7113 -1.3850 -0.0851
 2007TIP3    H227513   5.312   0.288   1.445  1.4290 -0.6603 -0.4368
 2008TIP3   OH227514   3.342   3.600   6.596 -0.5569 -0.2174 -0.3180
 2008TIP3    H127515   3.265   3.628   6.645 -1.6176  0.1947 -2.1187
 2008TIP3    H227516   3.318   3.515   6.560 -0.4237  0.1742 -1.3744
 2009TIP3   OH227517   2.412   4.846   1.974  0.8527  0.4482 -0.3684
 2009TIP3    H127518   2.381   4.936   1.968  1.1500  0.5257 -0.8599
 2009TIP3    H227519   2.490   4.851   2.030 -0.7209  0.0535  1.9785
 2010TIP3   OH227520   3.171   3.033  15.078 -0.2191 -0.3577  0.2326
 2010TIP3    H127521   3.187   3.092  15.004  0.1565 -0.2521  0.3964
 2010TIP3    H227522   3.253   3.034  15.128 -0.9085  0.5943  1.3868
 2011TIP3   OH227523   3.732   3.248   2.798 -0.7384  0.1904 -1.0096
 2011TIP3    H127524   3.637   3.248   2.808 -0.6757  0.0045 -0.4076
 2011TIP3    H227525   3.765   3.285   2.880 -0.2056 -1.6225 -0.3712
 2012TIP3   OH227526   6.126   5.299  11.298 -0.3449  0.2307 -0.1341
 2012TIP3    H127527   6.197   5.239  11.273  0.5644  0.9247  0.6917
 2012TIP3    H227528   6.098   5.268  11.384  0.5032  1.2654  0.5515
 2013TIP3   OH227529   5.529   1.873  15.730 -0.5655 -0.2131 -0.3472
 2013TIP3    H127530   5.504   1.782  15.712  0.2973 -0.4449 -0.4424
 2013TIP3    H227531   5.600   1.866  15.794 -0.0563  0.3553 -0.8366
 2014TIP3   OH227532   4.567   6.590  15.457 -0.2266  0.6152 -0.1155
 2014TIP3    H127533   4.519   6.630  15.385  1.6648  1.5461 -0.9353
 2014TIP3    H227534   4.646   6.554  15.416  0.5106  0.4825  1.3498
 2015TIP3   OH227535   5.556   6.760  13.078  0.5753 -0.0785  0.3342
 2015TIP3    H127536   5.570   6.682  13.131 -1.2863  0.1119  1.2058
 2015TIP3    H227537   5.632   6.815  13.094  2.6475 -2.2357 -1.3895
 2016TIP3   OH227538   2.345   1.109  12.268 -0.1196 -0.1504  0.4949
 2016TIP3    H127539   2.370   1.102  12.176  1.0215  0.5943  0.7289
 2016TIP3    H227540   2.264   1.160  12.267  1.0702  1.8280  0.0071
 2017TIP3   OH227541   2.855   0.605  14.930  0.1764  0.2140 -0.2455
 2017TIP3    H127542   2.809   0.590  14.847  0.5465  0.5137 -0.5123
 2017TIP3    H227543   2.939   0.562  14.919 -0.1158 -0.5278  0.3278
 2018TIP3   OH227544   1.062   2.321   3.093  0.1468 -0.2174  0.3993
 2018TIP3    H127545   0.979   2.365   3.072  0.2629  0.0503  0.4983
 2018TIP3    H227546   1.097   2.369   3.167  0.6700  0.0354 -0.0017
 2019TIP3   OH227547   6.238   4.405  16.366  0.0620 -0.2436  0.4892
 2019TIP3    H127548   6.270   4.456  16.292  1.4458 -1.2406  0.3410
 2019TIP3    H227549   6.302   4.334  16.375 -1.3125 -1.4405  1.2211
 2020TIP3   OH227550   5.204   0.054  13.771  0.4997  0.2982  0.3563
 2020TIP3    H127551   5.182   0.077  13.861 -1.6756  0.5559 -0.1844
 2020TIP3    H227552   5.242  -0.034  13.777  1.6785  0.8794  1.6480
 2021TIP3   OH227553   6.606   4.214   1.538 -0.2894  0.4005  0.4104
 2021TIP3    H127554   6.512   4.226   1.552 -0.0635 -0.2019  2.9738
 2021TIP3    H227555   6.645   4.296   1.570  0.0384  1.3326 -2.1466
 2022TIP3   OH227556   1.733   6.379   3.959 -0.8250 -0.2025 -0.1489
 2022TIP3    H127557   1.820   6.380   3.997 -0.8863  5.2356  0.6684
 2022TIP3    H227558   1.677   6.344   4.028  0.1449  1.3318  1.4876
 2023TIP3   OH227559   6.797   1.063  14.412 -0.1465  0.1987  0.0771
 2023TIP3    H127560   6.770   1.058  14.504 -0.3458  0.8045  0.0569
 2023TIP3    H227561   6.717   1.048  14.363  0.0308 -0.4954 -0.0009
 2024TIP3   OH227562   3.887   4.299   2.772 -0.0190  0.3220 -0.4601
 2024TIP3    H127563   3.970   4.343   2.753  0.0699  0.0722 -0.6543
 2024TIP3    H227564   3.911   4.208   2.789 -0.1261  0.4746  0.5961
 2025TIP3   OH227565   3.287   1.583   6.325  0.0021  0.7030  0.0852
 2025TIP3    H127566   3.378   1.607   6.309 -0.1164  1.5445  0.5995
 2025TIP3    H227567   3.292   1.494   6.361  0.3581 -0.7209 -3.1068
 2026TIP3   OH227568   5.932   3.116   0.686 -0.1755  0.5535  0.7402
 2026TIP3    H127569   6.026   3.105   0.676 -0.4221 -0.3393 -0.8812
 2026TIP3    H227570   5.905   3.170   0.611 -1.1716 -0.6387  0.1936
 2027TIP3   OH227571   6.627   2.948   3.153 -0.3526  0.5250 -0.2567
 2027TIP3    H127572   6.577   2.887   3.099 -0.0445 -0.2976  0.3837
 2027TIP3    H227573   6.644   2.901   3.234  2.0070  0.5277 -0.6714
 2028TIP3   OH227574   1.478   6.842  14.388 -0.6808  0.7771  0.0197
 2028TIP3    H127575   1.448   6.882  14.307  1.2457  0.7422 -0.7505
 2028TIP3    H227576   1.573   6.838  14.380 -0.4959  0.0305  1.9404
 2029TIP3   OH227577   5.008   0.188  16.523  0.2142  0.3389 -0.3777
 2029TIP3    H127578   5.016   0.102  16.483  0.5013  0.7912 -1.3154
 2029TIP3    H227579   4.916   0.193  16.551  0.3381 -0.4840  0.2081
 2030TIP3   OH227580   0.892   0.732  11.465  0.1363 -0.1481 -0.1145
 2030TIP3    H127581   0.966   0.758  11.521  1.1378  0.1563 -1.5152
 2030TIP3    H227582   0.826   0.799  11.481  0.6799  0.3324  0.1856
 2031TIP3   OH227583   1.257   5.012  16.740  0.7483  0.1039  0.1532
 2031TIP3    H127584   1.307   5.016  16.658 -1.0142 -1.6837 -1.0753
 2031TIP3    H227585   1.165   5.015  16.713  0.0799  1.9702  2.2691
 2032TIP3   OH227586   0.299   1.361  15.518 -0.0705 -0.0856  0.2690
 2032TIP3    H127587   0.208   1.335  15.511 -0.3020 -0.0111  2.3585
 2032TIP3    H227588   0.343   1.286  15.559  0.6993  0.0992 -0.1894
 2033TIP3   OH227589   1.023   4.157   0.223 -0.2250  0.3430 -0.3662
 2033TIP3    H127590   1.068   4.190   0.301  1.3425 -0.0077 -1.0683
 2033TIP3    H227591   1.002   4.066   0.244  0.6201  0.1051 -0.4915
 2034TIP3   OH227592   6.681   6.490  12.475  0.4897 -0.5947  0.7405
 2034TIP3    H127593   6.651   6.561  12.532  0.3875  0.0849 -0.1285
 2034TIP3    H227594   6.771   6.473  12.501  0.8718  0.6100  0.2427
 2035TIP3   OH227595   5.698   1.775  12.186 -0.3050  0.1796  0.6481
 2035TIP3    H127596   5.765   1.780  12.254  0.2604  0.3800  0.0872
 2035TIP3    H227597   5.745   1.791  12.105 -0.4458 -2.7014 -0.1209
 2036TIP3   OH227598   3.270   2.688   1.113  0.4812  0.1928 -0.0307
 2036TIP3    H127599   3.242   2.653   1.029  0.8862  0.2953 -0.2058
 2036TIP3    H227600   3.229   2.630   1.178  0.0874  0.1744 -0.2899
 2037TIP3   OH227601   5.682   5.012   1.011  0.4200 -0.3522  0.5052
 2037TIP3    H127602   5.644   4.983   1.094 -0.9727  0.1711  0.0796
 2037TIP3    H227603   5.668   5.107   1.011  0.4443 -0.3462 -0.3096
 2038TIP3   OH227604   0.797   1.288   4.999 -0.5649  0.2314  0.0941
 2038TIP3    H127605   0.732   1.357   5.012  0.2224  1.0220 -0.0961
 2038TIP3    H227606   0.745   1.207   4.997 -1.4615  0.7657  0.7052
 2039TIP3   OH227607   3.867   2.923  14.118 -0.0047 -0.3801 -0.0374
 2039TIP3    H127608   3.918   3.002  14.134 -0.2128 -0.2914  0.2006
 2039TIP3    H227609   3.808   2.917  14.194  0.6236 -1.2478  0.3960
 2040TIP3   OH227610   4.938   6.308   4.882 -0.3084 -0.2921  0.1682
 2040TIP3    H127611   4.923   6.377   4.817  0.0086 -0.5948 -0.2312
 2040TIP3    H227612   5.008   6.254   4.844  0.9297  0.3741  1.4190
 2041TIP3   OH227613   0.702   0.865  10.095  0.2330 -0.2993 -0.4242
 2041TIP3    H127614   0.775   0.914  10.134 -0.1546 -0.3438  0.3865
 2041TIP3    H227615   0.743   0.799  10.040  0.8082 -0.3494  0.0606
 2042TIP3   OH227616   2.039   1.245  16.448 -0.2703  0.2355  0.1917
 2042TIP3    H127617   1.951   1.209  16.460 -0.2380  0.4600  1.2584
 2042TIP3    H227618   2.028   1.315  16.384 -0.6611 -0.4502 -0.5173
 2043TIP3   OH227619   6.829   2.234   2.373 -0.3617 -0.3856 -0.4498
 2043TIP3    H127620   6.866   2.192   2.295 -1.3170  0.5433 -1.4381
 2043TIP3    H227621   6.765   2.296   2.338  0.1805  1.0496  1.0242
 2044TIP3   OH227622   5.777   6.177  15.048 -0.1171 -0.2178  0.3553
 2044TIP3    H127623   5.788   6.115  15.121 -2.8532  0.6744  1.6660
 2044TIP3    H227624   5.692   6.154  15.011  0.1273  0.9483 -0.9889
 2045TIP3   OH227625   2.186   2.349   1.403  0.4610 -0.4129  0.1781
 2045TIP3    H127626   2.195   2.441   1.379 -0.9095 -0.7300 -1.7044
 2045TIP3    H227627   2.266   2.308   1.369  0.1265 -0.2597 -0.8228
 2046TIP3   OH227628   3.543   6.304   2.741  0.3043  0.3360  0.9151
 2046TIP3    H127629   3.612   6.370   2.731  0.6642 -0.1990 -0.3171
 2046TIP3    H227630   3.534   6.294   2.836 -0.7407  3.1223  1.2113
 2047TIP3   OH227631   3.524   6.474   6.194  0.1078  0.5825  0.0555
 2047TIP3    H127632   3.618   6.458   6.196  0.3837  2.1139  0.6676
 2047TIP3    H227633   3.515   6.567   6.216 -1.5926  0.2302  1.0319
 2048TIP3   OH227634   0.404   6.634   3.713 -0.6157 -0.0337  0.6157
 2048TIP3    H127635   0.482   6.579   3.709  1.1912  2.3345  1.2643
 2048TIP3    H227636   0.387   6.645   3.806 -0.4793  1.0923  0.5198
 2049TIP3   OH227637   1.883   6.322  13.539 -0.4217 -0.2898  0.0172
 2049TIP3    H127638   1.879   6.313  13.634  1.7128 -0.7406  0.1082
 2049TIP3    H227639   1.878   6.232  13.506  1.0674 -0.3224 -0.1571
 2050TIP3   OH227640   3.599   1.934  11.371 -0.2974  0.0400  0.1100
 2050TIP3    H127641   3.669   1.989  11.406  0.2834 -0.5796 -0.0577
 2050TIP3    H227642   3.554   1.990  11.308  0.1696  0.3853  0.0789
 2051TIP3   OH227643   1.515   4.373  10.560  0.2048  0.5900 -0.1347
 2051TIP3    H127644   1.503   4.387  10.654 -1.4925 -0.0699 -0.2256
 2051TIP3    H227645   1.509   4.460  10.522 -2.9424  0.5408  0.0311
 2052TIP3   OH227646   1.187   2.516  16.193 -0.1168 -0.5265 -0.0831
 2052TIP3    H127647   1.243   2.593  16.184 -2.2236  0.9867 -1.0736
 2052TIP3    H227648   1.143   2.508  16.108 -1.9335 -1.1772  0.8567
 2053TIP3   OH227649   5.512   4.988   3.682  0.0758 -0.0786 -0.3090
 2053TIP3    H127650   5.604   5.004   3.661 -0.3013  0.0072 -2.0127
 2053TIP3    H227651   5.503   5.018   3.773  1.5012  0.8123 -0.4259
 2054TIP3   OH227652   4.461   6.275   4.974 -0.0196  0.2754 -0.2925
 2054TIP3    H127653   4.475   6.370   4.977  1.0839  0.1074  1.5586
 2054TIP3    H227654   4.539   6.240   4.931  0.0961  0.1485  0.0124
 2055TIP3   OH227655   1.849   0.319   4.594 -0.4162 -0.3642  0.1409
 2055TIP3    H127656   1.882   0.237   4.557 -0.7200  0.0230 -1.0363
 2055TIP3    H227657   1.766   0.334   4.549  0.8811  1.9763 -1.7485
 2056TIP3   OH227658   3.850   5.479   2.761 -0.4563 -0.2760  0.3430
 2056TIP3    H127659   3.943   5.467   2.741 -0.6000 -0.9547  0.0420
 2056TIP3    H227660   3.843   5.460   2.854 -0.5164 -1.7012  0.0724
 2057TIP3   OH227661   2.981   4.647  13.788 -0.1198  0.1643 -0.4232
 2057TIP3    H127662   2.983   4.687  13.875  0.0161  0.8502 -0.7361
 2057TIP3    H227663   2.923   4.703  13.737  1.2800  0.8802 -1.2968
 2058TIP3   OH227664   5.817   3.350  16.690  0.2103 -0.0540  0.2485
 2058TIP3    H127665   5.805   3.258  16.667  0.2244  0.0062  0.0013
 2058TIP3    H227666   5.753   3.397  16.637 -0.6221 -0.0252  1.2427
 2059TIP3   OH227667   2.034   1.891  14.129  0.7700  0.2980  0.1458
 2059TIP3    H127668   2.039   1.917  14.037  1.7171  1.3135  0.4645
 2059TIP3    H227669   2.050   1.972  14.178 -0.3393 -0.1066  1.2193
 2060TIP3   OH227670   3.886   1.185  13.793  0.1704 -0.2205 -0.5489
 2060TIP3    H127671   3.800   1.193  13.834  0.3976  1.4609 -0.3345
 2060TIP3    H227672   3.933   1.124  13.849 -1.7219 -3.4577 -2.2134
 2061TIP3   OH227673   6.695   5.417   3.195  0.1856  0.1315 -0.5038
 2061TIP3    H127674   6.608   5.457   3.192 -0.7938 -1.7800  0.2455
 2061TIP3    H227675   6.738   5.459   3.269 -1.1561 -0.7728  0.8501
 2062TIP3   OH227676   6.526   4.759  15.630 -0.6080  0.3238  0.0876
 2062TIP3    H127677   6.614   4.767  15.594  0.5290  2.1119  2.9193
 2062TIP3    H227678   6.535   4.781  15.723 -3.8847 -0.4807  0.7577
 2063TIP3   OH227679   2.737   5.073   4.621 -0.1748 -0.5315  0.2395
 2063TIP3    H127680   2.756   5.089   4.714 -0.6998  1.0209  0.1170
 2063TIP3    H227681   2.681   5.147   4.596  0.6487 -0.4670 -1.5333
 2064TIP3   OH227682   5.262   5.933   2.387  0.1672 -0.0937  0.3401
 2064TIP3    H127683   5.206   5.865   2.424 -1.8157  1.0770 -0.3848
 2064TIP3    H227684   5.226   6.015   2.418  0.9564  0.7481 -0.8528
 2065TIP3   OH227685   5.570   3.603  15.681 -0.0496  0.3907  0.2894
 2065TIP3    H127686   5.600   3.533  15.624  1.0553  0.6216  0.5676
 2065TIP3    H227687   5.618   3.590  15.763 -0.1947  1.1815  0.5111
 2066TIP3   OH227688   4.861   0.149  13.323 -0.0434 -0.1871 -0.4573
 2066TIP3    H127689   4.827   0.087  13.387  0.5423  0.2542  0.2978
 2066TIP3    H227690   4.952   0.164  13.350  0.0318  0.4593 -1.0381
 2067TIP3   OH227691   1.851   2.670   2.188 -0.3477 -0.3488 -0.7001
 2067TIP3    H127692   1.917   2.689   2.121 -0.4344  1.5931 -0.3051
 2067TIP3    H227693   1.774   2.721   2.161 -0.1631  1.0358  1.1820
 2068TIP3   OH227694   6.551   1.764   6.247 -0.1911 -0.5986 -0.2839
 2068TIP3    H127695   6.465   1.724   6.232  0.3478 -1.1482 -2.3022
 2068TIP3    H227696   6.538   1.857   6.230 -0.1045 -0.8994 -2.3237
 2069TIP3   OH227697   3.327   0.573  15.792 -0.3890  0.2200 -0.6262
 2069TIP3    H127698   3.299   0.616  15.873 -0.8407  0.9302 -1.1463
 2069TIP3    H227699   3.296   0.483  15.800 -1.0738  0.4791 -0.3304
 2070TIP3   OH227700   3.593   6.507  11.432 -0.0664  0.3886  0.2572
 2070TIP3    H127701   3.638   6.554  11.362  0.7794  0.5723  0.8954
 2070TIP3    H227702   3.664   6.463  11.480 -0.5699  0.6346  1.2558
 2071TIP3   OH227703   5.896   5.300   6.014  0.0582  0.1432 -0.3261
 2071TIP3    H127704   5.958   5.372   6.026 -0.4017  0.1496  3.6612
 2071TIP3    H227705   5.810   5.342   6.013 -0.2063 -0.2075  1.9180
 2072TIP3   OH227706   4.381   0.924   1.115  0.4865 -0.5420  0.7423
 2072TIP3    H127707   4.317   0.862   1.082 -0.0950  0.8783 -0.9578
 2072TIP3    H227708   4.465   0.890   1.085  0.0981 -0.1051 -0.9618
 2073TIP3   OH227709   4.772   5.897   5.197  0.0203 -0.1059  0.5976
 2073TIP3    H127710   4.750   5.848   5.118  0.0748  1.2277 -0.2823
 2073TIP3    H227711   4.868   5.901   5.197  0.1591 -2.1856  2.0808
 2074TIP3   OH227712   1.219   1.507  15.487 -0.3084  0.6619  0.1173
 2074TIP3    H127713   1.241   1.420  15.455 -3.2455  0.0378 -0.5002
 2074TIP3    H227714   1.251   1.567  15.420  1.7304  0.1083  0.5435
 2075TIP3   OH227715   2.327   0.304   0.253  0.0705  0.6050 -0.0314
 2075TIP3    H127716   2.419   0.302   0.225  0.9049  1.1464  2.3916
 2075TIP3    H227717   2.316   0.392   0.289 -1.1435  0.2349  0.5217
 2076TIP3   OH227718   4.462   2.824   1.109  0.3827  0.4299 -0.2612
 2076TIP3    H127719   4.472   2.917   1.088  1.5819  0.6960  1.3326
 2076TIP3    H227720   4.540   2.783   1.073  1.2614  0.5241  1.4204
 2077TIP3   OH227721   5.844   3.054  16.320  0.2748 -0.4170 -0.0421
 2077TIP3    H127722   5.753   3.083  16.325 -0.1137 -1.5247 -0.4217
 2077TIP3    H227723   5.839   2.966  16.283  1.5510 -0.2269 -0.7214
 2078TIP3   OH227724   6.866   6.805  12.078  0.1292  0.3902 -0.6579
 2078TIP3    H127725   6.810   6.777  12.150  0.6102  1.4192  0.1410
 2078TIP3    H227726   6.867   6.900  12.084 -0.7477  0.6007 -2.7502
 2079TIP3   OH227727   5.357   3.587   4.609  0.5328 -0.8124  0.2737
 2079TIP3    H127728   5.316   3.587   4.695  0.3694  2.2526  0.3253
 2079TIP3    H227729   5.285   3.595   4.547  0.7780  0.8129  0.1441
 2080TIP3   OH227730   2.943   1.609  11.953  0.4640 -0.0311  0.5192
 2080TIP3    H127731   2.951   1.513  11.950 -2.0751 -0.3701  1.4182
 2080TIP3    H227732   2.992   1.634  12.031  0.3037 -0.7289  0.8546
 2081TIP3   OH227733   0.267   4.263   1.086 -0.5056 -0.3110 -0.2548
 2081TIP3    H127734   0.216   4.183   1.075 -1.4226  0.1452  0.5673
 2081TIP3    H227735   0.230   4.305   1.163 -3.0410  3.1169 -3.0349
 2082TIP3   OH227736   3.973   3.269   5.089  0.6606  0.9648 -0.5450
 2082TIP3    H127737   4.029   3.219   5.030  0.6775  0.8760 -0.4547
 2082TIP3    H227738   3.979   3.359   5.057  1.2145  1.0328 -0.2690
 2083TIP3   OH227739   3.433   2.095  11.178 -0.0028  0.0039 -0.8553
 2083TIP3    H127740   3.454   2.145  11.100  1.1838  0.7723 -0.0783
 2083TIP3    H227741   3.340   2.076  11.171 -0.2859  1.5613 -1.6060
 2084TIP3   OH227742   3.536   4.146   4.926 -0.2429 -0.6738  0.1874
 2084TIP3    H127743   3.502   4.234   4.935  0.6683 -0.4238  1.3345
 2084TIP3    H227744   3.463   4.096   4.889 -0.9784  0.3993  0.1479
 2085TIP3   OH227745   5.333   5.918  15.646  0.1961  0.2407 -0.1862
 2085TIP3    H127746   5.403   5.984  15.648  1.0003 -0.6003  0.3226
 2085TIP3    H227747   5.265   5.957  15.591  1.5756  0.5757 -1.7339
 2086TIP3   OH227748   5.068   2.102  12.133  0.1943 -0.8475 -0.0239
 2086TIP3    H127749   5.046   2.151  12.212  1.3830 -0.1505 -0.0994
 2086TIP3    H227750   5.115   2.025  12.166  2.9292  0.6680 -0.0859
 2087TIP3   OH227751   0.289   5.724   2.291 -0.6730  0.1091 -0.1407
 2087TIP3    H127752   0.243   5.672   2.357 -0.0648 -1.1374 -0.6637
 2087TIP3    H227753   0.302   5.664   2.218 -0.7645  1.2751 -1.1592
 2088TIP3   OH227754   3.395   2.519  10.648  0.3321  0.2010  0.5541
 2088TIP3    H127755   3.468   2.463  10.673  0.8902  0.4665 -0.4107
 2088TIP3    H227756   3.370   2.488  10.561  0.0619  0.8521  0.3929
 2089TIP3   OH227757   1.187   6.295  12.840 -0.0610 -0.3514 -0.5312
 2089TIP3    H127758   1.200   6.208  12.876 -0.7688  0.1643  1.0206
 2089TIP3    H227759   1.179   6.281  12.746  1.7463 -1.7439 -0.5425
 2090TIP3   OH227760   4.761   5.872  14.011  1.1056 -0.2332  0.5906
 2090TIP3    H127761   4.793   5.915  14.090  2.0507  0.0616  0.0785
 2090TIP3    H227762   4.720   5.791  14.041 -0.0232  0.6505  1.5125
 2091TIP3   OH227763   3.591   4.272   4.551  0.4196 -0.4313  0.4482
 2091TIP3    H127764   3.507   4.263   4.595 -0.6944 -1.5071 -1.7090
 2091TIP3    H227765   3.579   4.226   4.467  2.5194  1.0356 -0.7596
 2092TIP3   OH227766   0.634   3.523  15.147  0.0691  0.4082 -0.1796
 2092TIP3    H127767   0.585   3.576  15.210 -0.7768  1.5204 -1.7092
 2092TIP3    H227768   0.660   3.446  15.196 -2.8508 -0.0381  0.8492
 2093TIP3   OH227769   5.768   2.338   1.312 -0.2365  0.7315  0.3396
 2093TIP3    H127770   5.750   2.301   1.398 -2.1516  0.7788  0.0106
 2093TIP3    H227771   5.815   2.419   1.329 -0.7677  0.8343  1.3527
 2094TIP3   OH227772   1.987   4.762  16.266  1.1089 -0.1384  0.6101
 2094TIP3    H127773   1.967   4.743  16.358  1.0381 -0.2661  0.5672
 2094TIP3    H227774   1.909   4.737  16.218  0.2827  1.9448  0.7470
 2095TIP3   OH227775   1.373   6.282   3.948 -0.7206 -0.6965 -0.2031
 2095TIP3    H127776   1.398   6.272   3.856 -1.3369 -0.0818 -0.4406
 2095TIP3    H227777   1.291   6.233   3.956 -3.3986  3.1299 -1.2110
 2096TIP3   OH227778   1.004   6.731  11.982  0.5178 -0.2153  0.6593
 2096TIP3    H127779   0.989   6.670  11.910  0.5608 -1.5934  1.7768
 2096TIP3    H227780   1.052   6.804  11.942 -1.2397  0.0489 -1.1074
 2097TIP3   OH227781   6.742   4.817  13.635  0.1048 -0.0463 -0.0606
 2097TIP3    H127782   6.734   4.896  13.581  1.5203  0.9164  1.0739
 2097TIP3    H227783   6.703   4.748  13.581  0.0209  1.1653 -1.6402
 2098TIP3   OH227784   2.437   0.028   4.221 -0.0434 -0.0360 -0.0073
 2098TIP3    H127785   2.422   0.063   4.134  2.1230 -2.7342 -1.6518
 2098TIP3    H227786   2.505   0.084   4.258  1.5775 -0.8732 -1.5635
 2099TIP3   OH227787   1.226   0.569  14.991  0.0060 -0.1689  0.1087
 2099TIP3    H127788   1.223   0.524  15.076 -1.1808  1.2204  0.8452
 2099TIP3    H227789   1.197   0.503  14.929 -0.5156 -0.7964  0.9877
 2100TIP3   OH227790   2.957   5.168   6.279  0.5217  0.2654  0.6124
 2100TIP3    H127791   3.046   5.133   6.283 -0.0793 -1.3952  0.3442
 2100TIP3    H227792   2.920   5.149   6.365 -0.0659 -0.4980  0.2043
 2101TIP3   OH227793   0.956   4.452  16.948 -0.6570  0.3048 -0.5959
 2101TIP3    H127794   0.919   4.365  16.936 -0.7999  0.2992 -0.1348
 2101TIP3    H227795   0.881   4.510  16.955 -0.5896  0.2997  0.2939
 2102TIP3   OH227796   0.342   1.858  12.390  0.0759  0.2443  0.5246
 2102TIP3    H127797   0.352   1.801  12.466  0.1254 -0.9375 -0.3349
 2102TIP3    H227798   0.262   1.908  12.407 -1.0593 -1.4777  0.4437
 2103TIP3   OH227799   1.561   4.145   0.232  0.1277  0.5099 -0.7814
 2103TIP3    H127800   1.508   4.192   0.169 -3.0251 -2.6646 -0.7955
 2103TIP3    H227801   1.591   4.067   0.185 -0.5564 -0.8850  0.9648
 2104TIP3   OH227802   4.769   3.215   4.179 -0.3468 -0.0459 -0.0127
 2104TIP3    H127803   4.764   3.127   4.141 -0.2875 -1.1381  2.3425
 2104TIP3    H227804   4.680   3.249   4.173 -0.6682 -0.8148  0.2095
 2105TIP3   OH227805   0.075   1.677   3.140 -0.6656  0.0011 -0.1967
 2105TIP3    H127806   0.136   1.751   3.143 -1.0011  0.2661  0.7806
 2105TIP3    H227807   0.079   1.639   3.228 -2.4163  0.4694  0.1344
 2106TIP3   OH227808   0.155   3.567   1.835 -0.3066 -0.1517  0.0082
 2106TIP3    H127809   0.241   3.540   1.803 -0.5339 -1.3777  0.3813
 2106TIP3    H227810   0.100   3.570   1.757  0.4578  2.4073 -0.5219
 2107TIP3   OH227811   1.951   6.416  13.259  0.2090 -0.5280  0.7691
 2107TIP3    H127812   1.863   6.453  13.264  0.6862  0.8701 -0.4020
 2107TIP3    H227813   1.983   6.414  13.349 -0.7878 -0.5026  1.1296
 2108TIP3   OH227814   4.637   0.757   3.676  0.2728  0.0299  0.5530
 2108TIP3    H127815   4.569   0.818   3.707  0.5502  0.8793 -0.4182
 2108TIP3    H227816   4.589   0.693   3.624 -0.0759 -0.8543  1.9319
 2109TIP3   OH227817   3.655   3.871  13.950  0.2158  0.5912 -0.4638
 2109TIP3    H127818   3.658   3.785  13.992 -0.1568  1.0955  0.6536
 2109TIP3    H227819   3.574   3.869  13.898 -0.3874  0.6370  0.4396
 2110TIP3   OH227820   2.515   0.472  12.723 -0.4425  0.4419 -0.1948
 2110TIP3    H127821   2.524   0.551  12.776  2.2761 -1.0711  1.8615
 2110TIP3    H227822   2.589   0.476  12.662  0.5258 -1.0330  0.8069
 2111TIP3   OH227823   1.666   4.925   5.441 -0.0160 -0.0429 -0.1254
 2111TIP3    H127824   1.578   4.889   5.454 -0.2469 -0.5119 -2.5823
 2111TIP3    H227825   1.658   4.981   5.364  1.1761  2.5146  1.4787
 2112TIP3   OH227826   1.373   4.786  16.550 -0.2204  0.2513 -0.6543
 2112TIP3    H127827   1.317   4.709  16.556  2.2542 -1.6049  1.3957
 2112TIP3    H227828   1.455   4.752  16.514  0.7969  2.0130 -0.1120
 2113TIP3   OH227829   5.405   1.725   3.796 -0.1299  0.0187 -0.2515
 2113TIP3    H127830   5.399   1.802   3.740  0.1133 -0.7108 -1.3002
 2113TIP3    H227831   5.317   1.716   3.835 -0.0997  0.9314  0.0462
 2114TIP3   OH227832   5.407   5.118  14.836  0.4954 -1.1045  0.1625
 2114TIP3    H127833   5.362   5.066  14.902 -0.4516 -0.5088  0.0012
 2114TIP3    H227834   5.337   5.162  14.787  1.2424 -0.0177  0.0234
 2115TIP3   OH227835   6.317   5.130   0.857  0.5182  0.1853  0.2144
 2115TIP3    H127836   6.323   5.207   0.914 -0.9359  0.9107 -0.5430
 2115TIP3    H227837   6.399   5.130   0.809  0.4335  1.4520  0.0252
 2116TIP3   OH227838   5.218   2.340  11.709  0.8422  0.5637 -0.1776
 2116TIP3    H127839   5.201   2.347  11.803  0.1554  1.1835 -0.3401
 2116TIP3    H227840   5.180   2.255  11.685  0.5852  0.6208  0.0162
 2117TIP3   OH227841   0.432   5.127   4.147 -0.8551 -0.5171 -0.2421
 2117TIP3    H127842   0.379   5.207   4.150  0.0067  0.0865 -0.7351
 2117TIP3    H227843   0.491   5.140   4.072 -0.8588 -1.7152 -0.4696
 2118TIP3   OH227844   6.802   4.742   3.075 -0.2681  0.5124 -0.2722
 2118TIP3    H127845   6.715   4.781   3.080 -0.7891 -0.7244  0.4471
 2118TIP3    H227846   6.793   4.669   3.015 -0.5639 -1.6725  2.2772
 2119TIP3   OH227847   0.203   6.731   5.343  0.2718 -0.3562 -0.3450
 2119TIP3    H127848   0.260   6.721   5.419 -0.3886  0.4635  0.2823
 2119TIP3    H227849   0.263   6.748   5.270  0.8498  0.0978  0.2225
 2120TIP3   OH227850   4.617   2.520   3.308  0.7278  0.1070 -0.4370
 2120TIP3    H127851   4.595   2.593   3.367 -1.4947 -0.7280 -0.1542
 2120TIP3    H227852   4.533   2.490   3.274  1.5592 -2.3234 -0.5587
 2121TIP3   OH227853   1.463   1.905   1.360 -0.2943 -0.4612  0.0855
 2121TIP3    H127854   1.515   1.921   1.282 -0.3943 -1.9342 -0.3158
 2121TIP3    H227855   1.521   1.928   1.433  0.5814 -1.1306 -0.3784
 2122TIP3   OH227856   1.212   4.394  15.446  0.4528  0.0326  0.5148
 2122TIP3    H127857   1.168   4.345  15.515  1.2175 -0.3551  0.7276
 2122TIP3    H227858   1.166   4.479  15.444 -0.9681 -0.7077  0.0560
 2123TIP3   OH227859   5.986   1.150  11.404 -0.2360 -0.1744 -0.2344
 2123TIP3    H127860   5.999   1.089  11.331  1.0690 -0.4266  0.1793
 2123TIP3    H227861   6.009   1.235  11.368 -1.3484 -0.0156 -0.6056
 2124TIP3   OH227862   6.127   6.268  13.058  0.0537 -0.0973  0.6662
 2124TIP3    H127863   6.166   6.214  13.128 -1.1774 -1.8522  0.0710
 2124TIP3    H227864   6.142   6.358  13.087 -1.0183 -0.7309  3.5597
 2125TIP3   OH227865   1.662   0.928   2.647 -0.6919 -0.1261 -0.3562
 2125TIP3    H127866   1.675   0.980   2.567 -0.6540  0.0906 -0.2117
 2125TIP3    H227867   1.575   0.953   2.678  0.0418  1.2571  0.7191
 2126TIP3   OH227868   1.834   1.320  15.721 -0.2609  0.5575 -0.1878
 2126TIP3    H127869   1.739   1.331  15.723 -0.4974 -1.0674 -0.7042
 2126TIP3    H227870   1.867   1.402  15.685 -1.4431  1.2215  0.1857
 2127TIP3   OH227871   6.330   2.768  11.602  0.3077  0.5235 -0.2420
 2127TIP3    H127872   6.267   2.789  11.533  0.5789 -1.4313 -1.1679
 2127TIP3    H227873   6.384   2.699  11.564  2.0472  1.1064  1.0850
 2128TIP3   OH227874   2.587   5.229   2.863  0.0386 -0.0390  0.4867
 2128TIP3    H127875   2.512   5.253   2.918 -0.7427  0.6250 -0.8266
 2128TIP3    H227876   2.661   5.229   2.923 -0.1947  3.8512  1.0214
 2129TIP3   OH227877   1.643   6.524  15.860 -0.5136  0.2474  0.7358
 2129TIP3    H127878   1.652   6.612  15.824 -1.3154 -0.7834 -2.2637
 2129TIP3    H227879   1.549   6.514  15.876 -0.5508 -0.3470  0.1912
 2130TIP3   OH227880   5.771   1.301   3.903 -0.0290  0.0866 -0.0315
 2130TIP3    H127881   5.720   1.220   3.911  0.7380 -0.2596  2.1580
 2130TIP3    H227882   5.767   1.339   3.991  1.2276  1.4461 -0.5374
 2131TIP3   OH227883   2.971   3.576   0.580  0.7095 -0.1806  0.5239
 2131TIP3    H127884   3.034   3.646   0.600  0.2080  0.4073  0.0564
 2131TIP3    H227885   2.964   3.577   0.485 -1.8123  1.4008  0.6365
 2132TIP3   OH227886   3.016   1.584   3.987 -0.2340 -0.1449 -0.5646
 2132TIP3    H127887   3.109   1.599   3.967  0.0170  1.0518  1.3432
 2132TIP3    H227888   3.012   1.492   4.013  0.4741 -0.1346 -0.3960
 2133TIP3   OH227889   1.779   5.223   2.760  0.5108  0.1639 -0.1713
 2133TIP3    H127890   1.764   5.283   2.832 -1.2548 -0.4309  0.0139
 2133TIP3    H227891   1.870   5.237   2.735  1.5777 -0.4778  2.9491
 2134TIP3   OH227892   6.414   6.341   0.221 -0.5171  0.2057 -0.2938
 2134TIP3    H127893   6.351   6.407   0.190 -1.5250 -0.5911  0.0181
 2134TIP3    H227894   6.433   6.289   0.144  1.4010  1.6982 -0.8998
 2135TIP3   OH227895   3.259   1.597  14.751 -0.5654 -0.2221  0.1333
 2135TIP3    H127896   3.168   1.628  14.749 -1.1444 -1.7284 -3.3745
 2135TIP3    H227897   3.311   1.676  14.736 -1.0197  0.9305  3.6309
 2136TIP3   OH227898   1.188   5.643  14.598 -0.3223 -0.5090 -0.0203
 2136TIP3    H127899   1.197   5.565  14.653  1.4874  1.0879  2.0795
 2136TIP3    H227900   1.184   5.716  14.659  1.1367  1.3181 -1.9513
 2137TIP3   OH227901   6.690   5.664  16.697  0.2863  0.3906  0.2418
 2137TIP3    H127902   6.733   5.598  16.752  2.1051  2.2038  1.1341
 2137TIP3    H227903   6.753   5.682  16.627 -0.6918  0.3778 -0.6811
 2138TIP3   OH227904   0.813   6.792  12.410 -0.4745 -0.3912 -0.9217
 2138TIP3    H127905   0.886   6.785  12.472 -0.2397 -0.7143 -1.2340
 2138TIP3    H227906   0.847   6.846  12.339 -1.4463  1.9238  0.2500
 2139TIP3   OH227907   4.878   0.577   4.089  0.0091  0.4532 -0.4064
 2139TIP3    H127908   4.826   0.639   4.140  1.9384  2.1150 -0.3339
 2139TIP3    H227909   4.935   0.535   4.153  1.1861  1.2390 -0.9040
 2140TIP3   OH227910   2.132   0.331  14.816  0.1453 -0.5018 -0.8041
 2140TIP3    H127911   2.056   0.275  14.801 -1.1592  1.2516 -1.1096
 2140TIP3    H227912   2.119   0.404  14.756  2.1452 -0.2021 -0.9105
 2141TIP3   OH227913   4.998   4.054   1.279 -0.0707 -0.2573  0.2859
 2141TIP3    H127914   4.910   4.080   1.306 -0.4366  0.1069 -1.1481
 2141TIP3    H227915   5.039   4.135   1.249  0.6922 -0.4547  0.7831
 2142TIP3   OH227916   3.586   3.083   0.326 -0.4184 -0.0862 -0.0961
 2142TIP3    H127917   3.586   3.066   0.421 -1.9031 -1.4715 -0.3067
 2142TIP3    H227918   3.672   3.051   0.296 -0.1445 -0.1242  0.7003
 2143TIP3   OH227919   0.507   2.476   0.780 -0.3214 -0.4835  0.3242
 2143TIP3    H127920   0.417   2.494   0.809 -0.2988  1.4861 -0.6465
 2143TIP3    H227921   0.497   2.414   0.708 -0.9377 -0.0264  0.0093
 2144TIP3   OH227922   1.289   3.518   2.075  0.0877 -0.0315 -0.0848
 2144TIP3    H127923   1.274   3.538   1.983 -0.9004  1.0326  0.2869
 2144TIP3    H227924   1.290   3.604   2.118  1.2186 -0.4664  0.8101
 2145TIP3   OH227925   5.584   3.684  12.748  0.1755  0.2758  0.6417
 2145TIP3    H127926   5.566   3.766  12.702 -0.5529 -1.0102 -1.5273
 2145TIP3    H227927   5.508   3.670  12.804  0.1169  0.8786  0.7176
 2146TIP3   OH227928   2.753   0.997  12.984 -0.4155 -0.1839 -1.2242
 2146TIP3    H127929   2.699   1.076  12.991 -2.0173 -1.2416 -1.0308
 2146TIP3    H227930   2.843   1.029  12.986 -1.0194  1.6288 -1.1554
 2147TIP3   OH227931   6.023   3.650  15.122 -0.0683 -0.1691 -0.2765
 2147TIP3    H127932   5.992   3.619  15.037 -0.3960 -0.4443 -0.0589
 2147TIP3    H227933   5.979   3.734  15.134 -1.8722 -1.2022  0.6672
 2148TIP3   OH227934   0.386   3.572  11.723  0.3740 -0.8036 -1.2249
 2148TIP3    H127935   0.355   3.502  11.665  3.6956 -1.7932 -2.0260
 2148TIP3    H227936   0.377   3.535  11.811 -0.6356 -1.0253 -1.4080
 2149TIP3   OH227937   2.395   6.587  13.821 -0.2938  0.2645 -0.3459
 2149TIP3    H127938   2.477   6.549  13.854 -1.1936 -0.4342  1.1667
 2149TIP3    H227939   2.414   6.680  13.812  0.2631  0.3663  1.4426
 2150TIP3   OH227940   4.586   0.074  10.588 -0.1911 -0.6650  0.5030
 2150TIP3    H127941   4.547  -0.014  10.587 -0.5935 -0.4974 -0.6978
 2150TIP3    H227942   4.628   0.081  10.674  0.3595 -2.2567  0.3973
 2151TIP3   OH227943   0.817   4.332   0.271 -0.2661  0.1054  0.2652
 2151TIP3    H127944   0.895   4.285   0.242  0.0831  0.4753  0.5911
 2151TIP3    H227945   0.749   4.265   0.278  0.7225 -0.7393  2.6809
 2152TIP3   OH227946   6.013   1.523  13.090  0.1715  0.4390  0.4340
 2152TIP3    H127947   6.097   1.563  13.066 -0.0766  0.9966  0.4827
 2152TIP3    H227948   6.035   1.464  13.162  0.9783 -1.4776 -1.3007
 2153TIP3   OH227949   3.163   5.900   5.428 -0.4098  0.0233 -0.0700
 2153TIP3    H127950   3.110   5.967   5.384 -0.4155 -0.2161 -0.4347
 2153TIP3    H227951   3.226   5.949   5.480 -1.2245  0.3231  0.6673
 2154TIP3   OH227952   1.291   0.267  12.658  0.1903  0.2861  0.1898
 2154TIP3    H127953   1.259   0.319  12.584 -0.8328  0.8708  1.0232
 2154TIP3    H227954   1.383   0.249  12.636 -0.3624 -0.5089 -1.7453
 2155TIP3   OH227955   5.516   0.698  16.062  0.1614 -0.6776  0.5852
 2155TIP3    H127956   5.563   0.615  16.067 -1.0281 -1.3253  4.4429
 2155TIP3    H227957   5.425   0.673  16.043 -0.0092 -0.1685  0.7236
 2156TIP3   OH227958   3.623   0.596   0.703  0.2697 -0.0424  0.0331
 2156TIP3    H127959   3.624   0.671   0.644  2.0771 -1.0538 -1.3323
 2156TIP3    H227960   3.680   0.532   0.661  0.6080 -1.3216  2.2743
 2157TIP3   OH227961   6.222   0.676  11.917 -0.2751  0.1549 -0.3819
 2157TIP3    H127962   6.305   0.713  11.949 -0.3373  0.8790 -1.0303
 2157TIP3    H227963   6.167   0.753  11.902 -1.2387 -0.3410  0.4915
 2158TIP3   OH227964   4.153   0.878  12.626  0.7881 -0.3928 -0.1106
 2158TIP3    H127965   4.205   0.803  12.656  1.9272  1.6109  3.4606
 2158TIP3    H227966   4.218   0.939  12.590  0.4534  0.5655  0.8778
 2159TIP3   OH227967   5.027   0.406   4.234  0.3443 -0.6542  0.5036
 2159TIP3    H127968   5.070   0.355   4.165  1.3699  0.8267 -0.0159
 2159TIP3    H227969   5.008   0.343   4.303 -2.1254 -2.5249 -1.6921
 2160TIP3   OH227970   5.004   1.242  12.983 -0.0686  0.1421 -0.3117
 2160TIP3    H127971   4.975   1.316  12.930  0.3968  2.2004  2.0847
 2160TIP3    H227972   4.936   1.233  13.050  1.1468  0.1436  0.9668
 2161TIP3   OH227973   3.514   1.732   0.285  0.2997 -0.1847  0.8247
 2161TIP3    H127974   3.587   1.670   0.290 -0.0954 -0.6940  0.4263
 2161TIP3    H227975   3.548   1.806   0.236  0.4421 -0.5852  0.3112
 2162TIP3   OH227976   2.902   0.283   0.539 -0.1767 -0.0948  0.5971
 2162TIP3    H127977   2.831   0.301   0.600  0.1676  2.1915  0.4079
 2162TIP3    H227978   2.859   0.244   0.463 -1.1936  0.9300  0.6304
 2163TIP3   OH227979   5.466   3.403   5.793  0.8095  0.5462  0.1750
 2163TIP3    H127980   5.549   3.415   5.839  1.2120  1.1525 -0.6912
 2163TIP3    H227981   5.424   3.489   5.797  0.5930  0.4556 -0.1017
 2164TIP3   OH227982   0.694   0.021  11.939 -0.1356 -0.6450  0.8782
 2164TIP3    H127983   0.685  -0.047  11.872  0.3231 -0.5216  0.6842
 2164TIP3    H227984   0.729   0.096  11.891 -2.7119  0.4898  0.6007
 2165TIP3   OH227985   2.763   2.675  14.148 -0.4179 -0.1005 -0.7797
 2165TIP3    H127986   2.692   2.621  14.183 -1.9482  1.9506 -0.5180
 2165TIP3    H227987   2.738   2.764  14.171  3.8070  0.6122  2.1237
 2166TIP3   OH227988   5.159   3.709   3.002 -0.2220 -0.3756 -0.2936
 2166TIP3    H127989   5.068   3.682   2.993 -0.6004 -0.0325  1.8944
 2166TIP3    H227990   5.204   3.629   3.031 -0.0977 -0.2370 -0.1021
 2167TIP3   OH227991   5.777   5.493  12.833 -0.3068  0.3259  0.0367
 2167TIP3    H127992   5.719   5.417  12.837  0.4284 -0.3762 -1.7419
 2167TIP3    H227993   5.863   5.458  12.814  0.0991  1.5823 -0.5884
 2168TIP3   OH227994   1.298   4.353  13.962  0.0364  0.0838  0.0161
 2168TIP3    H127995   1.318   4.429  13.908 -1.6637 -0.0626 -0.8820
 2168TIP3    H227996   1.253   4.293  13.903 -1.0708 -0.4617  1.3680
 2169TIP3   OH227997   3.664   0.556   2.886 -0.0307  0.1109  0.4100
 2169TIP3    H127998   3.654   0.649   2.907 -1.2673 -0.3693  2.1561
 2169TIP3    H227999   3.753   0.535   2.917  0.6408  0.8895 -0.8893
 2170TIP3   OH228000   3.941   6.500   0.330  0.0711  0.6964 -0.1368
 2170TIP3    H128001   3.967   6.591   0.319  0.1008  0.9376  1.6355
 2170TIP3    H228002   3.874   6.502   0.398 -0.7489 -0.4937 -0.8718
 2171TIP3   OH228003   2.756   4.660  16.792  0.5312  0.0497  0.2757
 2171TIP3    H128004   2.767   4.663  16.887  0.1386  1.2055  0.2945
 2171TIP3    H228005   2.730   4.570  16.774  0.2301 -0.0802  1.3087
 2172TIP3   OH228006   6.378   6.872  10.715 -0.2347 -0.1095 -0.5772
 2172TIP3    H128007   6.307   6.934  10.696  0.1645 -0.2862 -2.9210
 2172TIP3    H228008   6.457   6.918  10.687  0.2614 -0.9820 -0.6285
 2173TIP3   OH228009   1.838   4.412   2.031  0.1137 -0.0276 -0.5767
 2173TIP3    H128010   1.822   4.473   1.959 -0.4120  0.3447 -0.1521
 2173TIP3    H228011   1.756   4.363   2.039  0.4645 -0.6624 -0.7841
 2174TIP3   OH228012   3.946   0.691  10.252  0.1991  0.2105  0.2028
 2174TIP3    H128013   3.855   0.676  10.227  0.2050 -0.5700  0.6208
 2174TIP3    H228014   3.963   0.782  10.229 -0.7881  0.4607  0.4487
 2175TIP3   OH228015   5.764   0.409   1.388 -0.0576  0.1170 -0.2075
 2175TIP3    H128016   5.712   0.406   1.468  0.0220 -2.8109 -0.1379
 2175TIP3    H228017   5.737   0.331   1.339  2.3430 -0.0816 -1.3880
 2176TIP3   OH228018   0.643   0.845  13.665 -0.0827  0.1476  0.5096
 2176TIP3    H128019   0.620   0.794  13.743  0.3922  0.1644  0.6669
 2176TIP3    H228020   0.646   0.936  13.696  2.0526 -0.0089  0.9855
 2177TIP3   OH228021   6.032   5.630   1.467  0.7303 -0.1424  0.2739
 2177TIP3    H128022   5.955   5.670   1.426  1.0549  0.5270  0.2982
 2177TIP3    H228023   6.086   5.601   1.394  0.6746 -0.1795  0.2475
 2178TIP3   OH228024   2.014   1.109   2.594  0.1946  0.2428  0.0587
 2178TIP3    H128025   2.043   1.039   2.652 -1.5278 -1.4150 -0.9492
 2178TIP3    H228026   1.969   1.171   2.651  0.6345 -0.1228  0.8128
 2179TIP3   OH228027   3.636   6.541   0.371  0.1028  0.3441 -0.5520
 2179TIP3    H128028   3.558   6.592   0.350 -0.5129 -0.1050  0.5836
 2179TIP3    H228029   3.654   6.490   0.292 -1.7185 -0.7602 -0.3075
 2180TIP3   OH228030   3.387   0.246   3.826 -0.2389  0.5150 -0.2916
 2180TIP3    H128031   3.292   0.258   3.828  0.0772  3.9629  0.6802
 2180TIP3    H228032   3.422   0.334   3.814  2.8775 -0.7169 -1.2871
 2181TIP3   OH228033   0.723   5.955  15.748  0.2468 -0.2577  0.2768
 2181TIP3    H128034   0.760   5.867  15.744  0.0951 -0.4094  1.8044
 2181TIP3    H228035   0.713   5.973  15.841 -2.0419  0.4021 -0.0425
 2182TIP3   OH228036   0.230   1.427   4.928 -0.1822  0.7162  0.2109
 2182TIP3    H128037   0.168   1.458   4.862  0.6414  0.3496 -0.7561
 2182TIP3    H228038   0.209   1.478   5.006 -0.9906  1.3591 -0.4071
 2183TIP3   OH228039   3.063   4.917  12.209  0.4622  0.2233 -0.5602
 2183TIP3    H128040   2.968   4.915  12.200  0.5728 -0.4241 -1.9590
 2183TIP3    H228041   3.088   5.006  12.184  0.2493  0.3016 -0.4935
 2184TIP3   OH228042   3.288   6.619  11.594 -0.2786 -0.6051 -0.3755
 2184TIP3    H128043   3.251   6.534  11.571 -0.7809 -0.4137 -0.2929
 2184TIP3    H228044   3.224   6.682  11.562 -0.4340 -0.2941  0.4980
 2185TIP3   OH228045   1.233   0.659   3.067  0.4979 -0.5407  0.1804
 2185TIP3    H128046   1.326   0.678   3.070  0.2970  0.6017 -0.4388
 2185TIP3    H228047   1.207   0.681   2.978  0.3033 -4.1867 -0.8074
 2186TIP3   OH228048   3.347   4.225  12.442 -0.1891  0.0892  0.0124
 2186TIP3    H128049   3.305   4.269  12.368  0.0776  1.0685  0.4245
 2186TIP3    H228050   3.402   4.293  12.482 -0.8443 -0.2199  1.5039
 2187TIP3   OH228051   0.159   0.040   3.172 -0.1392  0.0746 -0.3504
 2187TIP3    H128052   0.208   0.065   3.250  0.9868 -0.5966 -0.8078
 2187TIP3    H228053   0.137   0.123   3.129 -1.7211  0.5103  1.1882
 2188TIP3   OH228054   5.375   2.692  11.107 -0.0336  0.1927 -0.0338
 2188TIP3    H128055   5.327   2.764  11.066 -0.9101 -0.3966 -0.0682
 2188TIP3    H228056   5.311   2.649  11.163  0.5038 -0.5165  0.0488
 2189TIP3   OH228057   4.852   2.528   1.675 -0.0530  0.4598  0.0557
 2189TIP3    H128058   4.787   2.550   1.609  2.6895  0.4036 -2.8951
 2189TIP3    H228059   4.905   2.607   1.682  1.0980 -0.3278  0.4307
 2190TIP3   OH228060   0.439   2.702  13.430  0.0024 -0.3585  0.4368
 2190TIP3    H128061   0.496   2.642  13.478  1.1796  0.3532 -0.0255
 2190TIP3    H228062   0.391   2.646  13.370  1.3040 -0.8390 -0.1988
 2191TIP3   OH228063   5.284   5.562  12.472 -0.2000 -0.3136 -0.0729
 2191TIP3    H128064   5.285   5.607  12.557 -1.3798 -0.8226  0.2381
 2191TIP3    H228065   5.361   5.505  12.474 -0.2258 -0.3325  0.6659
 2192TIP3   OH228066   1.224   5.636  13.478  0.0322  0.1860 -0.1370
 2192TIP3    H128067   1.257   5.575  13.412 -0.8911 -0.2333 -0.2296
 2192TIP3    H228068   1.238   5.591  13.561 -0.9963 -0.3287 -0.2337
 2193TIP3   OH228069   0.542   4.440   6.140  0.1069 -0.3844  0.7264
 2193TIP3    H128070   0.526   4.515   6.083  2.8031 -0.5912 -0.5083
 2193TIP3    H228071   0.490   4.369   6.102  0.0181  0.0887 -0.0530
 2194TIP3   OH228072   4.456   4.358   3.674  0.1933 -0.3058 -0.7931
 2194TIP3    H128073   4.413   4.385   3.755 -0.4791 -1.9450 -0.5664
 2194TIP3    H228074   4.531   4.418   3.665 -0.7364  1.0393  0.0817
 2195TIP3   OH228075   2.116   4.543   4.104 -0.5256  0.1656 -0.2877
 2195TIP3    H128076   2.190   4.509   4.053 -2.0361  0.1141 -2.5881
 2195TIP3    H228077   2.082   4.466   4.149 -0.4907 -0.2460 -0.9504
 2196TIP3   OH228078   6.471   3.994   3.103 -0.6187 -0.4070  0.0671
 2196TIP3    H128079   6.539   3.928   3.115 -1.3279 -0.8722  1.9512
 2196TIP3    H228080   6.497   4.042   3.025  1.1927 -1.3738  0.0243
 2197TIP3   OH228081   0.934   4.950  16.001 -0.5952 -0.3347  0.1038
 2197TIP3    H128082   0.890   4.995  15.929 -0.4971 -0.9209 -0.3303
 2197TIP3    H228083   0.901   4.860  15.996  2.4568 -1.4980 -1.7923
 2198TIP3   OH228084   3.198   3.578   4.481  0.5488 -0.7547  0.4224
 2198TIP3    H128085   3.257   3.634   4.534  0.5439  0.2405 -0.5882
 2198TIP3    H228086   3.115   3.581   4.528  1.1810 -1.9116  1.6938
 2199TIP3   OH228087   1.031   3.251   4.526  0.4681 -0.2980 -0.3884
 2199TIP3    H128088   1.091   3.254   4.601 -0.6164 -1.0278  0.5521
 2199TIP3    H228089   1.087   3.231   4.451  1.9361  2.6448 -0.2304
 2200TIP3   OH228090   5.152   6.189  15.632  0.4588  0.2194 -0.0022
 2200TIP3    H128091   5.189   6.268  15.671  0.5356  0.5018 -0.6271
 2200TIP3    H228092   5.174   6.196  15.539  0.7930 -0.7298 -0.0024
 2201TIP3   OH228093   5.795   1.409  13.478 -0.2879 -0.0111 -0.1271
 2201TIP3    H128094   5.785   1.319  13.447 -2.4711  0.7117 -1.6950
 2201TIP3    H228095   5.723   1.421  13.539  0.9555  0.2260  1.3651
 2202TIP3   OH228096   3.239   2.026  16.475 -0.2371  0.2083 -0.1256
 2202TIP3    H128097   3.153   2.060  16.501 -0.1508  2.4870 -2.4093
 2202TIP3    H228098   3.297   2.049  16.547 -1.4003 -0.9447  1.2371
 2203TIP3   OH228099   4.836   1.332   1.039  0.2240 -0.0746  0.4051
 2203TIP3    H128100   4.884   1.355   1.119 -1.3573 -2.6174  2.2581
 2203TIP3    H228101   4.752   1.298   1.070 -0.3026 -1.5874 -2.3206
 2204TIP3   OH228102   6.721   2.535  16.962  0.2220  0.1933  1.0253
 2204TIP3    H128103   6.804   2.564  16.999  1.2487 -2.7649  1.2996
 2204TIP3    H228104   6.658   2.541  17.034  0.6480  0.6249  1.3631
 2205TIP3   OH228105   1.167   3.649  12.973  0.5691 -0.5135  0.2417
 2205TIP3    H128106   1.129   3.733  12.949  1.1081  0.3226  2.1483
 2205TIP3    H228107   1.260   3.668  12.988  0.4359 -1.1174  2.0823
 2206TIP3   OH228108   2.826   4.800  11.783 -0.2669  0.4818 -0.1983
 2206TIP3    H128109   2.891   4.845  11.729  0.2777  0.2923  0.2886
 2206TIP3    H228110   2.766   4.869  11.811 -0.1995  0.6812 -0.5364
 2207TIP3   OH228111   6.376   5.703  12.464 -0.2102  0.3115 -0.0938
 2207TIP3    H128112   6.346   5.625  12.417 -0.7416  0.0158  0.7103
 2207TIP3    H228113   6.467   5.714  12.436 -0.2631 -0.3417 -0.5484
 2208TIP3   OH228114   4.880   3.387  10.481 -0.3439 -0.4333  0.5211
 2208TIP3    H128115   4.798   3.340  10.490 -0.4756 -0.6990 -1.7289
 2208TIP3    H228116   4.854   3.477  10.463 -0.1501 -0.5869 -0.5388
 2209TIP3   OH228117   6.582   4.404   1.990  0.0379 -0.0633 -0.2275
 2209TIP3    H128118   6.576   4.433   1.899 -0.3595  1.5470  0.2654
 2209TIP3    H228119   6.515   4.336   1.999  0.4880 -0.6645 -1.2656
 2210TIP3   OH228120   3.284   3.749   2.999  0.0772  0.0498  0.5201
 2210TIP3    H128121   3.355   3.694   2.966  0.4215  1.5960 -1.5620
 2210TIP3    H228122   3.326   3.804   3.066  1.0064  1.1540 -0.8960
 2211TIP3   OH228123   6.008   2.689   3.554 -0.1034 -0.2891 -0.2730
 2211TIP3    H128124   5.958   2.686   3.472 -2.2066 -3.4276  0.9473
 2211TIP3    H228125   5.953   2.643   3.617  1.8037  1.2769  2.7711
 2212TIP3   OH228126   0.497   6.502  12.561 -0.3586 -0.1951 -0.1800
 2212TIP3    H128127   0.478   6.579  12.614 -1.2710 -0.8741  0.4996
 2212TIP3    H228128   0.510   6.537  12.472  1.5158  0.9906  0.4952
 2213TIP3   OH228129   0.079   4.345   0.820  0.0021 -0.6206  0.2338
 2213TIP3    H128130   0.007   4.395   0.782 -0.5037  0.7818  2.7918
 2213TIP3    H228131   0.041   4.303   0.897  1.5841 -0.9602  0.8750
 2214TIP3   OH228132   3.169   3.710  14.136 -0.0438  0.4565 -0.3032
 2214TIP3    H128133   3.088   3.713  14.187 -0.6427  0.2722 -1.1987
 2214TIP3    H228134   3.146   3.656  14.060  0.8436  0.6383 -0.7101
 2215TIP3   OH228135   5.885   6.034  11.039  0.1027  1.1139 -0.1161
 2215TIP3    H128136   5.806   5.980  11.035  1.7409 -1.3923 -3.7906
 2215TIP3    H228137   5.874   6.098  10.969  0.8580  1.4380  0.0551
 2216TIP3   OH228138   4.604   1.246   2.119  0.4219 -0.2754 -0.4466
 2216TIP3    H128139   4.600   1.315   2.052  0.1886 -1.3913 -1.6196
 2216TIP3    H228140   4.663   1.181   2.082 -1.1903 -1.8021 -0.4227
 2217TIP3   OH228141   2.356   3.032  11.427  0.2012 -0.4797 -0.6337
 2217TIP3    H128142   2.289   2.968  11.448 -0.7826  0.0793 -1.9146
 2217TIP3    H228143   2.430   2.979  11.396  0.6341 -1.1280  1.4027
 2218TIP3   OH228144   2.866   2.986   4.182 -0.2304 -0.0971  0.2518
 2218TIP3    H128145   2.885   2.897   4.155  0.3767 -0.0981  0.6501
 2218TIP3    H228146   2.829   3.028   4.104  1.7267 -0.0130 -0.6871
 2219TIP3   OH228147   0.993   2.318   5.106 -0.2736 -0.3423  0.0931
 2219TIP3    H128148   1.038   2.264   5.171  1.4049 -1.3891 -1.8505
 2219TIP3    H228149   1.042   2.401   5.106  0.1823 -0.6068 -0.3249
 2220TIP3   OH228150   4.170   2.992   3.696 -0.4513  0.5262 -0.0986
 2220TIP3    H128151   4.254   3.012   3.737 -0.1284  0.3524 -0.6686
 2220TIP3    H228152   4.119   2.951   3.765  0.3115 -0.3628 -0.0477
 2221TIP3   OH228153   1.219   1.742   2.929  0.3044  0.1486  0.2279
 2221TIP3    H128154   1.175   1.784   2.855  0.3585  1.4742  0.9196
 2221TIP3    H228155   1.310   1.768   2.921  0.9002 -2.0520 -0.8224
 2222TIP3   OH228156   3.350   2.023  12.934 -1.0164  0.4742  0.0081
 2222TIP3    H128157   3.389   2.002  13.019 -1.6114  0.5309  0.2977
 2222TIP3    H228158   3.271   1.969  12.931 -0.8400  0.2465 -0.6397
 2223TIP3   OH228159   6.870   2.196   3.775 -0.0789 -0.3831 -0.2489
 2223TIP3    H128160   6.884   2.250   3.698  0.8450 -0.9926 -0.5380
 2223TIP3    H228161   6.905   2.248   3.848 -0.1067 -0.1837 -0.3794
 2224TIP3   OH228162   3.258   6.853  16.667 -0.4063 -0.0462 -0.0139
 2224TIP3    H128163   3.335   6.872  16.722 -1.0839 -0.7370  1.2071
 2224TIP3    H228164   3.185   6.849  16.728 -1.6115  1.5221 -1.2621
 2225TIP3   OH228165   5.185   0.960   3.290 -0.3591  0.0327 -0.0054
 2225TIP3    H128166   5.173   1.034   3.230 -2.2619 -0.5367 -0.3838
 2225TIP3    H228167   5.148   0.885   3.243  1.3522 -1.1446  0.4532
 2226TIP3   OH228168   5.544   1.668   2.080 -0.4680  0.0596  0.2533
 2226TIP3    H128169   5.524   1.631   2.166 -0.1066  1.2011  0.8586
 2226TIP3    H228170   5.461   1.704   2.049 -0.4377  0.3278  0.4788
 2227TIP3   OH228171   2.076   3.806  15.238 -0.7422 -0.2706  0.3180
 2227TIP3    H128172   2.148   3.829  15.179  0.2060  0.1966  1.5868
 2227TIP3    H228173   2.043   3.890  15.270 -0.2736 -0.5188  1.5254
 2228TIP3   OH228174   4.708   6.007   4.518 -0.3992 -0.5687 -0.0800
 2228TIP3    H128175   4.714   5.974   4.608  1.2829  0.3271  0.1823
 2228TIP3    H228176   4.749   5.939   4.465  4.5014  1.3749  0.6248
 2229TIP3   OH228177   2.659   5.607   3.934 -0.4986 -0.5722 -0.0207
 2229TIP3    H128178   2.577   5.567   3.905  0.0326 -0.5678 -1.6055
 2229TIP3    H228179   2.723   5.535   3.930 -0.3172 -0.4808  0.8447
 2230TIP3   OH228180   3.163   2.072  14.927 -0.7461  0.3464  0.0172
 2230TIP3    H128181   3.072   2.104  14.930 -0.2435  2.3136 -2.2479
 2230TIP3    H228182   3.165   2.015  14.850  0.1875  1.4097 -0.7813
 2231TIP3   OH228183   1.358   3.178  12.506  0.2140  0.1516 -0.2771
 2231TIP3    H128184   1.266   3.201  12.499 -0.1849 -0.0027  2.9538
 2231TIP3    H228185   1.397   3.208  12.424 -2.2856  2.1693 -0.8394
 2232TIP3   OH228186   0.706   1.094  13.393 -0.1728  0.0650 -0.0725
 2232TIP3    H128187   0.712   1.113  13.487  1.7285  0.8488 -0.3027
 2232TIP3    H228188   0.702   1.180  13.351  0.6434 -0.2314 -0.7866
 2233TIP3   OH228189   5.789   3.621  16.944 -0.5454  0.4109 -0.2993
 2233TIP3    H128190   5.760   3.687  16.880  0.6808  0.6736 -0.5974
 2233TIP3    H228191   5.869   3.585  16.907 -0.2578 -0.0207  0.7068
 2234TIP3   OH228192   3.689   6.626   1.006  0.2235  0.3317  0.6820
 2234TIP3    H128193   3.738   6.704   1.033  0.3617  0.9160 -1.1129
 2234TIP3    H228194   3.597   6.653   1.010  0.1042 -0.2264  2.4138
 2235TIP3   OH228195   1.152   6.857   5.321  0.5374 -0.1907  0.3450
 2235TIP3    H128196   1.233   6.898   5.290  0.9047 -1.0323  0.1660
 2235TIP3    H228197   1.157   6.864   5.417 -0.2635  1.7691  0.2965
 2236TIP3   OH228198   2.932   4.105  16.061 -0.2472 -0.0887  0.3111
 2236TIP3    H128199   2.906   4.082  16.150  0.8866  1.6753  1.1697
 2236TIP3    H228200   2.886   4.187  16.043 -1.0780 -0.8244 -1.0607
 2237TIP3   OH228201   5.656   5.864  12.453  0.2437 -0.0818 -0.5126
 2237TIP3    H128202   5.716   5.908  12.514 -0.5842  1.2413 -0.5986
 2237TIP3    H228203   5.678   5.901  12.367 -0.2040 -0.1247 -0.6501
 2238TIP3   OH228204   6.448   5.370   0.890 -0.4261 -0.0012  0.7969
 2238TIP3    H128205   6.392   5.429   0.840 -1.5316 -1.4559  0.2530
 2238TIP3    H228206   6.461   5.415   0.973 -1.0983  1.0909  0.3287
 2239TIP3   OH228207   6.369   2.626   5.061 -0.5626  0.1301  0.0389
 2239TIP3    H128208   6.350   2.679   4.983  0.6007  0.7590  0.1637
 2239TIP3    H228209   6.341   2.681   5.134  0.3811  0.4626  0.1563
 2240TIP3   OH228210   2.250   2.401  15.550  0.4913  0.1606  0.3567
 2240TIP3    H128211   2.254   2.310  15.521  1.1328 -0.7444  2.9484
 2240TIP3    H228212   2.341   2.431  15.548  0.5344  0.1190  1.1873
 2241TIP3   OH228213   4.968   6.374   1.131  0.1823 -0.0088  0.3784
 2241TIP3    H128214   4.874   6.374   1.111  0.4286  0.0011 -0.8509
 2241TIP3    H228215   4.973   6.402   1.222 -1.0359 -0.4355  0.5966
 2242TIP3   OH228216   5.772   1.968  11.281 -0.0505 -0.4087  0.1436
 2242TIP3    H128217   5.706   1.904  11.309  1.4865 -1.6243  1.1137
 2242TIP3    H228218   5.797   2.013  11.362  1.6361 -1.2649  0.1442
 2243TIP3   OH228219   2.654   4.436  12.377  0.2851 -0.0546  0.1549
 2243TIP3    H128220   2.575   4.466  12.422  0.1735  1.0521 -0.7426
 2243TIP3    H228221   2.715   4.510  12.383  1.2357 -0.8545  0.7435
 2244TIP3   OH228222   1.100   4.978  13.271  0.6767  0.0292 -0.1975
 2244TIP3    H128223   1.174   5.022  13.231  2.5328 -1.4816  1.3621
 2244TIP3    H228224   1.103   4.889  13.235 -1.8116  0.4850 -1.8128
 2245TIP3   OH228225   4.179   1.294  14.703 -0.2196 -1.0719  0.1429
 2245TIP3    H128226   4.087   1.309  14.725  0.0454 -0.3255  0.7909
 2245TIP3    H228227   4.178   1.217  14.645 -1.3248 -0.5675 -0.5482
 2246TIP3   OH228228   0.654   1.003  13.108 -0.1954 -0.2828 -0.3758
 2246TIP3    H128229   0.619   1.074  13.054 -3.5270 -1.2764  0.2931
 2246TIP3    H228230   0.689   1.047  13.186  1.4097  0.8526 -1.6537
 2247TIP3   OH228231   3.676   3.863   1.349 -0.5613  0.1361  0.1100
 2247TIP3    H128232   3.643   3.893   1.434  0.4503  1.9778 -0.1046
 2247TIP3    H228233   3.740   3.795   1.372 -0.1598  0.7416  0.8567
 2248TIP3   OH228234   0.117   3.402  16.707 -0.2930 -0.3472 -0.2700
 2248TIP3    H128235   0.056   3.432  16.774 -1.4416 -1.6766 -0.6762
 2248TIP3    H228236   0.067   3.402  16.626  0.7449  0.1232 -0.9288
 2249TIP3   OH228237   3.811   5.542   0.174  0.8018  0.2781 -0.5078
 2249TIP3    H128238   3.726   5.579   0.201  0.9749 -0.2269  0.7952
 2249TIP3    H228239   3.852   5.514   0.256  2.1669  0.3605 -1.1366
 2250TIP3   OH228240   3.353   2.749   4.322  0.1515  0.0465  0.2198
 2250TIP3    H128241   3.407   2.711   4.252 -0.5600  2.0920 -1.5409
 2250TIP3    H228242   3.263   2.732   4.295 -0.1382  0.0270  1.1618
 2251TIP3   OH228243   4.797   2.985   0.498  0.1179 -0.5287 -0.8684
 2251TIP3    H128244   4.818   2.892   0.510  0.5638 -0.4673 -1.1270
 2251TIP3    H228245   4.880   3.030   0.512 -0.8587  0.2892  3.6473
 2252TIP3   OH228246   1.494   1.703   4.300 -0.1950  0.2013 -0.0413
 2252TIP3    H128247   1.523   1.710   4.209  0.7203  0.7775  0.2794
 2252TIP3    H228248   1.401   1.722   4.297 -0.1324  0.4379 -0.8337
 2253TIP3   OH228249   2.353   4.696  10.917 -0.3473  0.5101 -0.0021
 2253TIP3    H128250   2.425   4.752  10.943 -0.0918 -1.0580  3.1805
 2253TIP3    H228251   2.274   4.746  10.940 -0.2037  0.8963 -0.3461
 2254TIP3   OH228252   2.609   0.560  14.635 -0.0538  0.2283  0.2203
 2254TIP3    H128253   2.553   0.540  14.709 -0.3903 -1.1699 -0.3777
 2254TIP3    H228254   2.664   0.482  14.625 -1.6536 -0.7091 -2.4426
 2255TIP3   OH228255   1.545   2.209  16.402  0.0526 -0.1019 -0.2436
 2255TIP3    H128256   1.633   2.193  16.367 -1.2260 -2.2946 -2.8733
 2255TIP3    H228257   1.504   2.266  16.337 -0.6365  0.5033  0.7041
 2256TIP3   OH228258   5.538   5.224   5.271 -0.2153 -0.2791  0.3804
 2256TIP3    H128259   5.492   5.140   5.270  0.4229 -0.6441 -1.5384
 2256TIP3    H228260   5.629   5.202   5.252 -0.2787  0.9417 -1.5510
 2257TIP3   OH228261   3.031   6.668  13.612  0.5833  0.0071 -0.3619
 2257TIP3    H128262   3.004   6.747  13.659 -1.4821  0.4336 -2.1187
 2257TIP3    H228263   3.049   6.604  13.681  2.6182  2.0301  1.1218
 2258TIP3   OH228264   0.423   2.378   2.856  0.3540  0.0898  0.3802
 2258TIP3    H128265   0.375   2.432   2.793  0.5668 -0.4937 -0.2928
 2258TIP3    H228266   0.409   2.422   2.941 -1.2432  0.0183  0.1854
 2259TIP3   OH228267   4.272   2.804  13.556  0.0670  0.1352 -0.1624
 2259TIP3    H128268   4.308   2.747  13.625  1.4613  0.4897 -0.5669
 2259TIP3    H228269   4.305   2.766  13.474 -0.2525  0.6515 -0.5371
 2260TIP3   OH228270   3.394   5.977  15.339 -0.5500 -0.8103  0.4285
 2260TIP3    H128271   3.305   5.974  15.374 -1.0090 -0.4252 -0.6572
 2260TIP3    H228272   3.401   6.064  15.300 -0.3885 -1.4986 -1.1845
 2261TIP3   OH228273   1.996   1.607  14.784  0.2231 -0.7262 -0.0232
 2261TIP3    H128274   1.910   1.582  14.752 -0.0926 -0.8807  0.9086
 2261TIP3    H228275   2.057   1.553  14.733 -0.3105 -1.5327  0.1689
 2262TIP3   OH228276   0.160   5.735   5.495  0.2294  0.2289 -0.0334
 2262TIP3    H128277   0.238   5.737   5.550 -2.1180  2.4551  3.6043
 2262TIP3    H228278   0.105   5.666   5.532 -0.7465  0.6634 -0.6256
 2263TIP3   OH228279   0.972   5.680   3.615 -0.4025 -0.4561  0.5636
 2263TIP3    H128280   0.998   5.732   3.691 -0.2668  0.7431 -0.2748
 2263TIP3    H228281   0.999   5.733   3.540  0.0857 -1.9193 -0.3295
 2264TIP3   OH228282   5.171   6.111   6.318  0.2254 -0.1970 -0.2498
 2264TIP3    H128283   5.228   6.142   6.388  0.5762 -0.1851 -0.5357
 2264TIP3    H228284   5.136   6.028   6.350  1.8328 -1.1165 -0.8163
 2265TIP3   OH228285   4.418   2.107   2.197  0.3126 -0.5179  0.3473
 2265TIP3    H128286   4.470   2.036   2.160  1.0186 -0.6489  1.5275
 2265TIP3    H228287   4.361   2.065   2.260  1.5320  0.0398  1.8975
 2266TIP3   OH228288   6.702   5.229   4.754  0.1398 -0.0285 -0.2859
 2266TIP3    H128289   6.691   5.283   4.832 -0.2270 -0.5371  0.0248
 2266TIP3    H228290   6.684   5.287   4.681  0.0002  0.3312  0.0311
 2267TIP3   OH228291   3.321   2.758   2.588  0.3755 -0.5441 -0.0236
 2267TIP3    H128292   3.313   2.685   2.526  0.5857 -0.0697 -0.6181
 2267TIP3    H228293   3.329   2.716   2.674 -0.1487 -1.2056 -0.2893
 2268TIP3   OH228294   3.449   1.724  11.369  0.4427  0.1417 -0.1507
 2268TIP3    H128295   3.523   1.776  11.400 -0.5224  0.0502  2.5315
 2268TIP3    H228296   3.386   1.788  11.337  1.3099  0.2632 -1.7062
 2269TIP3   OH228297   5.354   2.410  14.843 -0.3366  0.5941  0.5785
 2269TIP3    H128298   5.384   2.419  14.753 -1.0694  3.6285  0.5428
 2269TIP3    H228299   5.375   2.319  14.867  0.9451  0.0742 -2.2121
 2270TIP3   OH228300   3.743   4.100  15.595 -0.0679 -0.0794 -0.0489
 2270TIP3    H128301   3.776   4.069  15.510  1.7060 -0.3940  0.7139
 2270TIP3    H228302   3.716   4.190  15.578  2.0177  0.4978 -0.5674
 2271TIP3   OH228303   6.346   2.983  10.957 -0.5315 -0.1766 -0.0854
 2271TIP3    H128304   6.328   3.064  11.006 -2.6266  0.1372 -1.2596
 2271TIP3    H228305   6.295   2.992  10.877  2.7142 -0.6793 -2.4356
 2272TIP3   OH228306   5.275   6.279   1.499  0.1725 -0.0579 -0.2118
 2272TIP3    H128307   5.356   6.271   1.550  1.2144 -1.8979 -2.0225
 2272TIP3    H228308   5.240   6.190   1.496 -0.0521  0.0580 -2.3286
 2273TIP3   OH228309   3.251   6.060  11.779 -0.0493  0.2724  0.5815
 2273TIP3    H128310   3.182   6.064  11.846 -0.0822 -1.0051  0.6387
 2273TIP3    H228311   3.331   6.082  11.826  0.3629 -3.1151  1.7355
 2274TIP3   OH228312   0.928   6.153   1.941 -0.1227 -0.0696  0.0565
 2274TIP3    H128313   0.908   6.205   1.863  0.1499  0.2222  0.1851
 2274TIP3    H228314   0.881   6.197   2.012  0.0075 -0.0728  0.1434
 2275TIP3   OH228315   2.923   1.820  12.485  0.2067  0.3712  0.0230
 2275TIP3    H128316   2.958   1.800  12.572  2.1310  0.6713 -0.6321
 2275TIP3    H228317   2.990   1.788  12.424 -2.0404 -1.8505 -1.4963
 2276TIP3   OH228318   0.272   1.844   1.478  0.6928 -0.1571 -0.4168
 2276TIP3    H128319   0.230   1.765   1.442  1.5607 -1.0499  0.4613
 2276TIP3    H228320   0.273   1.829   1.572  2.7507 -0.0766 -0.3956
 2277TIP3   OH228321   0.883   1.416  11.889  0.4810 -0.5595  0.0458
 2277TIP3    H128322   0.923   1.395  11.804 -0.5547  0.9288 -0.8555
 2277TIP3    H228323   0.854   1.331  11.923  0.3484 -1.1154 -1.3759
 2278TIP3   OH228324   5.644   4.540  12.546 -0.0887  0.0559 -0.1103
 2278TIP3    H128325   5.732   4.530  12.510 -0.7102 -1.8586 -1.2611
 2278TIP3    H228326   5.639   4.477  12.617  0.1056  1.6343  1.3552
 2279TIP3   OH228327   0.018   1.218  12.371  0.0488  0.0379 -0.2510
 2279TIP3    H128328   0.076   1.154  12.413  0.1169 -0.7947 -1.5334
 2279TIP3    H228329  -0.070   1.187  12.393  0.0793  0.2206  0.1421
 2280TIP3   OH228330   3.865   6.587  13.799 -0.2565  0.0857  0.2418
 2280TIP3    H128331   3.869   6.677  13.766 -0.0001  0.1766  0.5231
 2280TIP3    H228332   3.892   6.533  13.724 -1.7902  0.1318 -0.3763
 2281TIP3   OH228333   1.292   6.759  15.800  0.6948  0.0728  0.2594
 2281TIP3    H128334   1.305   6.800  15.715  0.5633  0.4735  0.4309
 2281TIP3    H228335   1.285   6.832  15.861 -0.6120 -0.1766  0.4236
 2282TIP3   OH228336   2.634   1.516  11.574 -0.4611 -0.5656  0.0252
 2282TIP3    H128337   2.658   1.592  11.522 -1.1117  0.8003  1.6447
 2282TIP3    H228338   2.677   1.530  11.659 -0.2208 -2.2372  0.2154
 2283TIP3   OH228339   1.606   6.055   3.020 -0.1091  0.2214  0.1160
 2283TIP3    H128340   1.693   6.094   3.017  0.2852 -0.5549  0.9442
 2283TIP3    H228341   1.548   6.126   3.046  0.3311  0.6417 -0.0387
 2284TIP3   OH228342   6.238   1.161   3.662  0.5226  0.2354 -0.1850
 2284TIP3    H128343   6.283   1.184   3.581 -1.6502  0.9908 -1.2726
 2284TIP3    H228344   6.166   1.224   3.668 -1.5546 -2.0114  0.3828
 2285TIP3   OH228345   6.140   1.220  10.509  0.3211 -0.0718 -0.9562
 2285TIP3    H128346   6.105   1.186  10.427  0.0272  0.8728 -1.2314
 2285TIP3    H228347   6.097   1.305  10.521  0.4679 -0.1276  0.1002
 2286TIP3   OH228348   0.531   5.469  11.519 -0.0928  0.7067  0.2828
 2286TIP3    H128349   0.556   5.378  11.530  1.0891  0.8767 -0.8283
 2286TIP3    H228350   0.549   5.509  11.604  2.0502  0.4939 -0.0372
 2287TIP3   OH228351   2.088   6.754  15.808 -0.4140 -0.0712  0.4837
 2287TIP3    H128352   2.018   6.814  15.832 -1.2581  0.0430 -1.9374
 2287TIP3    H228353   2.059   6.717  15.724  2.5863  0.2547 -0.8146
 2288TIP3   OH228354   4.537   4.757   1.907  0.0062  0.1180 -0.5027
 2288TIP3    H128355   4.573   4.831   1.955  0.2244 -0.0906 -0.3429
 2288TIP3    H228356   4.565   4.680   1.957  0.6098 -0.1276 -1.2107
 2289TIP3   OH228357   4.339   6.015  12.342  0.2715  0.3290 -0.1605
 2289TIP3    H128358   4.297   6.100  12.335 -0.9424 -0.0110  2.0802
 2289TIP3    H228359   4.340   5.981  12.253 -5.3212 -0.0925 -0.3839
 2290TIP3   OH228360   1.793   1.648   4.634 -0.1937 -0.1232 -0.2454
 2290TIP3    H128361   1.817   1.656   4.541 -1.5038  0.8976 -0.5329
 2290TIP3    H228362   1.869   1.683   4.681  0.8525 -1.4723 -0.8627
 2291TIP3   OH228363   3.009   3.600   1.815  0.1686 -0.0727  0.0604
 2291TIP3    H128364   2.936   3.541   1.796  0.9687 -0.7658 -0.9712
 2291TIP3    H228365   3.025   3.646   1.733  1.5056 -0.6347 -0.0162
 2292TIP3   OH228366   6.733   4.510   0.843 -0.2579 -0.3234  0.2003
 2292TIP3    H128367   6.683   4.521   0.924  0.6619 -2.0576  1.0445
 2292TIP3    H228368   6.768   4.597   0.825  0.9216 -0.2047  2.6301
 2293TIP3   OH228369   2.217   5.071  11.530 -0.0525  0.2482 -0.1567
 2293TIP3    H128370   2.235   5.089  11.438 -2.6686 -0.0096 -0.7925
 2293TIP3    H228371   2.137   5.018  11.529 -0.4030  0.6120  2.2903
 2294TIP3   OH228372   4.894   6.520   2.851  0.1065 -0.5322 -0.4112
 2294TIP3    H128373   4.904   6.428   2.824  2.2846 -0.7058  0.7818
 2294TIP3    H228374   4.978   6.560   2.829 -0.0238  0.6303  1.0832
 2295TIP3   OH228375   1.582   5.277  11.582 -0.6733 -0.0934 -0.0730
 2295TIP3    H128376   1.637   5.216  11.532 -0.7497 -0.9351  0.8353
 2295TIP3    H228377   1.641   5.315  11.647 -0.7626  0.3811 -0.2643
 2296TIP3   OH228378   2.256   4.756   4.600 -0.4917 -0.2578  0.4782
 2296TIP3    H128379   2.249   4.844   4.562  0.1244 -1.3036 -2.2966
 2296TIP3    H228380   2.350   4.737   4.598 -0.7397 -1.4780 -0.2177
 2297TIP3   OH228381   5.485   5.485   2.185 -0.2393  0.3494 -0.4475
 2297TIP3    H128382   5.433   5.536   2.248  0.2722 -0.5026  0.6945
 2297TIP3    H228383   5.514   5.409   2.234 -0.8212 -0.9707 -2.0716
 2298TIP3   OH228384   5.819   5.786   0.515  0.0148  0.3381 -0.3260
 2298TIP3    H128385   5.787   5.861   0.466 -0.9270  0.4370  0.4050
 2298TIP3    H228386   5.748   5.721   0.508 -0.5905  0.7203  1.6960
 2299TIP3   OH228387   1.256   0.894   0.350  0.6228  0.1474 -0.6284
 2299TIP3    H128388   1.333   0.838   0.354  0.1645 -0.3933  0.9563
 2299TIP3    H228389   1.291   0.983   0.357  1.1085 -0.0974  0.1537
 2300TIP3   OH228390   1.100   3.710  12.260  0.1637  0.2233  0.1921
 2300TIP3    H128391   1.047   3.666  12.327  0.8350  1.2883  1.4708
 2300TIP3    H228392   1.036   3.754  12.204 -0.3803 -0.0304  0.6026
 2301TIP3   OH228393   1.117   3.656   2.420  0.0166  0.0840  0.5803
 2301TIP3    H128394   1.053   3.595   2.383 -0.4918  0.4336  0.8622
 2301TIP3    H228395   1.095   3.740   2.380 -0.2116  0.3633  1.2810
 2302TIP3   OH228396   2.852   3.088  16.759  0.2325  0.5274  0.3653
 2302TIP3    H128397   2.871   3.171  16.802 -0.4486  0.3801  0.9799
 2302TIP3    H228398   2.933   3.065  16.714  1.0662  0.5899  1.7556
 2303TIP3   OH228399   0.851   5.261   1.799 -0.0484 -0.4599  0.2068
 2303TIP3    H128400   0.944   5.245   1.817  0.5193  0.6982 -1.4551
 2303TIP3    H228401   0.840   5.355   1.817 -0.2084  0.0244 -2.1389
 2304TIP3   OH228402   6.524   6.448  11.168  0.2227 -0.1287 -0.1098
 2304TIP3    H128403   6.536   6.456  11.262  1.1612  0.7565 -0.2839
 2304TIP3    H228404   6.522   6.538  11.136 -1.7520 -0.3501 -0.7652
 2305TIP3   OH228405   2.830   3.384   1.755  0.0644 -0.1332 -0.0628
 2305TIP3    H128406   2.887   3.338   1.816 -0.9241  1.9982  2.6600
 2305TIP3    H228407   2.744   3.381   1.796 -0.6225  1.5117 -1.2704
 2306TIP3   OH228408   0.233   1.087  11.848 -0.3102  0.0807 -0.4479
 2306TIP3    H128409   0.159   1.050  11.896 -0.3304  0.5760 -0.0900
 2306TIP3    H228410   0.213   1.180  11.841  0.8163  0.4384  0.6670
 2307TIP3   OH228411   0.728   1.329   3.467  0.1164 -0.7845  0.0727
 2307TIP3    H128412   0.679   1.248   3.477  1.0635 -1.3270  0.5198
 2307TIP3    H228413   0.662   1.398   3.468 -0.6903 -1.5354 -0.1629
 2308TIP3   OH228414   5.141   2.303  13.612  0.1240 -0.7440  0.3836
 2308TIP3    H128415   5.066   2.363  13.615 -0.0112 -0.9548  2.4252
 2308TIP3    H228416   5.124   2.240  13.681  0.1467 -3.3723 -1.8591
 2309TIP3   OH228417   2.510   6.579   1.162  0.2602 -0.2572 -0.0964
 2309TIP3    H128418   2.528   6.490   1.195  0.7754  0.3065  1.2029
 2309TIP3    H228419   2.525   6.636   1.237 -0.0709  0.9456 -0.9165
 2310TIP3   OH228420   4.686   1.458   1.446 -0.2322  0.4329 -0.0723
 2310TIP3    H128421   4.743   1.422   1.378 -0.1745  0.6059 -0.1157
 2310TIP3    H228422   4.732   1.439   1.528 -1.3855 -1.8451  0.1179
 2311TIP3   OH228423   1.261   5.245  16.470 -0.1392  0.7989 -0.2305
 2311TIP3    H128424   1.179   5.197  16.479  0.3927 -0.1134 -0.0191
 2311TIP3    H228425   1.325   5.177  16.446  0.6658  1.3766  0.2298
 2312TIP3   OH228426   2.224   2.812  15.175 -0.3344 -0.3308  0.3721
 2312TIP3    H128427   2.129   2.819  15.165 -0.1787  2.0174 -0.0685
 2312TIP3    H228428   2.258   2.812  15.086  0.1048 -1.3757  0.5223
 2313TIP3   OH228429   6.384   2.433  12.361  0.3724 -0.0736 -0.1056
 2313TIP3    H128430   6.373   2.476  12.446 -1.4075 -0.1959 -0.2327
 2313TIP3    H228431   6.351   2.496  12.297 -0.1988 -0.7658 -0.5056
 2314TIP3   OH228432   5.245   6.491   4.073  0.2017  0.1088  0.0119
 2314TIP3    H128433   5.276   6.558   4.134  0.4528  1.1468 -1.2171
 2314TIP3    H228434   5.296   6.506   3.994 -1.0363 -0.3723 -0.8995
 2315TIP3   OH228435   1.283   6.736   4.235  0.3062 -0.2889  0.1137
 2315TIP3    H128436   1.339   6.676   4.186  0.0305  1.3999 -2.4492
 2315TIP3    H228437   1.201   6.688   4.247  0.7853 -1.1686 -0.0273
 2316TIP3   OH228438   0.174   5.913   0.580  0.3349 -0.5061  0.2485
 2316TIP3    H128439   0.156   5.821   0.601  0.0979 -0.5327 -0.0638
 2316TIP3    H228440   0.114   5.933   0.508 -0.4032  0.2050  1.0373
 2317TIP3   OH228441   2.841   1.890   2.930 -0.5556  0.3780 -0.0543
 2317TIP3    H128442   2.919   1.861   2.882 -0.3612  1.8206 -0.6519
 2317TIP3    H228443   2.769   1.843   2.889 -0.2267  0.5487 -0.8506
 2318TIP3   OH228444   6.124   6.602  12.634 -0.5037 -0.0088  0.3858
 2318TIP3    H128445   6.103   6.576  12.544 -2.0042  2.6673 -0.1486
 2318TIP3    H228446   6.208   6.648  12.627 -0.0598 -0.7829  0.5642
 2319TIP3   OH228447   0.031   4.423   5.145  0.8764  0.1620 -0.4170
 2319TIP3    H128448   0.064   4.460   5.063  1.9033 -2.2506 -1.1695
 2319TIP3    H228449  -0.041   4.366   5.118 -0.2436  1.0232  0.6405
 2320TIP3   OH228450   0.016   5.494   5.003  0.0893 -0.2076 -0.7337
 2320TIP3    H128451   0.071   5.424   5.038  0.6640 -0.2446 -1.6668
 2320TIP3    H228452   0.007   5.556   5.075  1.0835 -0.3613 -0.4643
 2321TIP3   OH228453   1.930   5.862   3.838 -0.1284 -0.2860  0.1176
 2321TIP3    H128454   1.923   5.897   3.749 -1.3318 -0.1642  0.2429
 2321TIP3    H228455   2.022   5.875   3.862 -0.3765  2.4063 -0.0172
 2322TIP3   OH228456   5.897   0.190  13.623 -0.4887 -0.3000 -0.4622
 2322TIP3    H128457   5.991   0.177  13.606 -0.7651 -1.7567 -1.0025
 2322TIP3    H228458   5.875   0.124  13.688 -1.7403 -2.0613 -2.5158
 2323TIP3   OH228459   4.299   3.330   3.458  0.0657  0.0374  0.7538
 2323TIP3    H128460   4.333   3.417   3.436  3.7682 -1.1410  1.2317
 2323TIP3    H228461   4.242   3.308   3.384  0.1870  2.2378 -0.0899
 2324TIP3   OH228462   2.102   6.032  12.266  0.0826  0.2346 -0.2470
 2324TIP3    H128463   2.100   6.045  12.361  1.8648 -2.8798  0.3593
 2324TIP3    H228464   2.151   6.106  12.232 -0.6902  1.4713  1.2144
 2325TIP3   OH228465   2.432   0.461   0.673 -0.9497  0.3025 -0.5372
 2325TIP3    H128466   2.402   0.470   0.764  0.3441  2.0675 -0.2302
 2325TIP3    H228467   2.476   0.376   0.670 -1.4775 -0.0133  0.3379
 2326TIP3   OH228468   5.046   0.891   4.131  0.8781 -0.1916  0.1568
 2326TIP3    H128469   4.961   0.921   4.100  0.2887 -1.2225  0.7616
 2326TIP3    H228470   5.070   0.820   4.071  1.5087  0.3542 -0.2563
 2327TIP3   OH228471   3.683   6.311  11.062  0.0193 -0.1226  0.1822
 2327TIP3    H128472   3.717   6.313  11.151  0.4739 -0.5286  0.0235
 2327TIP3    H228473   3.661   6.402  11.043  1.0929  0.1716  0.2667
 2328TIP3   OH228474   0.219   0.171   5.435 -0.5008 -0.0358 -0.2128
 2328TIP3    H128475   0.302   0.124   5.439 -0.2556  0.1532 -2.2260
 2328TIP3    H228476   0.244   0.263   5.429 -0.9206  0.1674  0.9182
 2329TIP3   OH228477   0.228   3.272  11.320 -0.2867 -0.0875 -0.0910
 2329TIP3    H128478   0.252   3.339  11.384  3.0758 -1.8674  0.7309
 2329TIP3    H228479   0.301   3.270  11.258 -0.9609 -1.9711 -0.9147
 2330TIP3   OH228480   4.403   0.169   4.964 -0.1410  0.7351  0.4890
 2330TIP3    H128481   4.366   0.251   4.932 -0.2032  0.3629 -0.4290
 2330TIP3    H228482   4.330   0.107   4.962  0.2039  0.3373 -0.0592
 2331TIP3   OH228483   3.549   2.146   2.327  0.3719  0.0367 -0.3911
 2331TIP3    H128484   3.572   2.066   2.375 -0.3600 -0.2288 -0.4746
 2331TIP3    H228485   3.593   2.216   2.375  0.2908 -0.3187  0.2102
 2332TIP3   OH228486   4.434   5.396   2.356 -0.4079 -0.8078 -0.9882
 2332TIP3    H128487   4.414   5.335   2.285 -1.2340 -2.3584  0.5013
 2332TIP3    H228488   4.506   5.449   2.322 -1.7391 -0.4482 -3.5266
 2333TIP3   OH228489   4.941   4.406   1.779  0.4087 -0.0061 -0.3658
 2333TIP3    H128490   4.872   4.398   1.713  0.0855  0.0449 -0.0320
 2333TIP3    H228491   5.014   4.355   1.742  0.4213  0.4655 -1.0096
 2334TIP3   OH228492   5.298   4.513   5.847  0.1619 -0.6452 -0.4581
 2334TIP3    H128493   5.296   4.579   5.916 -0.0166  0.4325 -1.4567
 2334TIP3    H228494   5.347   4.554   5.776 -0.6756 -1.2616 -1.4245
 2335TIP3   OH228495   4.002   4.138   5.448  0.4255 -0.3910  0.2640
 2335TIP3    H128496   3.927   4.182   5.408 -0.6463 -1.1510  1.3536
 2335TIP3    H228497   3.995   4.160   5.541  2.4398  0.7430  0.1935
 2336TIP3   OH228498   5.701   3.264  14.252  0.2902 -0.4463  0.2498
 2336TIP3    H128499   5.636   3.308  14.308  0.1069 -0.1903 -0.1579
 2336TIP3    H228500   5.778   3.320  14.256 -0.4425  0.7350 -1.4645
 2337TIP3   OH228501   5.875   5.411  16.079 -0.3739  0.1839  0.2683
 2337TIP3    H128502   5.926   5.392  16.158 -1.0942  0.6365  0.8568
 2337TIP3    H228503   5.822   5.487  16.102 -0.4254  0.4684 -0.7345
 2338TIP3   OH228504   2.255   6.830  16.167  0.3847  0.6736  0.7473
 2338TIP3    H128505   2.266   6.795  16.078  1.9003 -0.4420  1.3344
 2338TIP3    H228506   2.237   6.923  16.154 -1.5383  0.1415 -0.7897
 2339TIP3   OH228507   4.955   3.747  15.316  0.3766  0.2787 -0.1802
 2339TIP3    H128508   4.948   3.676  15.379  0.9179  0.1885 -0.2150
 2339TIP3    H228509   4.875   3.742  15.265 -0.0713  0.3644  0.5095
 2340TIP3   OH228510   2.635   5.305  11.376 -0.3379  0.7617  0.1269
 2340TIP3    H128511   2.636   5.333  11.468  1.2268 -0.7430  0.6334
 2340TIP3    H228512   2.605   5.214  11.379  0.6733  0.3723 -0.7176
 2341TIP3   OH228513   1.004   2.010   3.669 -0.1961  0.2783 -0.1138
 2341TIP3    H128514   0.916   2.007   3.705  0.2822  0.9781  1.1876
 2341TIP3    H228515   0.993   1.989   3.576 -1.6032 -0.5374  0.2086
 2342TIP3   OH228516   5.647   6.237  12.334 -0.6261 -0.1512 -0.2003
 2342TIP3    H128517   5.588   6.243  12.410  1.0272 -0.5345  1.1673
 2342TIP3    H228518   5.676   6.328  12.321  0.2519 -0.2961  0.6204
 2343TIP3   OH228519   2.013   3.164  14.552  0.3634 -0.1867  0.1859
 2343TIP3    H128520   1.947   3.188  14.618  0.0133  0.9529 -0.5476
 2343TIP3    H228521   1.981   3.082  14.514  1.1460 -1.4934  2.1787
 2344TIP3   OH228522   4.952   2.801  15.362 -0.3526 -0.0278  0.2740
 2344TIP3    H128523   5.031   2.845  15.394 -0.2689  0.5552 -0.6920
 2344TIP3    H228524   4.909   2.769  15.441 -0.1380  1.3387  0.9865
 2345TIP3   OH228525   6.738   5.360   5.698  0.2046  0.3187 -1.1751
 2345TIP3    H128526   6.686   5.285   5.668  1.3735 -0.2958 -1.7233
 2345TIP3    H228527   6.680   5.406   5.759  0.8084 -3.2991  2.5577
 2346TIP3   OH228528   4.788   3.399   1.784  0.8017 -0.1566 -0.0281
 2346TIP3    H128529   4.709   3.356   1.752  0.1425  0.8915  0.1563
 2346TIP3    H228530   4.859   3.343   1.753 -0.0576 -2.1335  1.3462
 2347TIP3   OH228531   4.544   0.071   5.326  0.2151 -0.4525 -0.3269
 2347TIP3    H128532   4.553   0.132   5.400 -0.7490 -1.1979  0.4274
 2347TIP3    H228533   4.570   0.123   5.250  1.1228  0.3671  0.5096
 2348TIP3   OH228534   4.421   4.136  11.674  0.0874  0.4626  0.0459
 2348TIP3    H128535   4.442   4.189  11.750 -0.2769 -0.2867  0.6823
 2348TIP3    H228536   4.459   4.184  11.600 -0.7328  1.8992  0.5168
 2349TIP3   OH228537   5.631   0.446   4.526 -0.1588  0.4615 -0.8274
 2349TIP3    H128538   5.542   0.478   4.511 -0.1726  0.0617 -1.6291
 2349TIP3    H228539   5.642   0.450   4.621 -0.0259  3.1906 -0.8886
 2350TIP3   OH228540   3.029   0.849   5.131 -0.4001  0.3745  0.1004
 2350TIP3    H128541   3.011   0.758   5.156  1.0909 -0.3870 -1.3758
 2350TIP3    H228542   2.977   0.862   5.052  3.4195 -1.1998 -3.0425
 2351TIP3   OH228543   0.399   6.751  13.368  0.3590  0.7892 -0.3031
 2351TIP3    H128544   0.308   6.778  13.385 -0.8206 -1.5703 -2.1616
 2351TIP3    H228545   0.410   6.671  13.418  0.7295  0.0230 -1.5588
 2352TIP3   OH228546   2.596   3.945   5.648  0.4888  1.0688 -0.3346
 2352TIP3    H128547   2.667   4.009   5.638  1.2654  0.1320 -0.9790
 2352TIP3    H228548   2.639   3.860   5.639 -0.0670  0.2900  3.0880
 2353TIP3   OH228549   2.734   5.289  16.454 -0.3626 -0.6290  0.2031
 2353TIP3    H128550   2.758   5.287  16.547  1.6983  0.5045 -0.2321
 2353TIP3    H228551   2.669   5.358  16.447  1.6159  1.3797  0.4448
 2354TIP3   OH228552   2.356   2.798   4.386 -0.2407  0.0465 -0.0092
 2354TIP3    H128553   2.412   2.769   4.314 -1.0969 -0.1909 -0.5820
 2354TIP3    H228554   2.399   2.877   4.419  0.8336 -0.5336  0.0404
 2355TIP3   OH228555   4.290   3.070  12.090 -0.4069 -0.6758  0.2671
 2355TIP3    H128556   4.208   3.022  12.075 -1.1731  0.9314 -0.9666
 2355TIP3    H228557   4.274   3.120  12.169 -0.2522 -1.0766  0.5570
 2356TIP3   OH228558   2.052   1.188  11.354  0.4932 -0.5545  0.1118
 2356TIP3    H128559   2.015   1.118  11.300 -1.6833  0.5372  0.0608
 2356TIP3    H228560   2.120   1.228  11.299  1.9097 -2.6658  0.2187
 2357TIP3   OH228561   5.447   2.224  12.907  0.1238  0.3884 -0.0091
 2357TIP3    H128562   5.379   2.274  12.953 -0.8562 -2.4472  1.8746
 2357TIP3    H228563   5.520   2.221  12.970  0.3724 -0.0948 -0.3163
 2358TIP3   OH228564   1.267   1.104   4.333 -0.2675 -0.3841 -0.1429
 2358TIP3    H128565   1.194   1.136   4.386  0.3245 -0.2874  0.6407
 2358TIP3    H228566   1.287   1.018   4.368 -0.2470 -0.5669 -0.6008
 2359TIP3   OH228567   3.923   6.664   5.949 -0.1644 -0.1271 -0.0984
 2359TIP3    H128568   3.914   6.628   6.037 -1.1271  0.7117  0.1694
 2359TIP3    H228569   4.012   6.699   5.946 -0.0526 -0.3637  0.4583
 2360TIP3   OH228570   1.599   5.206   0.395 -0.0383 -0.0438  0.1029
 2360TIP3    H128571   1.574   5.177   0.307 -0.7218 -0.8663  0.5520
 2360TIP3    H228572   1.666   5.272   0.380  1.7305 -1.9438 -0.9955
 2361TIP3   OH228573   4.951   6.353  11.638 -0.6511 -0.2794 -0.5138
 2361TIP3    H128574   4.945   6.427  11.699 -0.0223  0.0338 -0.8291
 2361TIP3    H228575   5.031   6.307  11.664 -1.2391 -1.0888 -0.0650
 2362TIP3   OH228576   3.059   2.172   0.216 -0.2218 -0.1728  0.0240
 2362TIP3    H128577   3.090   2.082   0.213  0.5353  0.0986 -1.1774
 2362TIP3    H228578   2.967   2.165   0.243  0.1742 -1.1908  1.1828
 2363TIP3   OH228579   3.732   4.518   5.286 -0.3034 -0.4527 -0.0326
 2363TIP3    H128580   3.668   4.512   5.356  0.9551  0.2838  1.2276
 2363TIP3    H228581   3.790   4.589   5.312 -0.2240  0.3547 -2.2014
 2364TIP3   OH228582   4.839   6.638   0.364  0.2461  0.1835 -0.1490
 2364TIP3    H128583   4.750   6.634   0.331  1.0953  0.1605 -2.6517
 2364TIP3    H228584   4.892   6.664   0.288  2.2895  0.9226  1.4212
 2365TIP3   OH228585   2.572   5.041  13.448  0.3833 -0.6999 -0.0405
 2365TIP3    H128586   2.530   5.109  13.396 -0.4296  0.0560  1.5459
 2365TIP3    H228587   2.651   5.018  13.398  1.9899  3.0561  0.4409
 2366TIP3   OH228588   1.599   5.012   2.646  0.1076 -0.0050 -0.3709
 2366TIP3    H128589   1.673   5.071   2.662 -0.5675  0.3716  1.6359
 2366TIP3    H228590   1.628   4.928   2.681  0.0822 -0.1861 -0.7889
 2367TIP3   OH228591   6.736   5.233   6.531 -0.5626 -0.4469 -0.6543
 2367TIP3    H128592   6.646   5.266   6.538  0.3561  2.9552 -2.4311
 2367TIP3    H228593   6.790   5.306   6.560  1.6751 -1.1544 -2.7506
 2368TIP3   OH228594   6.556   3.584   1.005  0.1048  0.6360  0.4051
 2368TIP3    H128595   6.535   3.677   1.016  0.9769  0.9583 -0.5315
 2368TIP3    H228596   6.507   3.559   0.927  1.0545  0.7059 -0.2244
 2369TIP3   OH228597   4.479   3.483  15.864  0.2330 -0.2804 -0.0677
 2369TIP3    H128598   4.481   3.504  15.958  1.4945  0.6296 -0.2729
 2369TIP3    H228599   4.416   3.411  15.857  1.6203 -1.7922  1.7954
 2370TIP3   OH228600   0.766   5.895  15.076  0.7878  0.2015 -0.6454
 2370TIP3    H128601   0.837   5.959  15.067 -0.6657  1.8807 -0.8016
 2370TIP3    H228602   0.764   5.875  15.170  2.8891 -1.6786 -0.9004
 2371TIP3   OH228603   1.735   5.049   5.221 -0.5396 -0.0088 -0.0619
 2371TIP3    H128604   1.742   5.095   5.137 -0.0734 -0.3758 -0.2333
 2371TIP3    H228605   1.783   4.967   5.207  0.0350  0.1782  0.7455
 2372TIP3   OH228606   4.098   1.687   0.396  0.1325 -0.6069 -0.7085
 2372TIP3    H128607   4.153   1.673   0.319 -0.2022  0.3438 -1.1336
 2372TIP3    H228608   4.144   1.641   0.467 -0.6194 -3.3252 -1.8639
 2373TIP3   OH228609   4.736   5.625   0.425 -0.2390 -0.4775 -0.6605
 2373TIP3    H128610   4.690   5.546   0.454  2.4433 -1.8605  0.1042
 2373TIP3    H228611   4.771   5.663   0.505 -0.9339  1.1750 -1.1015
 2374TIP3   OH228612   4.611   0.428  15.775 -0.7167  0.0047  0.1213
 2374TIP3    H128613   4.541   0.367  15.753  0.5573 -1.0581 -1.2526
 2374TIP3    H228614   4.570   0.514  15.771 -1.6466 -0.4481 -2.2532
 2375TIP3   OH228615   1.193   0.861   1.390 -0.1983 -0.1627 -0.2290
 2375TIP3    H128616   1.180   0.859   1.485 -0.6609  0.0644 -0.2854
 2375TIP3    H228617   1.253   0.788   1.372  1.2163  0.7789  0.4394
 2376TIP3   OH228618   3.953   4.219  15.118  0.4617  0.3304  0.1821
 2376TIP3    H128619   4.041   4.253  15.100 -0.0029  0.9898 -0.8794
 2376TIP3    H228620   3.900   4.296  15.133  0.0621 -0.0720  0.8948
 2377TIP3   OH228621   2.990   1.223   1.210  0.1353  0.8422  0.0871
 2377TIP3    H128622   3.084   1.211   1.228  0.3717  0.7857 -1.0828
 2377TIP3    H228623   2.949   1.142   1.242  0.6877  0.2457 -0.6743
 2378TIP3   OH228624   4.202   5.650   1.850 -0.2002  0.5786 -0.0339
 2378TIP3    H128625   4.158   5.734   1.861 -1.3450 -0.1819  1.5206
 2378TIP3    H228626   4.144   5.598   1.794 -1.6716 -0.5980  2.4139
 2379TIP3   OH228627   2.169   6.556   6.227  0.4212  0.0873  0.1392
 2379TIP3    H128628   2.171   6.594   6.139 -1.3038 -1.4194 -0.6183
 2379TIP3    H228629   2.106   6.609   6.276  0.5852  0.2836  0.1359
 2380TIP3   OH228630   5.240   6.699   5.276  0.9772 -0.2329  0.3010
 2380TIP3    H128631   5.299   6.624   5.272  1.3806  0.1223 -0.7842
 2380TIP3    H228632   5.161   6.671   5.231  0.8567 -0.2361  0.5119
 2381TIP3   OH228633   5.869   2.206  12.518  0.9791  0.1905 -0.4265
 2381TIP3    H128634   5.777   2.213  12.490  0.0752 -1.1340  1.9847
 2381TIP3    H228635   5.918   2.239  12.443 -1.4274  0.5174 -1.9937
 2382TIP3   OH228636   3.662   0.280  10.191 -0.7339 -0.6050  0.1793
 2382TIP3    H128637   3.658   0.237  10.277 -1.3899 -2.2056 -0.6027
 2382TIP3    H228638   3.573   0.274  10.158 -0.5025  0.0736 -0.5782
 2383TIP3   OH228639   4.595   0.590   3.243  0.1735 -0.2584 -0.1546
 2383TIP3    H128640   4.567   0.681   3.249  0.6361 -0.1574  0.6964
 2383TIP3    H228641   4.534   0.550   3.181  0.4538  0.8018 -1.1507
 2384TIP3   OH228642   1.927   4.973   0.063  0.6162 -0.4071  0.6950
 2384TIP3    H128643   1.900   5.014   0.146  0.7382  0.9334  0.0989
 2384TIP3    H228644   1.849   4.975   0.008 -0.2894 -3.7825  1.6252
 2385TIP3   OH228645   2.614   3.287   5.391 -0.1562 -0.0554  0.1798
 2385TIP3    H128646   2.546   3.308   5.456 -1.0656  0.2443 -0.8398
 2385TIP3    H228647   2.630   3.193   5.404  0.1922  0.1423  1.2980
 2386TIP3   OH228648   2.839   3.884  16.536 -0.5892 -0.7398 -0.2548
 2386TIP3    H128649   2.752   3.868  16.573 -0.9652  1.3132 -0.1165
 2386TIP3    H228650   2.875   3.797  16.520 -3.6399 -1.7399 -2.7025
 2387TIP3   OH228651   6.265   4.402  11.475 -0.5350  0.0464  0.3960
 2387TIP3    H128652   6.201   4.331  11.471  1.3896 -1.9045  2.0666
 2387TIP3    H228653   6.231   4.460  11.543 -2.6891  1.4809 -1.7138
 2388TIP3   OH228654   3.154   3.048   5.309 -0.0450  0.0207  0.4436
 2388TIP3    H128655   3.239   3.077   5.340  0.0620  0.0217  0.1575
 2388TIP3    H228656   3.134   2.970   5.361  0.0327  0.1416  0.6562
 2389TIP3   OH228657   2.286   6.359  15.340 -0.0341  0.4405  0.2480
 2389TIP3    H128658   2.210   6.368  15.398 -1.1985  1.1240 -1.3446
 2389TIP3    H228659   2.281   6.433  15.281  2.2967  0.8955  0.5173
 2390TIP3   OH228660   2.489   5.001  12.609  0.2039  0.1800  0.0555
 2390TIP3    H128661   2.443   5.084  12.600  0.4949  0.2645 -0.6680
 2390TIP3    H228662   2.438   4.939  12.557  0.2932  0.0248  0.1512
 2391TIP3   OH228663   6.654   5.277   0.749  0.3370 -0.1168  0.1767
 2391TIP3    H128664   6.577   5.302   0.800 -0.1401 -0.6609 -0.2689
 2391TIP3    H228665   6.717   5.248   0.814 -0.5647 -1.5997  0.4290
 2392TIP3   OH228666   5.222   1.424   5.370 -0.3265  0.2000 -0.2284
 2392TIP3    H128667   5.233   1.406   5.277  1.1429  1.9776 -0.4516
 2392TIP3    H228668   5.132   1.456   5.378 -0.4652  0.0281 -1.0182
 2393TIP3   OH228669   4.067   0.698  14.544 -0.3231  0.3542  0.3180
 2393TIP3    H128670   4.139   0.760  14.549 -0.5403  0.6400 -0.0396
 2393TIP3    H228671   3.988   0.751  14.557 -0.4516 -0.0163  1.1121
 2394TIP3   OH228672   2.502   2.493   0.156 -0.0669  0.7243  0.2001
 2394TIP3    H128673   2.426   2.538   0.119  0.1391  0.2095 -0.8760
 2394TIP3    H228674   2.481   2.484   0.249 -1.2896  0.6504 -0.0620
 2395TIP3   OH228675   3.851   0.523   4.421 -0.2433  0.4707  0.3433
 2395TIP3    H128676   3.897   0.548   4.501 -0.8303 -0.0689  0.8581
 2395TIP3    H228677   3.806   0.603   4.393  0.1070  0.7063  0.4531
 2396TIP3   OH228678   4.991   6.630  11.736  0.0411 -0.0889  0.4325
 2396TIP3    H128679   4.902   6.656  11.710  0.7749  0.6420 -1.5708
 2396TIP3    H228680   5.044   6.649  11.659  2.2399  1.0347  2.1204
 2397TIP3   OH228681   1.142   5.113   2.516  0.6349  0.1691 -0.1186
 2397TIP3    H128682   1.143   5.020   2.493  0.5117 -0.2699  1.5237
 2397TIP3    H228683   1.226   5.127   2.560  0.3722  0.6715  0.2301
 2398TIP3   OH228684   0.707   0.709   2.684  0.6497 -0.7601 -0.2757
 2398TIP3    H128685   0.693   0.679   2.774  0.0021 -1.1204 -0.4889
 2398TIP3    H228686   0.631   0.676   2.636  1.6675 -1.8034 -1.2552
 2399TIP3   OH228687   2.929   4.358   5.680  0.5540  0.1902  0.4716
 2399TIP3    H128688   2.953   4.378   5.770 -0.6517 -1.1150  1.1132
 2399TIP3    H228689   2.871   4.430   5.654  1.7700  1.1565  0.3133
 2400TIP3   OH228690   2.228   5.811   5.023 -0.1796  0.2631 -0.1718
 2400TIP3    H128691   2.268   5.887   5.065 -0.3381 -1.1525  2.7919
 2400TIP3    H228692   2.293   5.741   5.031 -1.0576 -0.6165 -0.4107
 2401TIP3   OH228693   4.809   3.126   2.404 -0.1705  0.1450 -0.1746
 2401TIP3    H128694   4.806   3.184   2.327 -0.9217  1.2724  0.6597
 2401TIP3    H228695   4.739   3.160   2.461  1.5549  0.5098  1.8191
 2402TIP3   OH228696   0.830   0.890  11.114  0.3300 -0.5184 -0.3864
 2402TIP3    H128697   0.744   0.856  11.137 -0.1402  0.7569 -0.1801
 2402TIP3    H228698   0.874   0.817  11.070 -0.6412 -1.3574 -0.0025
 2403TIP3   OH228699   1.348   4.393   4.905 -0.0733  0.2076 -0.1811
 2403TIP3    H128700   1.394   4.322   4.949  1.1617 -0.3457 -2.2154
 2403TIP3    H228701   1.255   4.373   4.916  0.2071 -0.2753  1.5033
 2404TIP3   OH228702   6.867   4.876   4.908  0.3578  0.0858  0.6330
 2404TIP3    H128703   6.868   4.939   4.979 -2.2719  1.5430 -0.4601
 2404TIP3    H228704   6.814   4.803   4.941 -2.0445  1.3580 -0.1265
 2405TIP3   OH228705   4.442   1.832  14.846 -0.1302 -0.3506  0.7105
 2405TIP3    H128706   4.400   1.831  14.931  1.0183 -0.7005  1.2997
 2405TIP3    H228707   4.500   1.908  14.848  0.8769 -1.0953  0.7627
 2406TIP3   OH228708   6.261   0.109   4.273  0.5415 -0.1644  0.2672
 2406TIP3    H128709   6.183   0.157   4.300  0.8425 -0.7309  2.3099
 2406TIP3    H228710   6.334   0.168   4.293  0.6906  1.2138 -3.4802
 2407TIP3   OH228711   6.668   5.955   3.112  0.1038 -0.5277  0.2097
 2407TIP3    H128712   6.708   5.869   3.125  1.7805  0.1453 -0.2416
 2407TIP3    H228713   6.730   6.017   3.151 -0.0095  0.6415 -1.3693
 2408TIP3   OH228714   3.922   2.381   2.751  0.1718  0.2297 -0.4956
 2408TIP3    H128715   3.899   2.418   2.837  1.2993  0.5249 -0.3034
 2408TIP3    H228716   3.861   2.308   2.739 -2.1120  2.0934 -0.8752
 2409TIP3   OH228717   5.997   0.981   0.313 -0.0428  0.3502  0.0303
 2409TIP3    H128718   6.083   0.995   0.353  1.3547 -3.2794 -1.2588
 2409TIP3    H228719   5.957   0.913   0.366 -1.3924  0.8059 -0.3773
 2410TIP3   OH228720   6.144   4.794  10.785 -0.2964 -0.3618  0.4259
 2410TIP3    H128721   6.201   4.724  10.752  1.8719  0.2718  2.5772
 2410TIP3    H228722   6.058   4.753  10.791  0.1486 -1.7684 -1.6379
 2411TIP3   OH228723   4.536   4.682  16.696 -0.1860  0.0805 -0.1820
 2411TIP3    H128724   4.527   4.603  16.643  0.7106 -0.8576  1.0006
 2411TIP3    H228725   4.493   4.751  16.645  1.0747 -0.6453 -2.3615
 2412TIP3   OH228726   2.490   5.042  14.076  0.2519  0.0504 -0.1630
 2412TIP3    H128727   2.572   5.034  14.125 -0.4033  0.0014  0.9518
 2412TIP3    H228728   2.449   4.955  14.084  0.0004  0.1279 -0.5683
 2413TIP3   OH228729   3.585   0.560  12.449  0.0491 -0.5728 -0.2913
 2413TIP3    H128730   3.680   0.551  12.439  0.0298  0.5154 -1.9075
 2413TIP3    H228731   3.561   0.626  12.384 -2.1214 -2.3947 -1.4969
 2414TIP3   OH228732   5.684   3.183  11.144  0.7993  0.4828 -0.3251
 2414TIP3    H128733   5.597   3.179  11.104  1.3507 -1.2680 -1.5124
 2414TIP3    H228734   5.738   3.228  11.079  1.4261 -1.2708 -1.1001
 2415TIP3   OH228735   1.238   3.024  11.834  0.0897  0.3357  0.3656
 2415TIP3    H128736   1.322   3.019  11.880  0.3367 -2.0939 -0.1891
 2415TIP3    H228737   1.180   2.966  11.884 -1.1405  1.6085  0.4627
 2416TIP3   OH228738   0.981   0.976   5.496  0.0100  0.5897 -0.6092
 2416TIP3    H128739   0.902   1.030   5.492  0.2586  1.0822  0.5864
 2416TIP3    H228740   1.038   1.012   5.429  0.0586  1.6569 -0.0258
 2417TIP3   OH228741   5.946   6.838   2.511 -0.2574  0.2542 -0.2148
 2417TIP3    H128742   5.991   6.754   2.517  0.6333  0.6941 -0.5128
 2417TIP3    H228743   5.998   6.897   2.566 -1.7112  0.2910  1.2171
 2418TIP3   OH228744   4.248   4.160   5.778 -0.8476  0.2521 -0.1695
 2418TIP3    H128745   4.309   4.086   5.780  2.9436  3.0802  1.3405
 2418TIP3    H228746   4.200   4.154   5.861  0.0969 -0.0305  0.3697
 2419TIP3   OH228747   6.146   2.694   4.024 -0.3946  0.1272 -0.6363
 2419TIP3    H128748   6.216   2.747   4.062 -0.3511 -0.8735  0.7505
 2419TIP3    H228749   6.118   2.637   4.096  0.2449 -2.4342 -2.2785
 2420TIP3   OH228750   1.357   6.345  11.002 -0.5352 -0.8865 -1.0909
 2420TIP3    H128751   1.349   6.439  11.017  1.8422 -0.9830  1.5554
 2420TIP3    H228752   1.271   6.310  11.025 -0.6035  0.3997  0.8717
 2421TIP3   OH228753   4.723   0.011   4.330  0.6217  0.9785 -0.0340
 2421TIP3    H128754   4.715   0.073   4.257  0.4190  0.3674 -0.5381
 2421TIP3    H228755   4.669  -0.063   4.304  0.1519  0.9663  0.9709
 2422TIP3   OH228756   2.627   0.232   5.326 -0.4931 -0.2900 -0.2604
 2422TIP3    H128757   2.700   0.244   5.266  0.0204  1.4581  0.6563
 2422TIP3    H228758   2.602   0.140   5.315  2.3606 -1.1792  0.0032
 2423TIP3   OH228759   5.607   6.309   4.265 -0.5681  0.0170  0.2160
 2423TIP3    H128760   5.694   6.310   4.304  0.1349 -0.8549 -1.2595
 2423TIP3    H228761   5.607   6.382   4.203 -1.0298  0.2415  0.4734
 2424TIP3   OH228762   2.341   2.734  12.197  0.1911 -0.5705  0.1412
 2424TIP3    H128763   2.356   2.640  12.190 -2.2611 -1.1120  1.3157
 2424TIP3    H228764   2.419   2.767  12.242  1.7449 -1.7398 -1.5029
 2425TIP3   OH228765   5.669   2.481  15.538  0.1389  0.3411 -0.3460
 2425TIP3    H128766   5.705   2.406  15.585 -1.0564  1.7289  3.0891
 2425TIP3    H228767   5.577   2.458  15.524  0.3206  0.2391 -1.4301
 2426TIP3   OH228768   1.610   6.485   4.311 -0.2648  0.7849 -0.4777
 2426TIP3    H128769   1.688   6.514   4.358 -1.8220  5.0750 -0.0507
 2426TIP3    H228770   1.556   6.442   4.377  1.1729 -1.2473 -0.5448
 2427TIP3   OH228771   6.651   3.131   0.528 -0.5322  0.7069  0.1994
 2427TIP3    H128772   6.657   3.134   0.433  3.4143 -0.7786  0.2530
 2427TIP3    H228773   6.695   3.211   0.558  1.1402 -0.3786  0.7355
 2428TIP3   OH228774   1.839   2.477   1.478 -0.4796  0.0450 -0.5560
 2428TIP3    H128775   1.861   2.396   1.524  2.2634 -0.0364 -1.8611
 2428TIP3    H228776   1.886   2.545   1.526  1.7323  0.0684 -2.6179
 2429TIP3   OH228777   5.854   3.718   1.351 -0.0007 -0.0280 -0.7633
 2429TIP3    H128778   5.801   3.796   1.370  1.3602  0.6255  0.5757
 2429TIP3    H228779   5.911   3.745   1.279  0.5588  0.2882 -0.2161
 2430TIP3   OH228780   4.855   4.271   4.753  0.0356 -0.4577  0.0155
 2430TIP3    H128781   4.868   4.325   4.832  1.6868 -0.5603 -0.1497
 2430TIP3    H228782   4.885   4.184   4.778 -1.2437 -0.9697 -0.1683
 2431TIP3   OH228783   3.412   0.057   1.976 -0.6004 -0.1180  0.2078
 2431TIP3    H128784   3.364   0.086   1.899 -0.3046  0.9812  0.4297
 2431TIP3    H228785   3.344   0.021   2.034 -0.6052 -3.2837 -1.4979
 2432TIP3   OH228786   0.715   0.205  10.091  0.1681 -0.6143  0.1306
 2432TIP3    H128787   0.716   0.154  10.010  0.8651 -0.6735  0.1727
 2432TIP3    H228788   0.804   0.238  10.100 -0.1256  0.1342  0.4113
 2433TIP3   OH228789   0.647   2.001  11.876  0.9288 -0.4830 -0.1722
 2433TIP3    H128790   0.594   2.022  11.799 -1.0782 -1.9226  0.7342
 2433TIP3    H228791   0.608   2.052  11.947  1.9426 -0.1656  0.1748
 2434TIP3   OH228792   3.412   1.802   4.754 -0.3589  0.0261  0.4255
 2434TIP3    H128793   3.340   1.826   4.696  0.4649 -1.6852 -1.4177
 2434TIP3    H228794   3.477   1.871   4.741 -0.3738 -0.0982 -0.3508
 2435TIP3   OH228795   2.101   0.996  16.875 -0.0169 -0.4225  0.1684
 2435TIP3    H128796   2.074   0.918  16.826  1.0990 -0.4600 -0.4228
 2435TIP3    H228797   2.090   0.971  16.967 -0.4997 -0.9664 -0.0293
 2436TIP3   OH228798   5.336   0.868  12.073  0.0688 -0.2263 -0.0811
 2436TIP3    H128799   5.337   0.803  12.002  0.6617  0.5389 -0.7982
 2436TIP3    H228800   5.251   0.911  12.065  0.5762  0.6346 -1.0791
 2437TIP3   OH228801   6.691   5.544  13.942 -0.1058  0.3810 -0.0443
 2437TIP3    H128802   6.723   5.465  13.899 -0.7310 -0.6559  1.2953
 2437TIP3    H228803   6.746   5.552  14.020 -1.2886  0.1163  0.8585
 2438TIP3   OH228804   4.571   3.437  16.531  0.2480 -0.6014 -0.4114
 2438TIP3    H128805   4.482   3.441  16.567  0.4939 -1.9756  0.4123
 2438TIP3    H228806   4.589   3.527  16.503 -0.0524  0.5197  2.6632
 2439TIP3   OH228807   0.329   4.727   3.760  0.1653  0.2291  0.0992
 2439TIP3    H128808   0.348   4.645   3.714  2.3759  0.7918 -0.1300
 2439TIP3    H228809   0.379   4.720   3.841 -1.2107  0.5629  1.0033
 2440TIP3   OH228810   4.936   0.843  11.456  0.4778  0.3112  0.8652
 2440TIP3    H128811   5.010   0.886  11.412 -0.1409  0.4190 -0.0965
 2440TIP3    H228812   4.930   0.887  11.541  1.6993  0.1012  1.0854
 2441TIP3   OH228813   2.259   4.177  10.888 -0.0863 -0.3077  0.1820
 2441TIP3    H128814   2.324   4.109  10.909  0.6411  0.8207  1.8155
 2441TIP3    H228815   2.305   4.259  10.903 -1.7175  0.5352  0.7891
 2442TIP3   OH228816   5.758   5.350  11.861  0.5571  0.1621 -0.1395
 2442TIP3    H128817   5.820   5.277  11.866 -0.3421 -0.6765 -1.0100
 2442TIP3    H228818   5.809   5.425  11.890  1.2591 -0.9428  1.6972
 2443TIP3   OH228819   3.267   4.790  14.094  0.0336 -0.2517  0.0704
 2443TIP3    H128820   3.359   4.817  14.087  0.2497 -0.5584  1.5258
 2443TIP3    H228821   3.265   4.702  14.056  0.6307 -0.7847  1.2146
 2444TIP3   OH228822   1.544   3.380   3.967 -0.2563 -0.3719 -0.2240
 2444TIP3    H128823   1.619   3.419   3.922 -1.5646 -1.2873 -3.4359
 2444TIP3    H228824   1.545   3.288   3.941 -1.7194 -0.7264  0.8442
 2445TIP3   OH228825   1.207   2.079   0.444 -0.1264 -0.0541 -0.0307
 2445TIP3    H128826   1.181   2.093   0.535 -2.4371  0.2867 -0.6740
 2445TIP3    H228827   1.259   1.999   0.446 -0.5318 -0.3223  1.5217
 2446TIP3   OH228828   2.565   2.131  11.533 -0.2437  0.2172 -0.0027
 2446TIP3    H128829   2.646   2.179  11.554 -0.5622  0.5854  0.4251
 2446TIP3    H228830   2.585   2.083  11.453  0.5270 -0.0030  0.3096
 2447TIP3   OH228831   1.563   4.467  13.967  0.4875 -0.0822 -0.1757
 2447TIP3    H128832   1.543   4.447  13.876 -2.8409  0.2206  0.3858
 2447TIP3    H228833   1.524   4.395  14.017  2.2138 -0.2316  1.0852
 2448TIP3   OH228834   6.042   1.147  15.696  0.0501 -0.5680  0.2544
 2448TIP3    H128835   6.118   1.184  15.650 -1.1089 -0.9633 -2.1377
 2448TIP3    H228836   6.075   1.066  15.736  0.8703 -0.8402 -0.9259
 2449TIP3   OH228837   6.304   4.911  13.110  0.1757 -0.3960  0.0646
 2449TIP3    H128838   6.396   4.888  13.127 -0.3322 -1.1291  2.0305
 2449TIP3    H228839   6.275   4.846  13.046  0.1401 -2.2699  1.8989
 2450TIP3   OH228840   1.773   3.872  15.649  0.6357  0.0326 -0.6418
 2450TIP3    H128841   1.804   3.804  15.588 -3.4149 -3.2750  0.4659
 2450TIP3    H228842   1.681   3.885  15.625 -0.1160  1.3140  2.4521
 2451TIP3   OH228843   4.649   3.370   2.505  0.7045  0.7180  0.0699
 2451TIP3    H128844   4.620   3.454   2.540 -0.9701 -0.4686  1.7832
 2451TIP3    H228845   4.653   3.383   2.411 -2.2887  2.0048  0.0118
 2452TIP3   OH228846   1.233   2.297  12.176  0.3320  0.1032  0.7654
 2452TIP3    H128847   1.232   2.249  12.093  2.1030 -1.0910  1.3457
 2452TIP3    H228848   1.151   2.273  12.218  0.9605 -2.2278  0.8500
 2453TIP3   OH228849   2.818   0.103  15.351  0.0070 -0.1598  0.8733
 2453TIP3    H128850   2.846   0.106  15.260  1.4756 -1.5982  1.2231
 2453TIP3    H228851   2.752   0.171  15.359  0.1324  0.2394 -1.1671
 2454TIP3   OH228852   1.465   5.569  12.832 -0.0012 -0.3116  0.1871
 2454TIP3    H128853   1.459   5.665  12.834 -0.8137 -0.2814 -1.4848
 2454TIP3    H228854   1.543   5.549  12.883 -1.5417  1.0027  3.3241
 2455TIP3   OH228855   1.902   4.214  13.931 -0.6237  0.6135 -0.5793
 2455TIP3    H128856   1.949   4.214  14.015  0.7814  0.8480 -1.3334
 2455TIP3    H228857   1.889   4.307  13.912 -1.2182  0.5526 -0.4781
 2456TIP3   OH228858   3.929   0.589  11.503 -0.3955  0.1158 -0.1687
 2456TIP3    H128859   3.907   0.661  11.562  0.9703  0.1696  0.3029
 2456TIP3    H228860   3.975   0.630  11.430  0.3001 -0.2484  0.0523
 2457TIP3   OH228861   3.505   6.526  16.035 -0.5771 -0.1274 -0.0434
 2457TIP3    H128862   3.507   6.458  16.101 -2.1336 -0.8724 -0.7058
 2457TIP3    H228863   3.468   6.484  15.958  0.3252  0.9558 -1.1171
 2458TIP3   OH228864   1.437   5.639  16.410 -0.2937  0.4724 -0.2145
 2458TIP3    H128865   1.371   5.709  16.416 -0.7133 -0.0120  1.7395
 2458TIP3    H228866   1.396   5.572  16.356 -0.2625  1.3315 -1.3281
 2459TIP3   OH228867   0.781   0.492  13.875 -0.4773  0.4028 -0.6863
 2459TIP3    H128868   0.715   0.467  13.811 -1.6651  1.1727  0.2089
 2459TIP3    H228869   0.748   0.460  13.958  0.5453  0.3344 -0.2873
 2460TIP3   OH228870   6.877   1.613  11.821 -0.2395 -0.3026  0.0604
 2460TIP3    H128871   6.836   1.562  11.751 -1.5771  1.8678 -0.8368
 2460TIP3    H228872   6.890   1.700  11.783  0.5993  0.4725  1.9830
 2461TIP3   OH228873   2.658   2.236  13.135  0.3186  0.2457 -0.4572
 2461TIP3    H128874   2.606   2.270  13.062 -0.0505  0.8385  0.0753
 2461TIP3    H228875   2.749   2.253  13.110  0.1892  0.5809 -0.7066
 2462TIP3   OH228876   0.875   5.897  16.868 -0.0482 -0.2352 -0.1443
 2462TIP3    H128877   0.893   5.982  16.828  1.8646 -1.1415 -1.3047
 2462TIP3    H228878   0.945   5.840  16.837  0.8512 -1.3574  3.4886
 2463TIP3   OH228879   4.210   4.489   0.333  0.2198  0.2832  0.0331
 2463TIP3    H128880   4.194   4.567   0.279  1.5679 -0.4314 -1.4684
 2463TIP3    H228881   4.303   4.470   0.320 -0.3611 -2.4171 -0.8312
 2464TIP3   OH228882   1.685   1.670  12.536 -0.1714 -0.5463 -0.2371
 2464TIP3    H128883   1.750   1.609  12.571 -0.6906 -1.2533 -0.4717
 2464TIP3    H228884   1.680   1.740  12.601  1.8073  0.2426 -0.8476
 2465TIP3   OH228885   0.826   2.963  11.482 -0.0108 -0.2570 -0.0316
 2465TIP3    H128886   0.878   2.910  11.423  0.1498  0.8616 -0.9232
 2465TIP3    H228887   0.736   2.932  11.469  0.3363 -1.8866  1.1910
 2466TIP3   OH228888   5.043   6.731  12.380 -0.9846 -0.9518 -0.9397
 2466TIP3    H128889   5.104   6.687  12.320  1.3181  2.5175 -1.4578
 2466TIP3    H228890   4.966   6.749  12.326  0.6305  1.1808 -2.7686
 2467TIP3   OH228891   1.567   2.571   1.352 -0.1672 -0.0856  0.3347
 2467TIP3    H128892   1.495   2.541   1.297  0.5954  0.6247 -1.1063
 2467TIP3    H228893   1.537   2.555   1.442 -1.9824 -0.0721 -0.2334
 2468TIP3   OH228894   4.234   0.440  11.270  0.1593 -0.5391  0.4329
 2468TIP3    H128895   4.208   0.429  11.178 -0.6932  1.2488  0.4295
 2468TIP3    H228896   4.325   0.409  11.272  0.4266  0.0225 -1.1705
 2469TIP3   OH228897   3.085   1.793   0.929 -0.3232 -0.1363  0.5105
 2469TIP3    H128898   3.053   1.758   1.012  0.6318  0.8113  1.3080
 2469TIP3    H228899   3.171   1.831   0.950 -0.8269  1.7012 -0.5322
 2470TIP3   OH228900   1.182   3.297  11.848  0.3409 -0.4611 -0.3311
 2470TIP3    H128901   1.190   3.205  11.822 -2.8049 -0.3275 -2.2333
 2470TIP3    H228902   1.098   3.302  11.892  0.1827  1.6115 -0.7865
 2471TIP3   OH228903   0.595   1.546   4.164 -0.6230  0.5617  0.3865
 2471TIP3    H128904   0.530   1.501   4.111 -1.9143  1.4288  1.1631
 2471TIP3    H228905   0.568   1.638   4.161  2.4699  1.5472 -1.9486
 2472TIP3   OH228906   3.730   1.560   3.776 -0.3809 -0.3160 -0.3027
 2472TIP3    H128907   3.712   1.638   3.829  0.0707 -0.0597 -0.5151
 2472TIP3    H228908   3.821   1.572   3.747 -0.5146 -0.6142 -0.8552
 2473TIP3   OH228909   5.697   2.489  14.039  0.0529  0.0643 -0.2514
 2473TIP3    H128910   5.781   2.471  13.997  0.3009 -2.0736  0.9952
 2473TIP3    H228911   5.632   2.470  13.972  0.5027  1.2425 -1.0649
 2474TIP3   OH228912   6.511   4.379  12.575  0.3982  0.3946 -0.0874
 2474TIP3    H128913   6.540   4.324  12.647  1.7031  1.0730 -0.0633
 2474TIP3    H228914   6.587   4.434  12.554 -0.5040  1.4122 -0.8297
 2475TIP3   OH228915   2.604   4.262   5.693  0.0126 -0.6951 -0.4544
 2475TIP3    H128916   2.638   4.341   5.736  0.0627 -0.6770 -0.5266
 2475TIP3    H228917   2.677   4.230   5.640 -0.8011  0.7899 -2.6507
 2476TIP3   OH228918   0.528   6.412  10.554  0.3192  0.2928 -0.4836
 2476TIP3    H128919   0.434   6.415  10.536  0.0035  0.9009  1.0947
 2476TIP3    H228920   0.569   6.411  10.468 -1.1152  1.0324 -1.2096
 2477TIP3   OH228921   0.177   4.784  13.965 -0.2968  0.7752 -0.0968
 2477TIP3    H128922   0.086   4.754  13.967  0.2153 -0.8741  1.2820
 2477TIP3    H228923   0.212   4.747  13.884 -0.5490  0.4004 -0.0388
 2478TIP3   OH228924   2.446   2.759  11.903  0.0977  0.0578  0.4023
 2478TIP3    H128925   2.385   2.818  11.948  0.4259 -0.9955  2.3803
 2478TIP3    H228926   2.410   2.672  11.919  1.0527 -0.4511 -0.1358
 2479TIP3   OH228927   0.073   6.540  14.167 -0.0020 -0.2722 -0.2490
 2479TIP3    H128928  -0.009   6.581  14.192  0.3570  0.4710 -0.2464
 2479TIP3    H228929   0.053   6.447  14.159 -0.5713 -0.2714  0.9174
 2480TIP3   OH228930   3.145   3.525  13.387  0.1289  0.2563  0.2207
 2480TIP3    H128931   3.220   3.466  13.386  0.8750  1.1864 -0.3941
 2480TIP3    H228932   3.175   3.600  13.438 -0.5554  0.4325  0.3753
 2481TIP3   OH228933   4.910   1.959   4.682 -0.4488  0.4854 -0.1345
 2481TIP3    H128934   4.921   1.960   4.587 -1.4383 -1.7983 -0.3510
 2481TIP3    H228935   4.957   1.881   4.710 -0.0066  1.2399  1.2965
 2482TIP3   OH228936   1.685   4.157   5.551 -0.8320 -0.2147 -0.1681
 2482TIP3    H128937   1.627   4.095   5.595 -0.3041  0.0115  0.8796
 2482TIP3    H228938   1.660   4.151   5.459 -0.9564 -1.8062 -0.0708
 2483TIP3   OH228939   0.577   3.669   3.797  0.7480 -0.3859  0.4481
 2483TIP3    H128940   0.529   3.663   3.880 -0.1508 -2.6963 -0.1614
 2483TIP3    H228941   0.549   3.753   3.760  1.0378  0.6138  2.3731
 2484TIP3   OH228942   6.796   3.059   1.661 -0.2154 -0.3105  0.4288
 2484TIP3    H128943   6.830   3.142   1.695  0.7758 -0.4878 -0.0887
 2484TIP3    H228944   6.873   3.015   1.625 -0.7000 -1.5613  0.9029
 2485TIP3   OH228945   4.295   5.285   0.754  0.2580 -0.0901  0.0201
 2485TIP3    H128946   4.354   5.349   0.714 -0.8608  1.1254  0.2513
 2485TIP3    H228947   4.208   5.322   0.742 -0.2966 -0.8274  1.5496
 2486TIP3   OH228948   0.813   5.893   4.239 -0.3451  0.4643  0.3453
 2486TIP3    H128949   0.844   5.885   4.329 -1.3338 -0.1140  0.6376
 2486TIP3    H228950   0.796   5.987   4.228 -0.9780  0.4330  1.0147
 2487TIP3   OH228951   0.768   5.772  12.945 -0.6686 -0.7891  0.5305
 2487TIP3    H128952   0.721   5.817  12.875  0.4001  1.9496  1.4122
 2487TIP3    H228953   0.840   5.727  12.901  0.4696  1.5404 -0.1780
 2488TIP3   OH228954   5.012   6.582  12.599 -0.1403 -0.1192  0.7161
 2488TIP3    H128955   5.007   6.632  12.681  0.9964 -0.5348  1.0555
 2488TIP3    H228956   5.022   6.648  12.531 -2.6228  0.3364  0.7063
 2489TIP3   OH228957   2.593   4.055  16.340  0.3914 -0.4056  0.7547
 2489TIP3    H128958   2.684   4.054  16.311  0.2811 -1.9216  0.3837
 2489TIP3    H228959   2.589   3.990  16.411 -0.5279 -0.8388  0.3306
 2490TIP3   OH228960   2.634   3.117  13.650  0.0246 -0.3141  0.5165
 2490TIP3    H128961   2.547   3.078  13.648  0.2021 -0.8353  2.1141
 2490TIP3    H228962   2.630   3.188  13.586 -1.8991  0.3447  1.3064
 2491TIP3   OH228963   3.413   3.853  16.718  0.1533 -0.3174  0.6406
 2491TIP3    H128964   3.471   3.780  16.697  0.4750 -0.3539  1.6129
 2491TIP3    H228965   3.472   3.922  16.750 -0.3466 -0.4565  1.9180
 2492TIP3   OH228966   3.633   6.255   0.489  0.3361 -0.3086 -0.1561
 2492TIP3    H128967   3.580   6.331   0.461  1.0674  0.8345  1.4027
 2492TIP3    H228968   3.660   6.214   0.408  2.0668  2.6298 -1.2292
 2493TIP3   OH228969   5.039   3.283  12.107  0.1936  0.2251  0.0892
 2493TIP3    H128970   5.095   3.356  12.079 -1.5446  2.1162  1.2383
 2493TIP3    H228971   4.956   3.299  12.062 -0.2418 -1.0379  0.4099
 2494TIP3   OH228972   3.876   6.117  10.578  0.0691  0.3881  0.1215
 2494TIP3    H128973   3.938   6.054  10.614 -0.2610  0.8107  1.5029
 2494TIP3    H228974   3.856   6.176  10.651  0.6381  2.3226 -1.1965
 2495TIP3   OH228975   0.956   3.600   1.931  0.2503  0.0066 -0.0957
 2495TIP3    H128976   0.881   3.640   1.886  0.0119 -0.9997 -0.6369
 2495TIP3    H228977   1.010   3.565   1.860  0.3880 -0.7119  0.3498
 2496TIP3   OH228978   3.882   4.677   5.034 -0.4294  0.4607  0.6032
 2496TIP3    H128979   3.829   4.756   5.043 -2.4022 -0.3148 -2.5877
 2496TIP3    H228980   3.819   4.605   5.033  0.8876 -0.7492 -0.6721
 2497TIP3   OH228981   5.593   4.651  15.214  0.1602 -0.9994 -0.4826
 2497TIP3    H128982   5.510   4.603  15.211  0.1304 -0.8924 -2.1681
 2497TIP3    H228983   5.567   4.743  15.220  0.1708 -1.0128 -0.2279
 2498TIP3   OH228984   4.790   3.827  11.512 -0.2237 -0.0994 -0.5946
 2498TIP3    H128985   4.714   3.827  11.454 -1.3060 -2.0536  0.7183
 2498TIP3    H228986   4.752   3.836  11.600  1.0336 -1.1896  0.0893
 2499TIP3   OH228987   5.055   5.433  11.723 -0.2653 -0.1030 -0.3244
 2499TIP3    H128988   5.118   5.367  11.751 -0.5058  0.4669  1.7586
 2499TIP3    H228989   4.974   5.384  11.709 -0.5387 -0.2527  1.5515
 2500TIP3   OH228990   3.261   0.922   1.921  0.1782  0.1013 -0.2286
 2500TIP3    H128991   3.288   1.008   1.891  0.2451  0.2072  0.1342
 2500TIP3    H228992   3.167   0.929   1.934  0.2096  0.1756 -0.0271
 2501TIP3   OH228993   2.568   4.116   2.717  0.0503 -0.4486  0.0959
 2501TIP3    H128994   2.532   4.197   2.682  0.2629 -0.7803 -0.9367
 2501TIP3    H228995   2.631   4.087   2.650 -0.8771 -2.0677 -0.1349
 2502TIP3   OH228996   0.196   5.311  14.972  0.2230 -0.1143  0.2052
 2502TIP3    H128997   0.217   5.219  14.990  1.1846 -0.3510 -1.8300
 2502TIP3    H228998   0.277   5.348  14.939 -0.4714  1.1649 -0.1359
 2503TIP3   OH228999   0.901   4.550  13.559  0.3528 -0.0279 -0.6132
 2503TIP3    H129000   0.837   4.577  13.625  1.2461 -0.0486  0.2832
 2503TIP3    H229001   0.955   4.628  13.545  1.8989 -0.7681  0.7662
 2504TIP3   OH229002   5.767   5.041   3.663  0.3483 -0.0978  0.2945
 2504TIP3    H129003   5.823   4.964   3.649 -0.9679 -0.5246 -4.1048
 2504TIP3    H229004   5.828   5.113   3.679  1.6737 -1.6659  3.0348
 2505TIP3   OH229005   3.362   2.882  12.192  0.2867  0.3074 -0.3977
 2505TIP3    H129006   3.357   2.960  12.135  1.4088  2.3559  2.1139
 2505TIP3    H229007   3.290   2.893  12.254  1.1307 -0.0583  0.6701
 2506TIP3   OH229008   1.920   2.067  12.545  0.0950  0.1944  0.4179
 2506TIP3    H129009   1.942   1.988  12.594 -0.3687 -0.5378 -0.5352
 2506TIP3    H229010   1.864   2.037  12.474 -0.3460  1.4271  0.2197
 2507TIP3   OH229011   2.752   0.790  12.315  0.0726 -0.0052 -0.6694
 2507TIP3    H129012   2.659   0.778  12.294 -0.1731  0.0314  0.3352
 2507TIP3    H229013   2.760   0.757  12.405  0.7994  1.0641 -0.3314
 2508TIP3   OH229014   5.418   6.881  14.956  0.0298 -0.0374  0.1289
 2508TIP3    H129015   5.428   6.971  14.988  1.3328 -0.3345  0.6582
 2508TIP3    H229016   5.342   6.884  14.898 -0.8143  1.0891  1.2405
 2509TIP3   OH229017   5.254   3.202  14.862 -0.1188 -0.5895  0.5445
 2509TIP3    H129018   5.172   3.187  14.815  0.2852  0.2725 -0.4572
 2509TIP3    H229019   5.227   3.247  14.943 -0.4543  2.6854 -1.2005
 2510TIP3   OH229020   1.484   1.556   0.494  0.3012 -0.4394  0.2820
 2510TIP3    H129021   1.548   1.546   0.565  0.1787 -2.6993  0.1460
 2510TIP3    H229022   1.535   1.544   0.414  0.4494  2.1608 -0.1194
 2511TIP3   OH229023   4.319   6.183  16.417  0.2722 -0.0031 -0.0447
 2511TIP3    H129024   4.265   6.218  16.488  0.2424 -2.6642  1.3862
 2511TIP3    H229025   4.409   6.196  16.446  0.2609 -0.9850  0.4910
 2512TIP3   OH229026   1.754   3.169   5.373  0.0139 -0.1132  0.0456
 2512TIP3    H129027   1.782   3.260   5.383  0.2522 -0.2547  0.7450
 2512TIP3    H229028   1.713   3.147   5.457 -0.7751 -0.4031 -0.4029
 2513TIP3   OH229029   4.329   3.583  13.278  0.5940 -0.2064  0.1447
 2513TIP3    H129030   4.329   3.668  13.322 -0.9101  0.1347 -0.4533
 2513TIP3    H229031   4.297   3.601  13.190 -2.1799 -1.6742  0.7152
 2514TIP3   OH229032   2.158   2.309   2.162  1.0895 -0.3420 -0.2832
 2514TIP3    H129033   2.210   2.269   2.092  0.5281 -0.8385 -0.4261
 2514TIP3    H229034   2.223   2.340   2.225  1.5519 -3.1258  0.7574
 2515TIP3   OH229035   2.047   2.015  10.113  0.2315  0.1125  0.8157
 2515TIP3    H129036   2.112   1.959  10.071 -1.3550 -0.6094 -0.8025
 2515TIP3    H229037   2.055   2.099  10.067 -0.4437 -0.2076  0.0766
 2516TIP3   OH229038   0.386   3.406  16.622 -0.3812  0.1859 -0.1736
 2516TIP3    H129039   0.437   3.328  16.646  0.4873  0.9891  0.6499
 2516TIP3    H229040   0.313   3.406  16.684 -0.0570  0.3375  0.2168
 2517TIP3   OH229041   2.154   4.783   0.447 -0.0479  0.1123  0.2040
 2517TIP3    H129042   2.133   4.708   0.391  3.0806  0.9274 -2.3608
 2517TIP3    H229043   2.224   4.751   0.505  1.6473  1.0706 -1.2360
 2518TIP3   OH229044   3.682   0.186  13.592  0.4897  0.2791  0.3898
 2518TIP3    H129045   3.700   0.172  13.685  1.6326  2.0605  0.4908
 2518TIP3    H229046   3.762   0.157  13.547 -1.0537 -3.2417 -0.3915
 2519TIP3   OH229047   1.680   4.868   4.789  0.0577  0.1362  0.2841
 2519TIP3    H129048   1.610   4.820   4.832  0.5007  1.1014  2.1619
 2519TIP3    H229049   1.677   4.837   4.698 -1.0235 -1.8385  0.9250
 2520TIP3   OH229050   3.895   4.960  16.006  0.1525  0.1955  0.1535
 2520TIP3    H129051   3.835   4.892  15.977 -0.8923  1.3493 -0.4484
 2520TIP3    H229052   3.878   4.968  16.100 -0.9619  0.8116 -0.0892
 2521TIP3   OH229053   4.392   3.284  11.314  0.2957  0.1095  0.3969
 2521TIP3    H129054   4.426   3.275  11.403 -1.5883  0.0828  1.1603
 2521TIP3    H229055   4.470   3.299  11.260  1.6940 -1.8258  1.7356
 2522TIP3   OH229056   3.801   1.789   4.064  0.0589  0.4715 -0.2129
 2522TIP3    H129057   3.764   1.783   4.152  2.4752 -0.9055  0.8097
 2522TIP3    H229058   3.725   1.782   4.006 -1.4561 -0.1961  1.7183
 2523TIP3   OH229059   2.847   3.841  11.344 -0.4804  0.6151  0.4358
 2523TIP3    H129060   2.847   3.927  11.301  2.6139 -0.1357 -1.3927
 2523TIP3    H229061   2.871   3.779  11.275 -0.9477 -1.5148  2.0669
 2524TIP3   OH229062   5.811   5.283   3.315  0.1008  0.7232  0.2185
 2524TIP3    H129063   5.756   5.342   3.366 -1.0517  0.1819 -0.3829
 2524TIP3    H229064   5.755   5.251   3.245  0.3828 -1.8497  1.0688
 2525TIP3   OH229065   1.660   1.776   0.645 -0.1311 -0.2405 -0.5491
 2525TIP3    H129066   1.658   1.780   0.549  2.5129 -0.2587 -0.6747
 2525TIP3    H229067   1.682   1.685   0.665  2.0800  0.3492 -0.0753
 2526TIP3   OH229068   0.048   5.798   2.682  0.0951  0.0511 -0.2575
 2526TIP3    H129069  -0.018   5.729   2.687 -1.5359  1.6271  1.5230
 2526TIP3    H229070   0.093   5.794   2.767  1.1626  0.0949 -0.8042
 2527TIP3   OH229071   6.080   3.232   3.599 -0.4915  0.3345  0.6142
 2527TIP3    H129072   6.142   3.195   3.536 -0.4575  0.7724  0.3907
 2527TIP3    H229073   5.998   3.238   3.550 -1.1045 -1.5438  1.2978
 2528TIP3   OH229074   1.213   6.748  15.106 -0.1538 -0.4220  0.6351
 2528TIP3    H129075   1.293   6.782  15.066  0.2717 -0.2646  1.6053
 2528TIP3    H229076   1.167   6.826  15.138  0.4638 -0.6666  2.1952
 2529TIP3   OH229077   1.181   3.817  15.118  0.6952  0.3014  0.8155
 2529TIP3    H129078   1.139   3.834  15.033 -0.9532 -0.3905  1.4439
 2529TIP3    H229079   1.237   3.894  15.132  2.1643 -0.2232 -1.5253
 2530TIP3   OH229080   3.529   1.425  10.702  0.0532  0.2069 -0.3210
 2530TIP3    H129081   3.545   1.386  10.788 -1.8986  0.5519  0.2504
 2530TIP3    H229082   3.599   1.490  10.691  1.0048 -0.6480  0.4580
 2531TIP3   OH229083   4.397   4.393  12.613 -0.1713  0.2621  0.3073
 2531TIP3    H129084   4.321   4.355  12.569  0.7463 -0.6936 -0.4891
 2531TIP3    H229085   4.373   4.394  12.706 -0.3381 -2.0813  0.3487
 2532TIP3   OH229086   4.639   6.132  12.112  0.5823 -0.5301 -0.2879
 2532TIP3    H129087   4.620   6.180  12.193  1.2819  0.4937 -0.7016
 2532TIP3    H229088   4.576   6.060  12.111 -0.1376  0.0605  0.6325
 2533TIP3   OH229089   2.718   0.639   3.112 -0.4314 -0.2794 -0.0302
 2533TIP3    H129090   2.783   0.605   3.051 -0.9709 -2.7453  0.6738
 2533TIP3    H229091   2.765   0.645   3.196 -0.4075  0.5665 -0.0926
 2534TIP3   OH229092   3.695   1.865  11.109  0.4823 -0.3879 -0.0406
 2534TIP3    H129093   3.686   1.849  11.203 -0.2081  0.9016  0.1368
 2534TIP3    H229094   3.617   1.827  11.070 -0.9789  2.0346  0.3396
 2535TIP3   OH229095   0.659   3.929   1.701 -0.9194 -0.1704 -0.6183
 2535TIP3    H129096   0.675   4.022   1.710 -0.2407 -0.3333 -0.0229
 2535TIP3    H229097   0.568   3.917   1.730 -0.3864  0.0419  1.2481
 2536TIP3   OH229098   3.503   1.693  16.673  0.0891 -0.1571 -0.3543
 2536TIP3    H129099   3.560   1.769  16.664 -0.2572  0.1008 -0.4122
 2536TIP3    H229100   3.414   1.729  16.670 -0.1148 -0.7254 -1.9240
 2537TIP3   OH229101   1.131   6.281   3.621  0.7614  0.8645  0.4800
 2537TIP3    H129102   1.123   6.258   3.713  0.6774 -1.1163  0.0118
 2537TIP3    H229103   1.226   6.282   3.605  1.0266  4.6293  1.3183
 2538TIP3   OH229104   6.747   4.054  14.310  0.6520 -0.6818 -0.5481
 2538TIP3    H129105   6.796   4.070  14.229 -0.0688 -0.1942 -0.8939
 2538TIP3    H229106   6.788   3.976  14.347  1.1708 -0.7494 -1.2373
 2539TIP3   OH229107   0.300   5.956  14.010  0.5345 -0.1653 -0.6424
 2539TIP3    H129108   0.261   5.896  13.946 -0.3017 -0.2047 -0.1040
 2539TIP3    H229109   0.266   6.042  13.986  1.0492 -0.0237 -0.8821
 2540TIP3   OH229110   1.157   2.288   0.275  0.0495 -0.3321  0.5297
 2540TIP3    H129111   1.069   2.251   0.266 -0.2892  0.4145  0.6936
 2540TIP3    H229112   1.194   2.243   0.352 -0.2411 -0.5428  0.5495
 2541TIP3   OH229113   0.101   6.817  15.417  0.0365  0.0224  0.3356
 2541TIP3    H129114   0.077   6.855  15.333 -2.4471 -0.8694  0.5762
 2541TIP3    H229115   0.180   6.865  15.443 -0.3349  1.7546 -1.5138
 2542TIP3   OH229116   0.156   0.872  16.783 -0.1998 -0.0054 -0.0368
 2542TIP3    H129117   0.079   0.855  16.837 -0.6939 -1.1620 -1.0530
 2542TIP3    H229118   0.130   0.843  16.695  1.5185 -0.7605 -0.3250
 2543TIP3   OH229119   0.625   3.069  10.224 -0.1591 -0.3413 -0.4829
 2543TIP3    H129120   0.560   3.138  10.241  0.2092  0.4063 -1.9874
 2543TIP3    H229121   0.662   3.050  10.311 -0.4841  1.1301  0.0154
 2544TIP3   OH229122   6.328   5.594  12.005 -0.0753  0.5800 -0.3491
 2544TIP3    H129123   6.332   5.676  11.956 -0.0547  1.8241  1.6668
 2544TIP3    H229124   6.419   5.575  12.027 -0.2232  0.9103  0.5856
 2545TIP3   OH229125   1.664   3.414  15.456  0.2007  0.6112 -0.0410
 2545TIP3    H129126   1.574   3.444  15.442 -0.3899  0.0327  2.1419
 2545TIP3    H229127   1.668   3.329  15.412 -0.4384  0.4785  0.1405
 2546TIP3   OH229128   3.632   1.563  11.542 -0.0482  0.0412 -0.3345
 2546TIP3    H129129   3.707   1.550  11.485 -0.7271 -0.3606 -1.1650
 2546TIP3    H229130   3.628   1.485  11.597 -1.0754 -0.9402 -1.7433
 2547TIP3   OH229131   5.453   6.758  15.288 -0.1529  0.5850  0.0890
 2547TIP3    H129132   5.360   6.780  15.292 -0.0388  0.9941  0.7728
 2547TIP3    H229133   5.465   6.719  15.202 -1.2748 -0.9690  0.5770
 2548TIP3   OH229134   3.251   2.699  11.981 -0.5042  0.3186  0.1739
 2548TIP3    H129135   3.235   2.768  11.917  0.8444 -2.4201 -3.4454
 2548TIP3    H229136   3.330   2.727  12.028  0.9240  0.6654 -2.2638
 2549TIP3   OH229137   5.076   6.515   5.508 -0.6549  0.1443  0.1655
 2549TIP3    H129138   5.068   6.420   5.499  1.0522  0.0993 -1.2363
 2549TIP3    H229139   5.131   6.528   5.585  0.3892 -0.0726 -0.5292
 2550TIP3   OH229140   5.144   5.829   6.152 -0.3028  0.6970  0.4224
 2550TIP3    H129141   5.098   5.745   6.143 -1.2297  1.1520  0.8640
 2550TIP3    H229142   5.237   5.804   6.160 -0.5777 -0.2895  0.6958
 2551TIP3   OH229143   4.904   2.304   2.680  0.2075  0.2882 -0.2477
 2551TIP3    H129144   4.820   2.319   2.637 -0.2487  0.7760  0.7727
 2551TIP3    H229145   4.969   2.311   2.610 -0.5122  1.0371 -0.8597
 2552TIP3   OH229146   1.788   1.315   1.646  0.3668  0.0170  0.2458
 2552TIP3    H129147   1.877   1.322   1.681  0.6252  0.0796 -0.4179
 2552TIP3    H229148   1.764   1.223   1.660  0.2533  0.1646  1.0852
 2553TIP3   OH229149   2.052   5.846   3.239  0.3695 -0.1789 -0.3402
 2553TIP3    H129150   2.127   5.892   3.201  1.4127 -1.2538  0.3475
 2553TIP3    H229151   2.071   5.843   3.333 -0.4160 -0.6797 -0.1842
 2554TIP3   OH229152   6.707   3.792   0.575  0.2152  0.1487 -0.2550
 2554TIP3    H129153   6.666   3.829   0.497  2.4439  3.9661  0.1283
 2554TIP3    H229154   6.635   3.773   0.635 -1.2540  1.8804 -1.4096
 2555TIP3   OH229155   5.463   5.026  10.889 -0.4554 -0.3417  0.4022
 2555TIP3    H129156   5.460   5.043  10.983  2.9303  2.5209  0.2406
 2555TIP3    H229157   5.498   5.107  10.852 -2.0788 -1.1826 -3.4389
 2556TIP3   OH229158   4.179   0.800   4.444  0.8713 -0.6972  0.5037
 2556TIP3    H129159   4.104   0.794   4.385  0.1334  1.7711  1.0721
 2556TIP3    H229160   4.141   0.824   4.529  2.1570 -1.3367  1.2942
 2557TIP3   OH229161   6.247   3.743  14.849  0.3163  0.3858  0.1857
 2557TIP3    H129162   6.257   3.671  14.912 -1.3176  1.1853  1.4202
 2557TIP3    H229163   6.337   3.774  14.835  1.1403 -2.1196 -0.7352
 2558TIP3   OH229164   5.943   1.275   1.374 -0.2144 -0.1733  0.5954
 2558TIP3    H129165   6.028   1.306   1.404 -0.3580 -0.2431  1.0834
 2558TIP3    H229166   5.963   1.218   1.299  0.2993 -1.4085  1.6457
 2559TIP3   OH229167   3.555   6.785  11.966 -0.3652  0.1030  0.4144
 2559TIP3    H129168   3.560   6.741  11.881 -0.4223 -1.2584  1.0956
 2559TIP3    H229169   3.509   6.867  11.948 -0.4856 -0.2238 -0.8408
 2560TIP3   OH229170   6.862   5.383  11.031  0.0479 -0.0652  0.0634
 2560TIP3    H129171   6.843   5.461  10.979 -0.0728  0.1266  0.3913
 2560TIP3    H229172   6.909   5.325  10.971 -0.4646 -0.0228 -0.3881
 2561TIP3   OH229173   0.869   5.109  13.794 -0.5423  0.0074  0.0708
 2561TIP3    H129174   0.811   5.141  13.864 -0.6582  0.5631 -0.2724
 2561TIP3    H229175   0.870   5.180  13.730  2.5641  1.1518  1.2085
 2562TIP3   OH229176   1.908   2.747   0.529 -0.6799 -0.2613 -0.1918
 2562TIP3    H129177   1.950   2.816   0.581 -1.3639 -0.1254  0.2017
 2562TIP3    H229178   1.815   2.771   0.529 -0.8188 -0.7847 -0.6781
 2563TIP3   OH229179   3.454   2.364   4.013 -0.1394  0.0828 -0.5779
 2563TIP3    H129180   3.383   2.313   4.051  0.5219 -0.9652 -0.7185
 2563TIP3    H229181   3.527   2.303   4.006  1.1926  1.4223  0.7079
 2564TIP3   OH229182   4.291   0.019  16.719 -0.5059 -0.3904 -0.9157
 2564TIP3    H129183   4.220   0.039  16.658 -1.4556 -0.8525  0.0061
 2564TIP3    H229184   4.256  -0.051  16.774  0.0827  0.4378  0.5643
 2565TIP3   OH229185   2.400   1.069  14.042  0.2474  0.2905  0.3149
 2565TIP3    H129186   2.491   1.085  14.015 -0.2358 -0.5166 -2.0770
 2565TIP3    H229187   2.407   1.001  14.109  1.3657 -1.3260 -1.3282
 2566TIP3   OH229188   5.696   4.933  16.130 -0.0488  0.2691 -0.0128
 2566TIP3    H129189   5.689   4.916  16.036 -1.1275 -1.4290  0.3152
 2566TIP3    H229190   5.702   4.846  16.169  0.4251  0.9499  1.4946
 2567TIP3   OH229191   0.221   0.573  16.547  0.5833 -0.2323  0.1106
 2567TIP3    H129192   0.205   0.667  16.535 -0.9357 -0.1730  2.0473
 2567TIP3    H229193   0.298   0.555  16.493  0.2179  1.8680 -1.2335
 2568TIP3   OH229194   5.547   4.166   5.179  0.2607  0.3915  0.6104
 2568TIP3    H129195   5.574   4.108   5.250  0.7446  0.9515  0.8860
 2568TIP3    H229196   5.488   4.112   5.126  2.2881 -1.0580 -0.2926
 2569TIP3   OH229197   5.631   5.506   3.729 -0.0420  0.1278  0.3605
 2569TIP3    H129198   5.673   5.461   3.802  1.9142 -2.1601 -1.9706
 2569TIP3    H229199   5.659   5.597   3.738  2.1733 -0.5621  1.1651
 2570TIP3   OH229200   4.364   4.930  14.937 -0.4092 -0.3601 -0.1245
 2570TIP3    H129201   4.367   5.026  14.938  0.3834 -0.3147 -2.1261
 2570TIP3    H229202   4.375   4.905  15.029 -2.0890  1.4581  0.6622
 2571TIP3   OH229203   4.383   5.781   4.305  0.0981  0.0704 -0.2905
 2571TIP3    H129204   4.423   5.826   4.231  1.1581 -0.5110 -0.0860
 2571TIP3    H229205   4.326   5.715   4.265 -2.0987  2.0184 -0.6116
 2572TIP3   OH229206   0.610   1.816  11.142  0.2073  0.1686  0.8746
 2572TIP3    H129207   0.706   1.811  11.137  0.3943  2.9583 -0.7130
 2572TIP3    H229208   0.583   1.836  11.052 -1.5543  2.2848  1.7891
 2573TIP3   OH229209   4.796   2.619  16.391 -0.0091  0.2814  0.6872
 2573TIP3    H129210   4.834   2.707  16.388 -1.5067  0.9385 -0.4257
 2573TIP3    H229211   4.717   2.625  16.337 -0.7201 -1.4808  1.4451
 2574TIP3   OH229212   0.566   6.176   0.194 -0.0741 -0.4323 -0.8085
 2574TIP3    H129213   0.542   6.250   0.250  0.0581 -0.8047 -0.2441
 2574TIP3    H229214   0.655   6.155   0.220 -0.2288 -0.9984 -0.7207
 2575TIP3   OH229215   1.241   2.261  11.281 -0.2122 -0.1551  0.2624
 2575TIP3    H129216   1.231   2.279  11.375  1.5066  0.5526  0.3446
 2575TIP3    H229217   1.158   2.290  11.243 -0.5813  0.4306  1.4436
 2576TIP3   OH229218   0.926   4.799  11.212 -0.1251 -0.2666  0.3108
 2576TIP3    H129219   0.977   4.811  11.132  1.0129 -0.7335  0.9268
 2576TIP3    H229220   0.919   4.704  11.221 -0.0391 -0.2232  0.8738
 2577TIP3   OH229221   3.874   5.500   5.917 -0.0948  0.0370  0.0586
 2577TIP3    H129222   3.936   5.441   5.960  0.4762  1.5234  1.3487
 2577TIP3    H229223   3.798   5.444   5.898  0.0496 -0.9217  2.0731
 2578TIP3   OH229224   5.030   3.222  13.368 -0.4094 -0.1316  0.3956
 2578TIP3    H129225   5.080   3.273  13.304 -1.4594 -0.1573 -0.4778
 2578TIP3    H229226   5.008   3.285  13.437  0.7883 -0.1197  0.7917
 2579TIP3   OH229227   1.905   5.087  11.081 -0.1867  0.3657 -0.0730
 2579TIP3    H129228   1.902   5.010  11.025  0.9601  0.6498 -0.5545
 2579TIP3    H229229   1.907   5.161  11.020  0.0247  0.7183  0.3569
 2580TIP3   OH229230   2.238   1.236  11.185 -0.1813 -0.1766 -0.4596
 2580TIP3    H129231   2.272   1.251  11.096 -0.6091 -2.2140 -1.0101
 2580TIP3    H229232   2.306   1.184  11.227 -0.0131  0.7263  0.4161
 2581TIP3   OH229233   1.641   4.863  13.115 -0.2519  0.2404  0.0945
 2581TIP3    H129234   1.697   4.918  13.169 -1.7765  1.9578  0.0459
 2581TIP3    H229235   1.588   4.814  13.177  1.7250 -1.9976  0.1596
 2582TIP3   OH229236   4.720   3.811  14.276 -0.2176 -0.0985 -0.3256
 2582TIP3    H129237   4.683   3.771  14.355 -2.5645 -2.4152 -2.4089
 2582TIP3    H229238   4.675   3.895  14.268  0.0135  0.1405  0.7489
 2583TIP3   OH229239   2.630   6.709  12.992 -0.5159  0.2892  0.1616
 2583TIP3    H129240   2.702   6.752  12.947 -1.9602  0.7447 -1.8823
 2583TIP3    H229241   2.668   6.630  13.031  0.9637  0.1993 -1.3716
 2584TIP3   OH229242   4.067   6.449   5.381  0.1876  0.4413  0.0969
 2584TIP3    H129243   4.063   6.407   5.296  1.1673  1.2423 -0.3630
 2584TIP3    H229244   4.117   6.389   5.436 -2.0472 -0.9948  0.7049
 2585TIP3   OH229245   1.270   5.162   1.384  0.4222  0.0933  0.0875
 2585TIP3    H129246   1.260   5.252   1.354  1.1626  0.0979 -0.1480
 2585TIP3    H229247   1.185   5.140   1.423  0.8005  1.5329  1.8478
 2586TIP3   OH229248   0.504   6.505  14.586  0.1188 -0.1041 -0.2503
 2586TIP3    H129249   0.415   6.538  14.578  0.3842  0.5248 -0.7174
 2586TIP3    H229250   0.559   6.581  14.566  0.7741 -0.1746  1.1122
 2587TIP3   OH229251   0.074   3.200  10.668 -0.3901 -0.1433  0.3622
 2587TIP3    H129252   0.090   3.281  10.620  0.9346 -0.0554  0.9052
 2587TIP3    H229253  -0.021   3.188  10.665 -0.4667  0.6249 -1.0136
 2588TIP3   OH229254   6.293   5.028   0.417 -0.1401  0.4618  0.2370
 2588TIP3    H129255   6.204   5.006   0.443 -1.1153  2.3588 -1.1867
 2588TIP3    H229256   6.346   5.015   0.495 -1.4148 -1.9180  0.7813
 2589TIP3   OH229257   3.168   0.980   3.113  0.3565 -0.6918  0.2060
 2589TIP3    H129258   3.139   1.071   3.106  0.2348 -0.7565 -0.1054
 2589TIP3    H229259   3.123   0.947   3.191  0.5373 -0.4374  0.4250
 2590TIP3   OH229260   4.032   6.760   0.341 -0.3064 -0.0750 -0.0566
 2590TIP3    H129261   3.980   6.821   0.288 -0.0262 -1.7095 -2.4097
 2590TIP3    H229262   4.121   6.793   0.336 -0.0988 -0.7513 -1.5990
 2591TIP3   OH229263   0.684   2.190  12.698  0.3036  0.2535 -0.8141
 2591TIP3    H129264   0.628   2.240  12.757  1.8025  0.6317  0.3523
 2591TIP3    H229265   0.761   2.169  12.750  0.5238 -1.7143 -1.8380
 2592TIP3   OH229266   0.794   5.692  15.725 -0.3940 -0.1189  0.2682
 2592TIP3    H129267   0.850   5.681  15.648  0.5517  0.1993  0.8992
 2592TIP3    H229268   0.784   5.604  15.761  0.4684 -0.0589  0.6737
 2593TIP3   OH229269   0.382   1.442   3.111  0.1718  0.1979 -0.4943
 2593TIP3    H129270   0.461   1.396   3.083 -0.5361 -0.0660 -2.1594
 2593TIP3    H229271   0.328   1.374   3.152  0.6175  0.2958  0.2720
 2594TIP3   OH229272   3.364   2.297  11.693 -0.1969  0.2101  1.3346
 2594TIP3    H129273   3.364   2.249  11.610  0.4415 -1.0190  2.0194
 2594TIP3    H229274   3.283   2.270  11.736  1.2648 -2.2794  2.7854
 2595TIP3   OH229275   4.195   3.504   5.457 -0.2774 -0.5406 -0.1235
 2595TIP3    H129276   4.152   3.437   5.510 -0.5651  0.8222  1.4202
 2595TIP3    H229277   4.270   3.532   5.509  0.1516 -0.0346 -0.9900
 2596TIP3   OH229278   3.064   1.350  16.901 -0.5605 -0.0242  0.0013
 2596TIP3    H129279   3.040   1.267  16.860 -3.4006 -1.3809  3.7621
 2596TIP3    H229280   3.003   1.414  16.863 -1.0302 -0.5537 -0.1482
 2597TIP3   OH229281   6.726   0.997   5.229 -0.0002 -0.0801  0.0749
 2597TIP3    H129282   6.818   1.009   5.257  0.6892  0.0642 -2.1070
 2597TIP3    H229283   6.717   0.903   5.215  0.0009 -0.0145 -0.3529
 2598TIP3   OH229284   1.281   4.716  13.390 -0.0088 -0.4909  0.0952
 2598TIP3    H129285   1.329   4.731  13.471 -1.7273 -0.1913  1.0943
 2598TIP3    H229286   1.349   4.699  13.325  1.4052 -0.6933  1.5733
 2599TIP3   OH229287   0.351   5.455   3.582  0.1364  0.8123  0.6149
 2599TIP3    H129288   0.382   5.396   3.513 -0.8127  1.7185 -0.6314
 2599TIP3    H229289   0.277   5.409   3.621 -1.1102  1.4430 -0.8862
 2600TIP3   OH229290   2.424   1.996  13.331  0.1130  0.0785 -0.0982
 2600TIP3    H129291   2.395   2.003  13.240  0.5431 -1.1517 -0.3533
 2600TIP3    H229292   2.358   2.043  13.381 -0.2790  0.5380 -1.0266
 2601TIP3   OH229293   1.985   0.031   4.948 -0.0219 -0.2412  0.9423
 2601TIP3    H129294   2.048   0.102   4.947  0.5922 -0.7789  0.2140
 2601TIP3    H229295   2.027  -0.039   4.997  0.5581 -1.1086 -0.7170
 2602TIP3   OH229296   4.411   3.967  15.925  0.1806  0.0418 -0.1230
 2602TIP3    H129297   4.400   3.969  16.020  2.1127  1.3735  0.1283
 2602TIP3    H229298   4.489   3.913  15.911 -0.8142 -1.2449 -1.0992
 2603TIP3   OH229299   4.784   0.584  11.462  0.2383  0.0047 -0.1364
 2603TIP3    H129300   4.866   0.551  11.425 -0.1974 -0.9751 -0.2397
 2603TIP3    H229301   4.800   0.678  11.474  2.3895 -0.5752  2.5489
 2604TIP3   OH229302   2.158   4.113   2.058  0.1701  0.3005  0.9878
 2604TIP3    H129303   2.117   4.199   2.067 -0.4996  0.0327  0.5365
 2604TIP3    H229304   2.149   4.091   1.965  0.6917 -0.0806  1.0228
 2605TIP3   OH229305   5.693   3.429   4.885  0.1035  0.1065  0.3090
 2605TIP3    H129306   5.773   3.376   4.882 -0.0723 -0.3695  2.4494
 2605TIP3    H229307   5.723   3.513   4.920 -0.0264  0.6232 -0.7869
 2606TIP3   OH229308   3.680   0.399   4.756 -0.3557 -0.3719  0.1278
 2606TIP3    H129309   3.699   0.469   4.819 -1.1049 -0.6565  0.6898
 2606TIP3    H229310   3.606   0.352   4.795  1.5417 -2.9225  0.9273
 2607TIP3   OH229311   6.563   3.045  12.183  0.0554 -0.1224  0.3718
 2607TIP3    H129312   6.607   3.103  12.245  1.4547 -1.3965  0.6264
 2607TIP3    H229313   6.469   3.062  12.196  0.3639  0.4959  1.9788
 2608TIP3   OH229314   1.949   1.530  13.690  0.1308  0.3001  0.6489
 2608TIP3    H129315   2.028   1.498  13.734  2.2500  1.7073 -1.8941
 2608TIP3    H229316   1.907   1.451  13.656  2.0707 -0.3056 -0.4862
 2609TIP3   OH229317   3.266   5.498   0.083  0.3641 -0.1263  0.6787
 2609TIP3    H129318   3.308   5.510  -0.002  1.8397  2.1326  1.6633
 2609TIP3    H229319   3.247   5.586   0.114 -0.3157 -0.9029  2.6425
 2610TIP3   OH229320   4.197   6.390  14.378  0.0025 -0.0779 -0.4919
 2610TIP3    H129321   4.270   6.439  14.339 -0.4783 -0.3029 -1.6942
 2610TIP3    H229322   4.123   6.407  14.321 -0.8732  0.0066  0.6287
 2611TIP3   OH229323   5.070   2.885  12.612  0.1799  0.1185 -0.3097
 2611TIP3    H129324   5.116   2.837  12.682  0.0167  0.3330 -0.0512
 2611TIP3    H229325   5.118   2.863  12.533 -0.0484 -0.6840 -0.2381
 2612TIP3   OH229326   3.457   6.813  15.009  0.3820  0.0196 -0.2844
 2612TIP3    H129327   3.480   6.724  14.981 -0.0194 -0.4119  0.7161
 2612TIP3    H229328   3.538   6.862  15.004  0.8493 -0.6887  0.2117
 2613TIP3   OH229329   5.434   0.217   1.621 -0.4061 -0.2355  0.5009
 2613TIP3    H129330   5.375   0.152   1.660 -0.8266 -0.6266 -0.7277
 2613TIP3    H229331   5.513   0.168   1.598 -0.5707 -0.2392 -0.0746
 2614TIP3   OH229332   4.550   4.200   0.845 -0.1013  0.2824 -0.5648
 2614TIP3    H129333   4.541   4.107   0.824  1.1634  0.2544 -1.0359
 2614TIP3    H229334   4.605   4.202   0.923 -0.9468  0.6035  0.0364
 2615TIP3   OH229335   0.533   6.618   0.450 -0.0833 -0.0347  0.5082
 2615TIP3    H129336   0.625   6.645   0.446  0.0847 -0.1115  2.7568
 2615TIP3    H229337   0.534   6.529   0.415  1.0100 -0.6140  1.8797
 2616TIP3   OH229338   1.015   1.872   2.776 -0.0601  0.0342  0.4393
 2616TIP3    H129339   0.948   1.871   2.707 -0.3388  0.1126  0.7081
 2616TIP3    H229340   1.008   1.960   2.815  0.0895 -0.0138  0.5743
 2617TIP3   OH229341   6.793   3.561  16.809  0.4427 -0.3571  0.0058
 2617TIP3    H129342   6.822   3.618  16.880 -1.7935 -1.1655  1.7053
 2617TIP3    H229343   6.773   3.621  16.737  2.8874  0.4726 -0.0685
 2618TIP3   OH229344   1.045   2.025   5.473  0.5122 -0.1707  0.1199
 2618TIP3    H129345   1.014   2.054   5.558 -1.4462 -0.8869 -0.2931
 2618TIP3    H229346   1.088   2.102   5.435  0.6124  0.4055  1.3753
 2619TIP3   OH229347   3.956   2.382   4.157 -0.5618  0.5318 -0.5783
 2619TIP3    H129348   3.962   2.303   4.211 -1.7408  0.6267 -0.2604
 2619TIP3    H229349   3.996   2.451   4.211  0.6939  0.1198 -0.9604
 2620TIP3   OH229350   2.092   4.509  16.091 -0.2413  0.3037  0.3702
 2620TIP3    H129351   2.159   4.557  16.139  0.4748 -0.8731  0.5729
 2620TIP3    H229352   2.135   4.429  16.063 -0.4262  1.1743 -2.8202
 2621TIP3   OH229353   3.904   5.446   3.052 -0.4796  0.2277 -0.1657
 2621TIP3    H129354   3.877   5.451   3.144  1.6424 -2.2004  0.7052
 2621TIP3    H229355   3.999   5.458   3.054 -0.5111  1.3858 -2.2517
 2622TIP3   OH229356   1.880   5.669   4.383  0.4124  0.2313 -0.3566
 2622TIP3    H129357   1.861   5.722   4.306  1.0573  0.4029 -0.4013
 2622TIP3    H229358   1.822   5.592   4.374  1.4702 -0.4507 -1.7445
 2623TIP3   OH229359   0.964   0.816  10.597  0.8185 -0.0177 -0.1667
 2623TIP3    H129360   0.987   0.834  10.506  1.3095 -2.2554 -0.5425
 2623TIP3    H229361   0.980   0.723  10.608 -1.7505 -0.3749  1.4631
 2624TIP3   OH229362   0.825   2.960  16.372  0.2200  0.4677 -0.5721
 2624TIP3    H129363   0.873   2.894  16.322  0.7344  1.4243 -1.3827
 2624TIP3    H229364   0.888   2.993  16.436  0.4660  1.2579 -1.2009
 2625TIP3   OH229365   4.128   3.778   5.040  0.0090  0.2374 -0.1810
 2625TIP3    H129366   4.101   3.870   5.045 -0.4401  0.1084 -0.2440
 2625TIP3    H229367   4.175   3.763   5.122  0.5146  0.6559 -0.3826
 2626TIP3   OH229368   6.377   0.849   0.251 -0.5778  0.5677  0.1910
 2626TIP3    H129369   6.349   0.900   0.327  1.5276  0.2444  1.2684
 2626TIP3    H229370   6.340   0.895   0.176 -0.1429  2.7345  1.2207
 2627TIP3   OH229371   2.291   6.570  12.970 -0.0308  0.1089  0.1879
 2627TIP3    H129372   2.262   6.613  12.890 -0.2062  0.7508  0.5898
 2627TIP3    H229373   2.368   6.520  12.944 -0.0806  0.3247 -0.3775
 2628TIP3   OH229374   5.661   4.876   5.084 -0.3808  0.4225  0.1144
 2628TIP3    H129375   5.700   4.941   5.141  0.5319  0.3893 -0.4525
 2628TIP3    H229376   5.712   4.880   5.003 -1.1484 -0.0719 -0.4197
 2629TIP3   OH229377   6.053   3.207  11.854 -0.5733 -0.3936 -0.3170
 2629TIP3    H129378   6.093   3.281  11.899 -0.1450 -1.3733  0.9909
 2629TIP3    H229379   6.084   3.214  11.763  0.8274  0.0874  0.1779
 2630TIP3   OH229380   2.655   1.426  12.998  0.2334  0.1020 -0.4661
 2630TIP3    H129381   2.683   1.357  12.939  2.6297  0.1119  0.5264
 2630TIP3    H229382   2.736   1.457  13.039 -1.1531  0.9746  1.8385
 2631TIP3   OH229383   0.897   0.784  12.713 -0.2402 -0.2534  0.1293
 2631TIP3    H129384   0.908   0.783  12.808  0.0021 -1.8423  0.1029
 2631TIP3    H229385   0.887   0.692  12.689 -0.6592  0.1605 -1.3476
 2632TIP3   OH229386   3.756   2.999  16.716 -0.2830  0.0403 -0.4877
 2632TIP3    H129387   3.790   2.949  16.789  2.6659 -0.4000 -2.0239
 2632TIP3    H229388   3.662   2.979  16.715  0.0136 -1.8706  1.6221
 2633TIP3   OH229389   0.923   3.263  14.188 -0.3901 -0.6801 -0.5215
 2633TIP3    H129390   0.902   3.309  14.269  1.2420 -1.0351  0.1426
 2633TIP3    H229391   0.907   3.328  14.119 -0.3364  0.1306  0.2068
 2634TIP3   OH229392   6.159   3.572  12.489 -0.0442  0.4292  0.0654
 2634TIP3    H129393   6.192   3.489  12.523  1.8919  1.0842 -0.0937
 2634TIP3    H229394   6.229   3.634  12.505 -0.6568  1.6143 -1.6019
 2635TIP3   OH229395   6.549   1.122  16.210  0.1680 -0.4931 -0.1995
 2635TIP3    H129396   6.609   1.050  16.228 -0.5787 -0.7523  1.4290
 2635TIP3    H229397   6.465   1.093  16.246 -0.5041  0.6060 -0.8192
 2636TIP3   OH229398   2.371   5.772  12.960  0.7372  0.2737  0.1397
 2636TIP3    H129399   2.445   5.813  12.915  2.0834 -0.9387  1.1269
 2636TIP3    H229400   2.376   5.805  13.050  0.4351 -0.2493  0.3563
 2637TIP3   OH229401   3.848   3.820  14.588 -0.0348 -0.0631  0.2374
 2637TIP3    H129402   3.833   3.801  14.495  1.0881  0.3374 -0.0403
 2637TIP3    H229403   3.865   3.914  14.591  1.4084 -0.3123  0.6272
 2638TIP3   OH229404   5.855   6.026   0.359 -0.1208  0.7534 -0.0346
 2638TIP3    H129405   5.816   6.093   0.303  0.2974 -0.1131 -1.4255
 2638TIP3    H229406   5.911   6.074   0.420 -2.2724  1.9075  1.1357
 2639TIP3   OH229407   6.099   4.922   6.105  0.1910 -0.4066  0.0881
 2639TIP3    H129408   6.162   4.855   6.077 -1.0719 -1.0374 -1.3563
 2639TIP3    H229409   6.141   5.005   6.083  0.4857 -0.8192 -0.9949
 2640TIP3   OH229410   1.400   5.008  14.748 -0.2070  0.4855 -0.2368
 2640TIP3    H129411   1.469   5.072  14.729  0.4080 -0.2444 -0.5178
 2640TIP3    H229412   1.389   5.013  14.843 -0.6122  1.4441 -0.3198
 2641TIP3   OH229413   5.439   5.780  16.673 -0.3061  0.1441 -0.0561
 2641TIP3    H129414   5.452   5.790  16.579  2.4399 -0.7093  0.1384
 2641TIP3    H229415   5.383   5.702  16.681 -1.9840  1.1989 -0.9551
 2642TIP3   OH229416   5.913   6.786   0.058  0.6931  0.1749  0.0411
 2642TIP3    H129417   5.903   6.822   0.146  0.1069  0.6769 -0.2275
 2642TIP3    H229418   6.007   6.792   0.040  1.5348 -3.5434  2.1397
 2643TIP3   OH229419   2.205   4.708  13.163  0.1752 -0.4341 -0.2299
 2643TIP3    H129420   2.187   4.662  13.081  0.2234  1.8515 -1.6021
 2643TIP3    H229421   2.298   4.729  13.158 -0.0703  0.7169 -0.1530
 2644TIP3   OH229422   1.079   3.693  11.796 -0.2343 -0.1900 -0.2045
 2644TIP3    H129423   1.064   3.614  11.744  2.6660 -2.2572  1.7792
 2644TIP3    H229424   1.032   3.678  11.878 -2.8199  1.9893 -1.1452
 2645TIP3   OH229425   6.096   5.364   5.085  0.3865  0.0663  0.0050
 2645TIP3    H129426   6.072   5.395   4.998  1.5636  2.2546  0.4033
 2645TIP3    H229427   6.180   5.319   5.072  0.1203 -0.3950 -0.1239
 2646TIP3   OH229428   3.600   2.287   5.408 -0.3831 -0.3130  0.2423
 2646TIP3    H129429   3.602   2.213   5.470  1.5068 -0.9117 -0.4845
 2646TIP3    H229430   3.516   2.277   5.363 -0.9412 -0.9797  1.3746
 2647TIP3   OH229431   3.084   6.845   0.754 -0.2242  0.2282 -0.3764
 2647TIP3    H129432   3.038   6.774   0.796 -0.8348  0.5832 -0.4331
 2647TIP3    H229433   3.168   6.850   0.799 -0.8439  0.5729  0.7722
 2648TIP3   OH229434   1.491   4.066  16.768  0.0885 -0.1359 -0.2436
 2648TIP3    H129435   1.576   4.021  16.758 -0.1060 -0.8340  0.9692
 2648TIP3    H229436   1.514   4.156  16.788  0.6429 -0.6802  1.8446
 2649TIP3   OH229437   4.160   5.748   3.433 -0.2905  0.4888 -0.1523
 2649TIP3    H129438   4.169   5.678   3.369  2.0831  0.9638 -0.4360
 2649TIP3    H229439   4.127   5.705   3.511  1.4684 -1.0639 -0.1945
 2650TIP3   OH229440   5.433   4.597   2.894  0.2398  0.0122  0.2757
 2650TIP3    H129441   5.484   4.519   2.916  1.4197  0.6965  0.0539
 2650TIP3    H229442   5.468   4.625   2.810  0.5017  1.3079  0.7884
 2651TIP3   OH229443   4.104   0.460  12.976 -0.0223 -0.1705 -0.6587
 2651TIP3    H129444   4.130   0.390  12.916  0.4314  0.4356 -1.1801
 2651TIP3    H229445   4.009   0.467  12.966 -0.1600 -1.1230 -0.1394
 2652TIP3   OH229446   0.993   6.402  11.337 -0.0311 -0.5516  0.2133
 2652TIP3    H129447   1.083   6.381  11.362  0.1258  0.5701  0.6427
 2652TIP3    H229448   0.945   6.319  11.348  0.4286 -0.5975  2.4261
 2653TIP3   OH229449   2.296   5.780  12.502 -0.0788 -0.0856  0.3975
 2653TIP3    H129450   2.304   5.870  12.531 -1.0097  0.4146 -0.8437
 2653TIP3    H229451   2.382   5.759  12.465 -0.2213  0.6955 -0.3958
 2654TIP3   OH229452   1.079   2.902  12.502 -0.4098 -0.3196  0.1206
 2654TIP3    H129453   1.062   2.983  12.455  1.5835  0.7867  1.1745
 2654TIP3    H229454   1.094   2.929  12.592  0.8420 -1.7657  0.3979
 2655TIP3   OH229455   0.248   4.722  13.062 -0.1137 -0.2109 -0.4652
 2655TIP3    H129456   0.332   4.703  13.104  0.2965  0.7270 -0.8153
 2655TIP3    H229457   0.230   4.645  13.008 -0.0445 -0.9009  0.4858
 2656TIP3   OH229458   1.487   3.858  12.415  0.4713 -0.2553  0.1658
 2656TIP3    H129459   1.572   3.820  12.434  1.2113  2.1030  2.2085
 2656TIP3    H229460   1.433   3.836  12.491  1.0654  2.8253  1.6620
 2657TIP3   OH229461   5.960   0.855   1.802 -0.0369 -0.0243 -0.2203
 2657TIP3    H129462   5.872   0.868   1.834 -0.3223 -1.0133 -0.5545
 2657TIP3    H229463   5.959   0.766   1.765  0.4364  0.7928 -2.3312
 2658TIP3   OH229464   5.882   0.948   3.309  0.2452 -0.1484 -0.2451
 2658TIP3    H129465   5.813   0.960   3.243 -2.5074 -2.8340  1.8605
 2658TIP3    H229466   5.893   1.034   3.348 -0.7434  0.7111 -1.7374
 2659TIP3   OH229467   5.362   5.462   1.054 -0.2955  0.4313  0.2517
 2659TIP3    H129468   5.338   5.494   1.141 -2.4365 -1.3525  0.4031
 2659TIP3    H229469   5.387   5.371   1.068  1.0512  0.6061 -0.7884
 2660TIP3   OH229470   2.496   6.725   6.169 -0.2193  0.2156  0.6030
 2660TIP3    H129471   2.566   6.666   6.140 -0.6144 -0.4294  0.9449
 2660TIP3    H229472   2.517   6.742   6.261  0.3178  1.2338  0.3105
 2661TIP3   OH229473   0.204   1.453  16.361  0.5361 -0.2656  0.3024
 2661TIP3    H129474   0.114   1.425  16.340  0.3244  0.0390  0.8073
 2661TIP3    H229475   0.248   1.453  16.276  0.3457 -1.4237  0.1746
 2662TIP3   OH229476   4.740   0.615  10.478  0.1648  0.4067  0.2919
 2662TIP3    H129477   4.650   0.627  10.507  0.0099  0.0054 -0.0106
 2662TIP3    H229478   4.773   0.704  10.467  0.1770  0.5695  1.5070
 2663TIP3   OH229479   2.222   3.393   3.214 -0.2455 -0.1301  0.1528
 2663TIP3    H129480   2.186   3.419   3.130  0.2917 -1.3598 -0.4823
 2663TIP3    H229481   2.317   3.401   3.204 -0.1402 -0.9556  0.3983
 2664TIP3   OH229482   5.716   2.304   0.408 -0.3592 -0.5062  0.1029
 2664TIP3    H129483   5.702   2.357   0.486  0.0631 -0.4361  0.1358
 2664TIP3    H229484   5.663   2.225   0.423 -0.0104 -0.6507  0.6245
 2665TIP3   OH229485   0.847   4.833  10.500  0.1759 -0.7566 -0.2014
 2665TIP3    H129486   0.864   4.876  10.584  1.2621 -1.6223  0.0594
 2665TIP3    H229487   0.935   4.813  10.466 -0.2443 -0.1251 -1.7093
 2666TIP3   OH229488   4.811   4.876  13.121  0.0584  0.0053 -0.5470
 2666TIP3    H129489   4.842   4.793  13.159  1.2524  0.7212  0.0825
 2666TIP3    H229490   4.716   4.864  13.113  0.2610 -1.6433 -1.0229
 2667TIP3   OH229491   4.126   0.896  11.550  0.5439 -0.0535  0.6011
 2667TIP3    H129492   4.118   0.826  11.485 -0.8013  1.3482 -0.8218
 2667TIP3    H229493   4.123   0.977  11.499  0.5674  1.0918  2.3326
 2668TIP3   OH229494   0.570   3.149  14.085 -0.0215  0.1721 -0.0739
 2668TIP3    H129495   0.622   3.070  14.099  0.9274  0.8439  0.2666
 2668TIP3    H229496   0.558   3.185  14.173 -1.6896 -0.3423 -0.0549
 2669TIP3   OH229497   6.025   6.265  15.657 -0.4883 -0.0127  0.4396
 2669TIP3    H129498   6.035   6.360  15.649  1.3091 -0.1763  0.3609
 2669TIP3    H229499   6.090   6.240  15.722  0.8925 -1.4769 -1.3902
 2670TIP3   OH229500   1.195   0.195  13.304 -0.0779 -0.0623  0.3661
 2670TIP3    H129501   1.262   0.153  13.359 -0.9098 -0.6492  0.9451
 2670TIP3    H229502   1.158   0.263  13.360 -0.0624  0.1755  0.0889
 2671TIP3   OH229503   2.739   1.181   4.056 -0.4430 -0.4789 -0.2784
 2671TIP3    H129504   2.646   1.202   4.054 -0.5499 -0.9125  0.0030
 2671TIP3    H229505   2.750   1.111   3.992 -0.3000 -0.3934 -0.3492
 2672TIP3   OH229506   2.665   5.763  11.255  0.3353  0.1208  0.5111
 2672TIP3    H129507   2.737   5.731  11.201  0.5695 -0.5134  1.1844
 2672TIP3    H229508   2.614   5.685  11.277 -0.4298  0.5309  0.2365
 2673TIP3   OH229509   0.102   6.292  14.295  0.0284 -0.5925  0.3813
 2673TIP3    H129510   0.112   6.342  14.376 -0.0672  2.0376 -1.1232
 2673TIP3    H229511   0.017   6.249  14.303 -0.9187  1.2857  0.8848
 2674TIP3   OH229512   4.852   0.004   5.227  0.4626  0.6026 -0.0550
 2674TIP3    H129513   4.794   0.023   5.301  0.5997 -0.9656  0.4922
 2674TIP3    H229514   4.877   0.090   5.193 -1.1869  1.3280  0.4657
 2675TIP3   OH229515   4.497   5.783  15.504  0.2493  0.3563 -0.0337
 2675TIP3    H129516   4.574   5.728  15.489 -0.1175 -0.3823  0.6822
 2675TIP3    H229517   4.432   5.722  15.539  0.2743  1.4847  2.1401
 2676TIP3   OH229518   5.097   2.938   6.030 -0.0366 -0.4147 -0.3915
 2676TIP3    H129519   5.020   2.994   6.026  0.3090  0.0748 -0.2872
 2676TIP3    H229520   5.118   2.921   5.938  0.9911  1.2306 -0.5083
 2677TIP3   OH229521   2.771   2.027  14.090 -0.1828  0.5972 -0.9359
 2677TIP3    H129522   2.763   2.012  14.184 -0.0349 -1.0413 -1.1575
 2677TIP3    H229523   2.795   2.120  14.082  0.4383  0.5984  0.6608
 2678TIP3   OH229524   5.951   5.457   1.190  1.0791  1.0322 -0.7151
 2678TIP3    H129525   6.042   5.430   1.178  0.2930 -1.4128 -1.9366
 2678TIP3    H229526   5.932   5.511   1.113  0.6526 -1.1859 -2.2667
 2679TIP3   OH229527   5.739   6.558   5.724  0.5941 -0.1989 -0.8051
 2679TIP3    H129528   5.809   6.493   5.729  1.3363  0.6558  1.6595
 2679TIP3    H229529   5.665   6.519   5.770  1.3911  0.9439  1.6701
 2680TIP3   OH229530   0.769   4.054   5.667 -0.1430  0.2917  0.2433
 2680TIP3    H129531   0.801   4.123   5.724  0.1934  0.3197  0.0207
 2680TIP3    H229532   0.706   4.006   5.721  0.2236  0.2730  0.6618
 2681TIP3   OH229533   2.571   2.790  16.535  0.4354  0.2787  0.3261
 2681TIP3    H129534   2.615   2.767  16.616  0.1428  1.6101  0.8871
 2681TIP3    H229535   2.537   2.707  16.501 -0.5017 -0.1521  2.2045
 2682TIP3   OH229536   1.843   5.847   4.612 -0.0104  0.3318  0.8550
 2682TIP3    H129537   1.869   5.856   4.520  0.3604 -0.7843  0.8327
 2682TIP3    H229538   1.890   5.917   4.657 -0.3253  0.9905  0.1776
 2683TIP3   OH229539   6.725   0.380  13.433 -0.2737  0.3929 -0.8189
 2683TIP3    H129540   6.796   0.404  13.372  1.1328 -0.7910  0.2757
 2683TIP3    H229541   6.687   0.301  13.395 -0.4713  0.5568 -0.9691
 2684TIP3   OH229542   3.845   5.671   1.415  0.3445 -0.8829 -0.1508
 2684TIP3    H129543   3.836   5.736   1.346 -0.0563  0.1526  0.8480
 2684TIP3    H229544   3.784   5.699   1.483  2.4443 -0.4457  1.6793
 2685TIP3   OH229545   6.144   4.351  13.553  0.1213 -0.1475  0.1080
 2685TIP3    H129546   6.173   4.286  13.489 -0.1128  0.0287 -0.1799
 2685TIP3    H229547   6.094   4.300  13.618 -0.5108 -0.1852 -0.3979
 2686TIP3   OH229548   0.763   4.711  12.328 -0.4171 -0.7967 -0.3817
 2686TIP3    H129549   0.704   4.778  12.293  0.8063 -0.0203 -1.0391
 2686TIP3    H229550   0.748   4.713  12.422 -0.4257  0.4054 -0.3868
 2687TIP3   OH229551   2.311   3.707   2.947 -0.2032 -0.4927  0.6623
 2687TIP3    H129552   2.347   3.769   2.884 -2.0334  0.5148  0.5362
 2687TIP3    H229553   2.351   3.732   3.030 -0.4403  0.4505  0.5004
 2688TIP3   OH229554   2.972   1.430  13.420 -0.1404  0.2586  0.7213
 2688TIP3    H129555   2.937   1.498  13.362  1.2972  1.2539  0.9657
 2688TIP3    H229556   2.934   1.449  13.506 -0.1554  0.4177  0.6792
 2689TIP3   OH229557   2.199   4.544  14.681 -0.1568  0.2476  0.0852
 2689TIP3    H129558   2.262   4.607  14.715  1.2840 -0.2036 -1.6438
 2689TIP3    H229559   2.131   4.598  14.640 -0.6993  0.7174  1.5323
 2690TIP3   OH229560   2.967   5.237  16.116  0.4314 -0.3951 -0.0656
 2690TIP3    H129561   2.989   5.234  16.209  0.4736  1.8336  0.0434
 2690TIP3    H229562   2.962   5.330  16.095  0.8304 -0.8303 -2.4039
 2691TIP3   OH229563   0.618   6.372  16.452 -0.0787 -0.1027 -0.0493
 2691TIP3    H129564   0.622   6.434  16.380 -0.2839  2.6202  2.1274
 2691TIP3    H229565   0.528   6.379  16.485  0.1589 -0.8720  0.8213
 2692TIP3   OH229566   3.996   5.835   1.818  0.0115  0.2667 -0.0853
 2692TIP3    H129567   3.994   5.914   1.764  0.9164  1.1162  1.0692
 2692TIP3    H229568   3.991   5.762   1.756 -2.2621  1.2080 -1.0991
 2693TIP3   OH229569   4.794   6.428  11.064  0.3967 -0.1035 -0.4248
 2693TIP3    H129570   4.799   6.423  11.159 -0.8873  2.4062 -0.1575
 2693TIP3    H229571   4.703   6.447  11.045  0.9407  1.1894 -2.0106
 2694TIP3   OH229572   0.732   5.462   3.918 -0.0999  0.2614  0.7246
 2694TIP3    H129573   0.827   5.456   3.923 -0.1700 -2.3298  0.6371
 2694TIP3    H229574   0.709   5.536   3.975  2.0269  2.5351 -1.1514
 2695TIP3   OH229575   5.503   3.977  15.043  0.0936  0.2293  0.0065
 2695TIP3    H129576   5.548   4.059  15.023  2.3625 -0.3947  2.0510
 2695TIP3    H229577   5.458   3.953  14.962  1.3567  2.2413 -1.3696
 2696TIP3   OH229578   2.126   4.586   1.408  0.4034  0.4024  0.0988
 2696TIP3    H129579   2.157   4.669   1.444  0.0867  0.8787 -0.7269
 2696TIP3    H229580   2.192   4.522   1.437  0.9435  1.0237  0.2701
 2697TIP3   OH229581   6.040   3.268  11.323  0.4403  0.4643  0.0954
 2697TIP3    H129582   5.980   3.193  11.317 -1.3800  1.8066  0.5899
 2697TIP3    H229583   6.035   3.310  11.237 -0.2810  1.2594  0.5172
 2698TIP3   OH229584   2.698   2.486   0.997 -0.3007 -0.2204 -0.6299
 2698TIP3    H129585   2.630   2.453   0.939  0.7076 -0.9186 -1.4627
 2698TIP3    H229586   2.693   2.582   0.987 -1.7692 -0.2011  0.0825
 2699TIP3   OH229587   0.923   2.836  13.941 -0.6785 -0.2925 -0.1082
 2699TIP3    H129588   0.849   2.866  13.994 -0.2935  1.7617 -0.6471
 2699TIP3    H229589   0.917   2.888  13.861  1.2915 -0.1630 -0.2057
 2700TIP3   OH229590   3.942   3.838   4.798 -0.4839 -0.0294 -0.3091
 2700TIP3    H129591   3.970   3.892   4.724  0.1138  0.9357  0.5704
 2700TIP3    H229592   3.895   3.900   4.855 -0.8635 -0.7284  0.1422
 2701TIP3   OH229593   5.277   5.111  15.984  0.2648  0.4811  0.2926
 2701TIP3    H129594   5.341   5.182  15.987 -0.0154  0.7163  2.1801
 2701TIP3    H229595   5.319   5.039  16.031  0.1353 -0.2550 -0.6933
 2702TIP3   OH229596   5.674   6.054  11.950  0.3713 -0.3458  0.4919
 2702TIP3    H129597   5.767   6.032  11.941  0.7438  1.2736 -0.0106
 2702TIP3    H229598   5.629   5.986  11.901  1.1868 -1.7754  1.6304
 2703TIP3   OH229599   1.278   3.104   1.125 -0.1449 -0.2441  0.6165
 2703TIP3    H129600   1.207   3.078   1.067  0.1859  0.0387  0.0688
 2703TIP3    H229601   1.300   3.025   1.173 -2.0246  0.0869  2.1298
 2704TIP3   OH229602   0.905   2.522  14.507  0.3570  0.0164  0.4189
 2704TIP3    H129603   0.909   2.488  14.597 -0.6791  0.2153  0.5484
 2704TIP3    H229604   0.847   2.461  14.461  2.1107 -0.9934 -0.5412
 2705TIP3   OH229605   4.209   2.271   2.738 -0.4934  0.2752 -0.1679
 2705TIP3    H129606   4.160   2.313   2.810  0.1750  1.5708 -0.4568
 2705TIP3    H229607   4.292   2.245   2.778 -1.5655 -2.5628  0.5093
 2706TIP3   OH229608   1.868   1.960   2.834  0.3214 -0.3692 -0.1133
 2706TIP3    H129609   1.815   2.003   2.901  0.7839  0.1062 -0.0463
 2706TIP3    H229610   1.921   1.897   2.883  0.2941 -0.3767 -0.0938
 2707TIP3   OH229611   2.565   4.836   7.329 -0.1734  0.1145 -0.5306
 2707TIP3    H129612   2.502   4.823   7.258 -1.1370 -0.0023  0.3121
 2707TIP3    H229613   2.650   4.836   7.286 -0.5522 -2.3332 -1.4227
 2708TIP3   OH229614   3.369   0.026  15.900  0.3194 -0.2312  0.4431
 2708TIP3    H129615   3.435  -0.021  15.952  0.6737  1.1398  1.2770
 2708TIP3    H229616   3.333   0.091  15.960 -1.0546 -0.2516 -0.3240
 2709TIP3   OH229617   0.255   2.016  12.637  0.5113  0.2130  0.0392
 2709TIP3    H129618   0.227   2.103  12.666  2.5532  1.3070 -0.9506
 2709TIP3    H229619   0.198   1.996  12.563 -0.4278  0.3848  0.7020
 2710TIP3   OH229620   5.563   0.380  13.208 -0.1108  0.4490 -0.5485
 2710TIP3    H129621   5.486   0.417  13.165 -0.7480 -0.1132  0.0767
 2710TIP3    H229622   5.535   0.293  13.237  1.2624 -0.4129 -1.7058
 2711TIP3   OH229623   0.646   4.198   1.760 -0.6323 -0.1596 -0.5698
 2711TIP3    H129624   0.725   4.242   1.730  0.1755  0.2971  1.9729
 2711TIP3    H229625   0.578   4.265   1.755 -0.4417  0.0047 -1.0007
 2712TIP3   OH229626   4.444   6.609   0.760  0.0636  0.3660 -0.5357
 2712TIP3    H129627   4.362   6.607   0.711 -0.6037  5.0080  0.0209
 2712TIP3    H229628   4.511   6.628   0.694  0.1648  0.1683 -0.4927
 2713TIP3   OH229629   2.820   5.898   2.846  0.0194 -0.1216 -0.1185
 2713TIP3    H129630   2.768   5.938   2.916 -2.8154 -0.3678 -1.9340
 2713TIP3    H229631   2.828   5.966   2.779  0.0571 -0.7964 -0.8220
 2714TIP3   OH229632   0.124   4.508   4.904  0.0864 -0.4581 -0.0974
 2714TIP3    H129633   0.187   4.462   4.848 -1.9128 -1.3259 -1.7934
 2714TIP3    H229634   0.050   4.525   4.846 -2.4669 -2.1030  2.4399
 2715TIP3   OH229635   0.718   0.721  12.453 -0.5311 -0.5096 -0.0734
 2715TIP3    H129636   0.628   0.691  12.440 -0.0360 -1.8087 -0.6271
 2715TIP3    H229637   0.715   0.815  12.432 -1.2914 -1.0015 -2.4729
 2716TIP3   OH229638   5.937   5.355  13.128 -0.0812 -0.2471  0.0868
 2716TIP3    H129639   5.879   5.309  13.067 -0.4047  0.0381  0.1726
 2716TIP3    H229640   5.957   5.438  13.084  0.1271 -0.2744  0.1296
 2717TIP3   OH229641   2.207   0.668  11.492 -0.4401 -0.0455 -0.3135
 2717TIP3    H129642   2.114   0.644  11.482 -0.8105  0.9221  0.7195
 2717TIP3    H229643   2.238   0.680  11.402 -1.3334 -0.3110 -0.6671
 2718TIP3   OH229644   5.768   4.189  14.571 -0.4308 -0.0219 -0.6168
 2718TIP3    H129645   5.776   4.251  14.498 -0.1721 -0.4133 -0.9209
 2718TIP3    H229646   5.719   4.116  14.535 -0.5846 -0.0757 -0.3028
 2719TIP3   OH229647   2.296   4.439   5.321 -0.3710  0.0794  0.4746
 2719TIP3    H129648   2.259   4.465   5.406 -0.4358 -0.4408  0.6053
 2719TIP3    H229649   2.227   4.461   5.258 -1.0453 -1.1939  0.7562
 2720TIP3   OH229650   4.888   3.643   1.547  0.0168 -0.0741 -0.5677
 2720TIP3    H129651   4.983   3.638   1.560  0.1707  1.5359 -0.8891
 2720TIP3    H229652   4.863   3.727   1.586 -0.9830  0.3664 -2.0541
 2721TIP3   OH229653   2.659   2.463   0.656  0.5634  0.0125  0.2682
 2721TIP3    H129654   2.743   2.430   0.688  1.0092 -0.0622 -0.9224
 2721TIP3    H229655   2.682   2.540   0.603 -0.3235  1.3766  1.7500
 2722TIP3   OH229656   6.046   2.643   1.848 -0.3844 -0.3024  0.0256
 2722TIP3    H129657   6.105   2.719   1.847 -0.5896 -0.1440 -0.2306
 2722TIP3    H229658   6.098   2.571   1.813 -0.3641 -0.1469 -0.2632
 2723TIP3   OH229659   1.426   5.718  15.585 -0.0078  0.2690 -0.3601
 2723TIP3    H129660   1.369   5.771  15.529 -0.4674  2.7638  2.2439
 2723TIP3    H229661   1.385   5.632  15.588 -1.0779  0.6694 -2.1362
 2724TIP3   OH229662   0.430   6.003  14.479  0.7771  0.3473 -0.2935
 2724TIP3    H129663   0.377   6.032  14.405  1.1570  1.4021 -0.1786
 2724TIP3    H229664   0.507   6.060  14.477  2.4014 -1.7344 -1.0098
 2725TIP3   OH229665   5.681   1.212  10.938  0.5458 -0.1858 -0.4028
 2725TIP3    H129666   5.626   1.152  10.990 -0.3019 -1.0555 -2.2037
 2725TIP3    H229667   5.636   1.296  10.943  0.5583 -0.2198  0.3830
 2726TIP3   OH229668   0.904   1.336   4.028  0.9380 -0.0975 -0.0427
 2726TIP3    H129669   0.974   1.401   4.022 -2.0975  3.5804  0.7178
 2726TIP3    H229670   0.890   1.324   4.122  1.4371 -1.9920 -0.1631
 2727TIP3   OH229671   1.119   6.213   2.841 -0.0737  0.0677 -0.2890
 2727TIP3    H129672   1.153   6.270   2.910  0.2656 -0.3024 -0.1491
 2727TIP3    H229673   1.183   6.143   2.834 -0.8130 -0.6549 -0.0047
 2728TIP3   OH229674   3.123   1.954   1.850  0.2495 -0.3520 -0.3978
 2728TIP3    H129675   3.146   2.014   1.779  0.3467  0.2348  0.1264
 2728TIP3    H229676   3.201   1.950   1.904 -0.7182  1.4615  1.2582
 2729TIP3   OH229677   5.100   6.517  13.621  0.0645 -0.1188  0.2777
 2729TIP3    H129678   5.166   6.548  13.683  0.1849  0.0508  0.0622
 2729TIP3    H229679   5.084   6.426  13.647  1.0169 -0.4415 -0.2076
 2730TIP3   OH229680   4.560   0.336   6.043 -0.2244 -0.3654  0.9392
 2730TIP3    H129681   4.471   0.304   6.033  0.0125 -1.0360  0.8676
 2730TIP3    H229682   4.564   0.369   6.133 -1.8761  4.1162 -0.3666
 2731TIP3   OH229683   4.080   5.810   3.066  0.3256 -0.2808  0.0897
 2731TIP3    H129684   4.172   5.833   3.057 -0.0678  2.1672  1.4537
 2731TIP3    H229685   4.034   5.870   3.006 -0.4351 -1.2530 -0.3398
 2732TIP3   OH229686   3.931   6.696   5.282  0.6652 -0.4457 -0.1803
 2732TIP3    H129687   3.876   6.750   5.337 -0.1618 -1.2231 -0.2244
 2732TIP3    H229688   3.930   6.610   5.323  0.3144 -0.9488 -1.2003
 2733TIP3   OH229689   0.672   5.236  16.027 -0.3935  0.3261  0.2712
 2733TIP3    H129690   0.638   5.242  16.117  0.4984  1.1426  0.5685
 2733TIP3    H229691   0.765   5.217  16.038 -0.8340 -2.8887 -0.5417
 2734TIP3   OH229692   2.251   4.686  16.235  0.0989 -0.9718  0.1462
 2734TIP3    H129693   2.159   4.712  16.245  0.3333  0.4013 -0.8918
 2734TIP3    H229694   2.284   4.680  16.325 -0.8473 -0.8961  0.5164
 2735TIP3   OH229695   1.294   4.809   5.653  0.0122 -0.8642  0.7227
 2735TIP3    H129696   1.356   4.802   5.580 -0.3403 -0.1417  0.3427
 2735TIP3    H229697   1.214   4.767   5.621 -0.5813  0.6153  0.1717
 2736TIP3   OH229698   1.548   0.069  13.160  0.3060  0.3530  0.4984
 2736TIP3    H129699   1.634   0.036  13.183  0.3747  1.8486  2.7669
 2736TIP3    H229700   1.544   0.156  13.201 -2.8802 -0.3672  2.0568
 2737TIP3   OH229701   4.900   1.831  14.749 -0.3686  0.4740  0.2368
 2737TIP3    H129702   4.862   1.806  14.833  1.3995 -0.6764  0.7401
 2737TIP3    H229703   4.863   1.769  14.686 -1.0838  0.8417  0.2795
 2738TIP3   OH229704   1.243   4.917  12.693  0.4537  0.1818  0.7409
 2738TIP3    H129705   1.197   4.946  12.614 -0.5624 -1.2740  0.7612
 2738TIP3    H229706   1.285   4.996  12.727  2.9538  0.4923 -2.5332
 2739TIP3   OH229707   5.895   1.971  15.557 -0.3705 -0.1795 -0.0091
 2739TIP3    H129708   5.806   1.938  15.541 -0.6622  0.2871  0.6353
 2739TIP3    H229709   5.913   1.949  15.648 -0.2614  0.7336  0.1954
 2740TIP3   OH229710   2.925   1.924   5.827  0.5517  0.2494  0.3540
 2740TIP3    H129711   3.018   1.918   5.805  0.4381 -0.6344  0.0649
 2740TIP3    H229712   2.923   1.956   5.917  1.1468 -0.1109  0.4994
 2741TIP3   OH229713   1.903   4.675  14.820  0.3438  0.2451 -0.1854
 2741TIP3    H129714   1.959   4.710  14.889  1.1117 -1.1571 -0.0502
 2741TIP3    H229715   1.899   4.744  14.754 -0.5031  1.6640  1.2784
 2742TIP3   OH229716   4.203   6.595   5.018 -0.4644  0.1642  0.3374
 2742TIP3    H129717   4.277   6.653   5.034 -0.2741 -0.1110  0.4555
 2742TIP3    H229718   4.133   6.654   4.989 -0.0371  0.3700 -0.3247
 2743TIP3   OH229719   4.897   3.581   5.489 -0.7349  0.1369  0.3311
 2743TIP3    H129720   4.888   3.595   5.395 -0.1029 -0.8222  0.1210
 2743TIP3    H229721   4.853   3.656   5.528 -0.3480  0.9403 -0.7302
 2744TIP3   OH229722   6.537   3.396  16.494 -0.0129 -0.1614  0.0129
 2744TIP3    H129723   6.555   3.386  16.401 -0.9490  0.9147 -0.3016
 2744TIP3    H229724   6.446   3.367  16.504 -0.5598  1.5303  0.2266
 2745TIP3   OH229725   1.385   2.635  13.717  0.5041 -0.1272  0.6279
 2745TIP3    H129726   1.307   2.590  13.751 -0.2847  1.2321  0.7039
 2745TIP3    H229727   1.419   2.576  13.650  0.0344 -1.2362  1.3274
 2746TIP3   OH229728   6.035   4.443  12.688 -0.5293 -0.0726  0.0365
 2746TIP3    H129729   6.124   4.431  12.721 -0.5015 -0.9979 -0.3475
 2746TIP3    H229730   5.983   4.378  12.735 -1.2005  1.0654  0.9358
 2747TIP3   OH229731   6.812   2.889  15.386 -0.2416 -0.0401 -0.7108
 2747TIP3    H129732   6.733   2.852  15.426  1.2683 -2.1989  0.4786
 2747TIP3    H229733   6.875   2.894  15.457  1.4711 -0.7627 -2.1208
 2748TIP3   OH229734   0.135   5.561  16.875  0.2798  0.7186 -0.4223
 2748TIP3    H129735   0.112   5.476  16.913  2.2695  0.6940  0.8232
 2748TIP3    H229736   0.120   5.549  16.781 -0.5079 -0.6381 -0.1648
 2749TIP3   OH229737   2.614   5.880   3.316  0.3366  0.0176  0.1241
 2749TIP3    H129738   2.600   5.826   3.394 -0.9833  1.7488  1.1690
 2749TIP3    H229739   2.538   5.860   3.260  1.4487 -1.4703 -0.9421
 2750TIP3   OH229740   3.772   0.581  15.170 -0.6539  0.1466 -0.0876
 2750TIP3    H129741   3.693   0.582  15.223 -2.1637 -1.4369 -2.1193
 2750TIP3    H229742   3.804   0.491  15.175  1.3366  0.8608  1.0547
 2751TIP3   OH229743   4.478   0.186  10.995  0.4603 -0.1015  0.5982
 2751TIP3    H129744   4.494   0.277  10.971  1.7552  0.2547  2.6095
 2751TIP3    H229745   4.519   0.135  10.924  0.1642  0.8448 -0.2792
 2752TIP3   OH229746   0.094   5.577   2.462 -0.0139 -0.0456 -0.0552
 2752TIP3    H129747   0.020   5.575   2.523 -0.7282 -1.7797 -0.9034
 2752TIP3    H229748   0.058   5.546   2.379  1.2995  0.7199 -0.9461
 2753TIP3   OH229749   4.781   1.643  13.134  0.3569 -0.1832  0.2742
 2753TIP3    H129750   4.777   1.555  13.096  0.7056  0.2299 -0.7776
 2753TIP3    H229751   4.690   1.673  13.133  0.3021 -0.3463  0.1598
 2754TIP3   OH229752   0.207   1.313   2.677 -0.5106 -0.4053  0.0908
 2754TIP3    H129753   0.164   1.394   2.652 -3.0248 -1.6600 -0.0072
 2754TIP3    H229754   0.189   1.305   2.771  2.0611  0.4073  0.7270
 2755TIP3   OH229755   0.013   3.968  11.320  0.3440  1.0011 -0.1644
 2755TIP3    H129756  -0.060   3.982  11.259  0.2241 -0.8857 -0.5224
 2755TIP3    H229757   0.087   3.943  11.264 -0.0029 -1.6690  0.3989
 2756TIP3   OH229758   1.041   0.883   0.545  0.2143  0.3492 -0.4993
 2756TIP3    H129759   1.114   0.875   0.484  0.5143  1.2365 -0.2689
 2756TIP3    H229760   1.051   0.808   0.604  0.8611  0.3807 -0.5594
 2757TIP3   OH229761   6.880   6.603   6.033 -0.5624 -0.4111 -0.0201
 2757TIP3    H129762   6.807   6.581   6.092 -1.6318 -2.0807 -1.8214
 2757TIP3    H229763   6.918   6.518   6.010 -0.8268  0.0550 -2.4583
 2758TIP3   OH229764   2.596   3.039  13.147 -0.3230  0.1811  0.2603
 2758TIP3    H129765   2.538   2.979  13.193 -0.8952  0.4566 -0.0805
 2758TIP3    H229766   2.681   2.995  13.145 -0.8554 -0.8729 -0.4699
 2759TIP3   OH229767   1.574   1.360  15.766  0.7046  0.1888  0.1596
 2759TIP3    H129768   1.521   1.315  15.701 -0.1583  0.5130  0.6324
 2759TIP3    H229769   1.511   1.397  15.828  1.5249 -2.5514  2.8829
 2760TIP3   OH229770   6.333   0.589  12.575  0.0507  0.5194  0.4943
 2760TIP3    H129771   6.238   0.578  12.587 -0.0923 -0.0968 -1.0033
 2760TIP3    H229772   6.344   0.603  12.481  1.3037  2.4652  0.8750
 2761TIP3   OH229773   4.578   5.862   0.439 -0.6064  0.3042  0.4120
 2761TIP3    H129774   4.593   5.919   0.364 -1.2123  1.0011  0.8142
 2761TIP3    H229775   4.639   5.789   0.426  1.4153  1.8577  0.7720
 2762TIP3   OH229776   3.038   6.228   1.799 -0.0334  0.0678  0.4650
 2762TIP3    H129777   3.025   6.133   1.803 -0.4466  0.1570  2.1764
 2762TIP3    H229778   3.068   6.252   1.887  1.6556  1.3295 -0.3934
 2763TIP3   OH229779   2.720   2.807   2.935 -0.3063  0.1560 -0.2321
 2763TIP3    H129780   2.765   2.891   2.936  1.6858 -0.7785 -2.2302
 2763TIP3    H229781   2.787   2.744   2.908 -2.4284 -1.6173 -1.7187
 2764TIP3   OH229782   5.211   0.321  15.828 -0.0785  0.4500 -0.3738
 2764TIP3    H129783   5.220   0.315  15.733  0.1332 -0.8127 -0.2907
 2764TIP3    H229784   5.224   0.232  15.859 -0.3572  0.8095  0.8314
 2765TIP3   OH229785   6.395   6.864   5.077  0.1984 -0.4418  0.2104
 2765TIP3    H129786   6.344   6.844   5.156  2.1924 -2.0238  1.2134
 2765TIP3    H229787   6.355   6.811   5.008 -0.3738 -0.5568  0.6263
 2766TIP3   OH229788   5.979   1.699  11.310  0.6004  0.2411  0.8353
 2766TIP3    H129789   5.970   1.793  11.298  1.4474  0.3655  1.0895
 2766TIP3    H229790   5.928   1.660  11.239  0.0205  0.8834  0.8916
 2767TIP3   OH229791   0.262   2.009  13.336  0.3835  0.3267  0.4525
 2767TIP3    H129792   0.326   2.056  13.283  0.5362  0.9047  1.1359
 2767TIP3    H229793   0.256   2.060  13.417 -1.0471  0.3679  0.3437
 2768TIP3   OH229794   2.123   3.860  14.833  0.4191 -0.3045  0.4348
 2768TIP3    H129795   2.131   3.912  14.913 -1.5367 -0.5522  0.8514
 2768TIP3    H229796   2.116   3.924  14.763  0.1778 -0.0330  0.7008
 2769TIP3   OH229797   1.729   5.226  16.674  0.6492  0.4196 -0.5641
 2769TIP3    H129798   1.742   5.304  16.620  1.2549  1.4508  0.9907
 2769TIP3    H229799   1.805   5.224  16.732 -1.5174  1.4165  2.6298
 2770TIP3   OH229800   5.836   6.486   3.761 -0.4503 -0.3758  0.7008
 2770TIP3    H129801   5.810   6.576   3.741 -0.6138 -0.3873  0.8564
 2770TIP3    H229802   5.874   6.454   3.679 -0.1678 -0.0881  0.7162
 2771TIP3   OH229803   5.402   4.142  12.357  0.7386 -0.0419 -0.0082
 2771TIP3    H129804   5.497   4.127  12.351  0.7691 -0.6544  1.5030
 2771TIP3    H229805   5.390   4.178  12.445 -0.6961 -2.3214  0.8068
 2772TIP3   OH229806   3.009   4.755  14.440 -0.0800 -0.0745 -0.0515
 2772TIP3    H129807   2.982   4.823  14.377 -1.0893  0.0943  0.5468
 2772TIP3    H229808   3.100   4.735  14.415 -0.7044 -0.6147 -2.1014
 2773TIP3   OH229809   1.991   2.682   2.428  0.6016 -0.6390  0.3461
 2773TIP3    H129810   2.044   2.760   2.413 -1.8610  1.3073  1.0663
 2773TIP3    H229811   1.934   2.676   2.351 -0.4467 -0.6389  1.0965
 2774TIP3   OH229812   2.891   6.492  15.341  0.0010  0.4897 -0.2990
 2774TIP3    H129813   2.877   6.573  15.390 -0.8805 -0.4332  1.0452
 2774TIP3    H229814   2.859   6.512  15.252  1.0185  1.9865 -0.3508
 2775TIP3   OH229815   1.018   0.050  14.187  0.6400 -0.6843 -0.0905
 2775TIP3    H129816   0.924   0.052  14.171  0.4924  2.5907  0.3984
 2775TIP3    H229817   1.058   0.079  14.105  0.8008  2.4488  0.9620
 2776TIP3   OH229818   4.188   0.182   5.778 -0.3645 -0.8809 -0.2268
 2776TIP3    H129819   4.128   0.256   5.792 -2.3849 -2.3673 -0.5050
 2776TIP3    H229820   4.267   0.222   5.743 -1.8271  1.0714 -1.5693
 2777TIP3   OH229821   6.153   2.505   4.524  0.2495 -0.4002  0.3468
 2777TIP3    H129822   6.229   2.555   4.552 -1.5837  1.9891  1.4147
 2777TIP3    H229823   6.080   2.544   4.572 -2.2650  0.1312 -3.5179
 2778TIP3   OH229824   2.178   1.589  15.082 -0.4933  0.7185  0.1485
 2778TIP3    H129825   2.126   1.668  15.099 -0.1121  1.1180 -0.4976
 2778TIP3    H229826   2.141   1.523  15.141 -1.8134  0.9575 -0.3754
 2779TIP3   OH229827   1.570   3.184   0.111 -0.7079  0.0761 -0.5017
 2779TIP3    H129828   1.624   3.191   0.032  0.1924 -1.0718 -0.0235
 2779TIP3    H229829   1.489   3.143   0.082  0.1685 -1.6390 -0.6159
 2780TIP3   OH229830   4.446   0.720   1.885 -0.0045 -0.3036 -0.0357
 2780TIP3    H129831   4.511   0.789   1.869 -1.9885  1.7240  0.1274
 2780TIP3    H229832   4.423   0.689   1.797  0.6363 -0.5234 -0.1327
 2781TIP3   OH229833   2.059   2.848   4.374 -0.0734 -0.3625  0.0236
 2781TIP3    H129834   2.154   2.857   4.376  0.0577 -1.7287  1.3008
 2781TIP3    H229835   2.031   2.870   4.463 -1.0662  0.8931 -0.5624
 2782TIP3   OH229836   1.814   0.856  11.608  0.5662  0.5653  0.3485
 2782TIP3    H129837   1.763   0.929  11.575  1.1561  0.8046 -0.0546
 2782TIP3    H229838   1.901   0.893  11.625  0.8803 -0.0400  0.1020
 2783TIP3   OH229839   2.628   6.441  11.123 -0.5055  0.0902  0.4039
 2783TIP3    H129840   2.547   6.445  11.073  0.9772 -0.9581 -2.2748
 2783TIP3    H229841   2.677   6.519  11.097  0.4958 -0.7259 -0.2761
 2784TIP3   OH229842   1.581   1.938   1.106 -0.4616  0.1899  0.2491
 2784TIP3    H129843   1.538   1.867   1.058 -1.2081  0.6989  0.1374
 2784TIP3    H229844   1.668   1.945   1.067 -0.7760  0.0691 -0.4836
 2785TIP3   OH229845   2.974   4.385  13.713  0.2586  0.4940 -0.0935
 2785TIP3    H129846   2.950   4.350  13.799  0.3578 -2.0184 -0.9780
 2785TIP3    H229847   2.974   4.480  13.724 -0.3971  0.2711  2.4799
 2786TIP3   OH229848   1.035   4.520  16.695 -0.1559  0.0355  0.0996
 2786TIP3    H129849   0.966   4.485  16.638 -0.6047  1.1346 -0.0575
 2786TIP3    H229850   1.010   4.491  16.783 -0.7895  0.3493  0.0335
 2787TIP3   OH229851   6.399   6.780  15.767 -0.9062 -0.3667 -0.1454
 2787TIP3    H129852   6.417   6.873  15.776 -2.3157 -0.0195 -0.6917
 2787TIP3    H229853   6.340   6.760  15.840 -3.2083 -0.0785 -1.8498
 2788TIP3   OH229854   0.878   5.150  15.783  0.4028 -0.1775  0.1868
 2788TIP3    H129855   0.973   5.145  15.784  0.4158 -0.1053 -0.2489
 2788TIP3    H229856   0.858   5.200  15.704  0.1468  3.0628  2.1161
 2789TIP3   OH229857   4.409   1.790   5.124  0.0757 -0.4202  0.4162
 2789TIP3    H129858   4.316   1.807   5.135  0.4784  2.3076  0.4457
 2789TIP3    H229859   4.416   1.748   5.038 -1.1089  0.4916 -0.1604
 2790TIP3   OH229860   0.940   5.309   5.975 -0.2553  0.6190 -0.0036
 2790TIP3    H129861   0.910   5.218   5.967  1.4270  0.1305 -1.5102
 2790TIP3    H229862   0.996   5.310   6.052  0.3942  0.1454 -0.4569
 2791TIP3   OH229863   4.673   5.876   3.139  0.3699 -0.0995 -0.1148
 2791TIP3    H129864   4.710   5.856   3.053  1.2194  0.1477  0.1898
 2791TIP3    H229865   4.578   5.863   3.128  0.5043 -0.3612 -1.0011
 2792TIP3   OH229866   3.259   1.427  15.032 -0.0176 -0.1595  1.2267
 2792TIP3    H129867   3.166   1.421  15.056 -0.4607 -0.1153 -0.3469
 2792TIP3    H229868   3.261   1.489  14.959  1.3334  0.2242  1.5645
 2793TIP3   OH229869   5.838   4.870  12.988 -0.0901 -0.2069  0.3567
 2793TIP3    H129870   5.892   4.875  13.068  0.0605  0.7058  0.2108
 2793TIP3    H229871   5.885   4.924  12.925 -0.9372  0.1996  0.0755
 2794TIP3   OH229872   2.404   6.840  11.883  0.7122 -0.0054  0.4596
 2794TIP3    H129873   2.422   6.792  11.964  0.3171  0.7463  1.0067
 2794TIP3    H229874   2.337   6.904  11.908 -0.9582 -1.1110 -0.9242
 2795TIP3   OH229875   0.292   2.790  14.906  0.4182  0.2569 -0.0500
 2795TIP3    H129876   0.252   2.871  14.935  0.6746  0.5598 -0.5406
 2795TIP3    H229877   0.330   2.810  14.821  1.4990 -0.0484  0.3410
 2796TIP3   OH229878   1.350   2.668  16.443 -0.1822 -0.5013 -0.2968
 2796TIP3    H129879   1.303   2.702  16.519  1.2627  0.4569  0.2015
 2796TIP3    H229880   1.332   2.731  16.373  0.1154 -0.2976 -0.1896
 2797TIP3   OH229881   1.267   5.216  13.846 -0.5732  0.0411  0.2937
 2797TIP3    H129882   1.179   5.240  13.874 -0.6327  2.0347 -1.4228
 2797TIP3    H229883   1.257   5.129  13.807 -1.4117 -0.5099  1.6585
 2798TIP3   OH229884   1.138   6.549   0.853 -0.6198  0.2251 -0.3087
 2798TIP3    H129885   1.121   6.460   0.884 -1.0019  0.1585 -0.7073
 2798TIP3    H229886   1.222   6.542   0.807 -1.5530 -0.3500 -1.9980
 2799TIP3   OH229887   2.065   4.130  14.736  0.1418 -0.3797 -0.3919
 2799TIP3    H129888   2.074   4.211  14.787 -0.4654  0.5092 -1.6332
 2799TIP3    H229889   1.977   4.135  14.699  0.1437 -1.5650 -0.5867
 2800TIP3   OH229890   1.670   4.323  12.754  0.7695 -0.1547 -0.6546
 2800TIP3    H129891   1.580   4.353  12.763  1.2072  0.9959  0.1196
 2800TIP3    H229892   1.669   4.265  12.677 -0.0957  2.0695 -2.4509
 2801TIP3   OH229893   5.160   2.617  10.885  0.5952  0.5655 -0.3750
 2801TIP3    H129894   5.076   2.573  10.895  0.9139  0.2565  1.3243
 2801TIP3    H229895   5.194   2.586  10.801 -0.1504 -0.7559 -0.2148
 2802TIP3   OH229896   3.565   5.363  13.115  0.3232 -0.0969 -0.1603
 2802TIP3    H129897   3.631   5.324  13.058  0.2667  0.5195 -0.6494
 2802TIP3    H229898   3.497   5.394  13.055  0.7852  1.5861  0.1358
 2803TIP3   OH229899   5.951   1.409   6.337  0.3524 -0.0646  0.4864
 2803TIP3    H129900   5.978   1.468   6.267  1.9531 -0.0350  1.1008
 2803TIP3    H229901   5.920   1.330   6.292 -1.7511  1.1464 -0.3460
 2804TIP3   OH229902   2.776   2.616  13.750  0.1308  0.4407 -0.1317
 2804TIP3    H129903   2.810   2.705  13.748  0.3319  0.3671  0.0738
 2804TIP3    H229904   2.746   2.600  13.660 -1.6137  1.3694  0.2256
 2805TIP3   OH229905   0.284   6.799   0.193  0.0440  0.5700 -0.4039
 2805TIP3    H129906   0.218   6.737   0.161  0.2317  0.0343  0.2144
 2805TIP3    H229907   0.356   6.791   0.130  0.5275 -0.6780  0.2675
 2806TIP3   OH229908   2.568   1.605   1.220 -0.3180  0.6453 -0.1687
 2806TIP3    H129909   2.580   1.681   1.277 -1.5423 -0.7165  2.0099
 2806TIP3    H229910   2.643   1.548   1.240 -0.4860  0.3831 -0.2818
 2807TIP3   OH229911   3.824   5.894   3.436 -0.0445  0.5336  0.8524
 2807TIP3    H129912   3.774   5.966   3.476  2.2597  2.1011  1.0726
 2807TIP3    H229913   3.893   5.875   3.500  0.0590 -1.1613  0.2871
 2808TIP3   OH229914   0.626   4.258  16.597  0.1818 -0.0620 -0.2741
 2808TIP3    H129915   0.568   4.231  16.527  0.0869  1.6357 -0.9047
 2808TIP3    H229916   0.573   4.317  16.651  0.5216 -0.6383  0.7111
 2809TIP3   OH229917   2.674   4.590  15.352 -0.3053 -0.2918  0.5456
 2809TIP3    H129918   2.754   4.632  15.384  0.6562 -1.6235  0.0108
 2809TIP3    H229919   2.619   4.662  15.322  0.3871  0.7008  1.6006
 2810TIP3   OH229920   5.662   3.679   5.952 -0.1637 -0.4752 -0.2596
 2810TIP3    H129921   5.697   3.590   5.946 -1.0955 -0.9482  1.1462
 2810TIP3    H229922   5.723   3.724   6.010 -1.1692 -0.9661  1.2147
 2811TIP3   OH229923   3.596   2.604  12.726 -0.0320  0.1266  0.1447
 2811TIP3    H129924   3.547   2.677  12.763  1.4697  1.6866 -0.8131
 2811TIP3    H229925   3.632   2.558  12.802 -0.0234  1.0948  0.7455
 2812TIP3   OH229926   6.620   2.704  16.755 -0.6413  0.3431 -0.1458
 2812TIP3    H129927   6.651   2.620  16.789  1.0303  1.6170  1.6752
 2812TIP3    H229928   6.684   2.728  16.688 -0.4904  0.6408  0.0987
 2813TIP3   OH229929   4.642   3.695   3.620  0.2784 -0.1826  0.0051
 2813TIP3    H129930   4.639   3.746   3.539  0.6502 -0.1268  0.0266
 2813TIP3    H229931   4.729   3.712   3.656  0.1210 -0.2177  0.4092
 2814TIP3   OH229932   5.487   3.377   2.894  0.2485 -0.1607 -0.2666
 2814TIP3    H129933   5.415   3.315   2.901  1.9844 -2.1609  1.2959
 2814TIP3    H229934   5.497   3.392   2.800 -2.0485  0.0652 -0.5300
 2815TIP3   OH229935   2.459   5.715  10.859 -0.4869 -0.4900 -0.0483
 2815TIP3    H129936   2.456   5.786  10.923 -1.8242  1.0108 -1.6660
 2815TIP3    H229937   2.552   5.696  10.848 -0.1284  0.6009  0.8869
 2816TIP3   OH229938   1.679   1.188   0.607 -0.0592  0.5867 -0.0229
 2816TIP3    H129939   1.696   1.165   0.699  1.2028 -0.6241 -0.5175
 2816TIP3    H229940   1.684   1.284   0.605  2.4438  0.5448  0.7664
 2817TIP3   OH229941   0.984   5.931  14.459 -0.1114  0.3118 -0.1686
 2817TIP3    H129942   0.902   5.980  14.454 -0.3074 -0.0798 -4.3643
 2817TIP3    H229943   0.957   5.840  14.470 -0.1570  0.3036 -0.3551
 2818TIP3   OH229944   3.459   1.392   5.380 -0.1426  0.4089  1.0339
 2818TIP3    H129945   3.532   1.449   5.404 -0.1622  0.8523  0.0638
 2818TIP3    H229946   3.413   1.378   5.463 -1.0267  3.0691  1.1070
 2819TIP3   OH229947   0.592   6.542  11.312 -0.6722  0.4812  0.5420
 2819TIP3    H129948   0.532   6.477  11.278 -1.7394  1.2707  0.8496
 2819TIP3    H229949   0.644   6.570  11.236 -1.2573  0.3839  0.1031
 2820TIP3   OH229950   3.454   1.686  16.222 -0.1751 -0.4093  0.9055
 2820TIP3    H129951   3.468   1.707  16.129 -0.1263 -0.1447  0.9730
 2820TIP3    H229952   3.485   1.597  16.231  0.2452 -0.2779  0.7639
 2821TIP3   OH229953   4.154   2.588  15.959  0.3171 -0.7282  0.3633
 2821TIP3    H129954   4.072   2.548  15.932 -0.5158  0.2406  1.4040
 2821TIP3    H229955   4.130   2.672  15.998  1.8002 -0.3644  0.5930
 2822TIP3   OH229956   3.169   3.201   3.906  0.0231 -0.0924  0.1497
 2822TIP3    H129957   3.089   3.151   3.887 -0.7725  0.2874  2.2192
 2822TIP3    H229958   3.140   3.273   3.962  1.5070  1.3904 -0.9151
 2823TIP3   OH229959   1.581   5.104  10.925 -0.1088 -0.2961  0.5268
 2823TIP3    H129960   1.601   5.012  10.909 -3.0973 -0.7078 -1.6420
 2823TIP3    H229961   1.631   5.151  10.858 -1.0374 -0.6803 -0.4683
 2824TIP3   OH229962   6.287   5.862  13.170  0.1496  1.1338  1.0805
 2824TIP3    H129963   6.250   5.795  13.113 -1.0818  1.1916  1.7750
 2824TIP3    H229964   6.342   5.915  13.113  1.8896 -0.9897  0.6795
 2825TIP3   OH229965   2.882   2.767   4.575  0.1624 -0.1527 -0.0169
 2825TIP3    H129966   2.974   2.779   4.599 -0.0533  1.8039  0.0397
 2825TIP3    H229967   2.843   2.854   4.589 -1.6906 -0.9428 -0.0461
 2826TIP3   OH229968   3.446   4.909   5.890  0.5529  0.7345  0.4794
 2826TIP3    H129969   3.416   4.962   5.816  0.9144 -1.4751 -1.3550
 2826TIP3    H229970   3.541   4.921   5.890  0.5746  0.5624  0.4359
 2827TIP3   OH229971   5.001   3.243  10.295 -0.0843 -0.0908 -0.0150
 2827TIP3    H129972   4.973   3.308  10.360  2.2063 -1.2090  2.2522
 2827TIP3    H229973   5.013   3.294  10.215  0.2168  2.0123  1.2904
 2828TIP3   OH229974   5.876   3.314   1.502 -0.0530  0.4193  0.1868
 2828TIP3    H129975   5.821   3.368   1.444 -0.9555 -0.9640 -0.2954
 2828TIP3    H229976   5.814   3.274   1.563  0.3120 -1.5781 -0.6799
 2829TIP3   OH229977   5.455   4.268  15.373 -0.6749  0.0678 -0.8050
 2829TIP3    H129978   5.449   4.259  15.468 -2.7540  0.9613 -0.8008
 2829TIP3    H229979   5.461   4.178  15.341  0.6719 -0.2149  0.1826
 2830TIP3   OH229980   5.249   2.009   1.087  0.3232 -0.3611 -0.2471
 2830TIP3    H129981   5.198   2.012   1.005  1.0858 -0.3161 -0.7261
 2830TIP3    H229982   5.292   1.923   1.085  0.2260 -0.4211  0.1840
 2831TIP3   OH229983   0.957   1.084  12.597 -0.0638 -0.2006 -0.0971
 2831TIP3    H129984   1.038   1.072  12.648  0.3865  1.2252 -0.4195
 2831TIP3    H229985   0.918   0.997  12.594  1.0501 -0.7685  0.7577
 2832TIP3   OH229986   2.525   6.039   5.716  0.3409  0.3333  0.4413
 2832TIP3    H129987   2.490   5.958   5.678 -1.1307  0.2205  1.9783
 2832TIP3    H229988   2.589   6.069   5.650 -0.9801 -0.6551 -1.3980
 2833TIP3   OH229989   6.031   5.145  12.385  0.0688  0.0327  0.5358
 2833TIP3    H129990   6.011   5.233  12.418  0.2910  0.1374  0.3875
 2833TIP3    H229991   5.958   5.091  12.416 -0.8183  0.5521 -0.5953
 2834TIP3   OH229992   2.566   0.332   3.412  0.2783  0.0379 -0.4790
 2834TIP3    H129993   2.640   0.271   3.410  0.7243  0.5587 -0.2201
 2834TIP3    H229994   2.535   0.330   3.502 -0.0990 -0.2661 -0.6141
 2835TIP3   OH229995   4.105   0.053   0.093 -0.1332 -0.1551  0.2297
 2835TIP3    H129996   4.171   0.043   0.161  0.7505 -1.2607 -0.7618
 2835TIP3    H229997   4.120  -0.020   0.033 -0.8943  0.7726 -1.1533
 2836TIP3   OH229998   6.184   4.891  14.759  0.1529  0.4976 -0.1375
 2836TIP3    H129999   6.153   4.974  14.795  1.3304  0.8651  0.0774
 2836TIP3    H230000   6.125   4.825  14.795 -0.1441  1.1294  0.5410
 2837TIP3   OH230001   0.949   1.630  15.632  0.0782  0.0898 -0.2763
 2837TIP3    H130002   0.965   1.721  15.609 -1.9468  0.4769 -0.3557
 2837TIP3    H230003   1.000   1.579  15.570  0.1119  1.1649 -1.1470
 2838TIP3   OH230004   1.924   2.962  11.898  0.2066 -0.1238 -0.3524
 2838TIP3    H130005   2.009   2.972  11.942  1.3126 -2.6129 -1.6866
 2838TIP3    H230006   1.924   3.030  11.830 -0.1045  1.6220  1.3171
 2839TIP3   OH230007   2.745   4.924  12.436  0.0335 -0.0797  0.3501
 2839TIP3    H130008   2.793   4.844  12.458  1.6507 -0.1556 -2.8708
 2839TIP3    H230009   2.655   4.895  12.424  0.4576 -1.3148 -0.0586
 2840TIP3   OH230010   3.072   1.861   6.197 -0.2553  0.1594  0.3184
 2840TIP3    H130011   3.013   1.925   6.157  0.2600 -0.1034 -0.9086
 2840TIP3    H230012   3.145   1.914   6.230 -1.7663  0.6765  3.1930
 2841TIP3   OH230013   5.532   3.330   1.288  0.0499 -0.2872 -0.2944
 2841TIP3    H130014   5.508   3.377   1.208  2.3352  1.6722  0.0604
 2841TIP3    H230015   5.623   3.355   1.304 -0.8272  1.0205  3.9397
 2842TIP3   OH230016   4.264   6.513  12.235  0.1322  0.4151 -0.0302
 2842TIP3    H130017   4.231   6.560  12.312 -1.3493 -0.0422 -0.3573
 2842TIP3    H230018   4.293   6.582  12.176  3.4821  0.7642  1.7804
 2843TIP3   OH230019   0.812   6.867  14.406 -0.7000  0.6933 -0.3069
 2843TIP3    H130020   0.892   6.887  14.454 -1.1222  0.0960  0.6664
 2843TIP3    H230021   0.782   6.951  14.372 -1.1384  1.3749  1.6555
 2844TIP3   OH230022   4.294   3.358   5.222 -0.0285  0.3797 -0.3817
 2844TIP3    H130023   4.302   3.429   5.158 -2.6127 -0.1621 -1.4438
 2844TIP3    H230024   4.242   3.395   5.293 -0.8756 -0.2352 -0.6587
 2845TIP3   OH230025   1.593   1.173   2.857  0.4274  0.5201 -0.4230
 2845TIP3    H130026   1.674   1.123   2.872  0.8997  1.6346  0.9395
 2845TIP3    H230027   1.527   1.127   2.907  0.4415  0.2068 -0.6872
 2846TIP3   OH230028   2.175   5.699  15.625 -0.1433  0.2852  0.4698
 2846TIP3    H130029   2.195   5.688  15.532  0.1630 -2.1375  0.7490
 2846TIP3    H230030   2.249   5.748  15.660  1.2849 -1.3452 -0.0809
 2847TIP3   OH230031   1.242   5.579  10.612 -0.1017  0.3749  0.5717
 2847TIP3    H130032   1.185   5.553  10.540  0.7206 -0.3834  0.1662
 2847TIP3    H230033   1.279   5.663  10.585  1.8828 -0.9093 -0.9410
 2848TIP3   OH230034   1.564   0.498  15.852  0.3383 -0.2647  0.6887
 2848TIP3    H130035   1.536   0.533  15.936 -0.5866 -0.8511  0.6295
 2848TIP3    H230036   1.558   0.403  15.861 -0.6860 -0.3206 -0.3250
 2849TIP3   OH230037   0.303   6.175   4.966 -0.3854 -0.1822  0.0280
 2849TIP3    H130038   0.234   6.108   4.965 -0.5372 -0.0318  0.5431
 2849TIP3    H230039   0.291   6.222   4.884 -1.7267  0.6838  0.6991
 2850TIP3   OH230040   0.204   1.954  12.113  0.2251  0.2194 -0.3065
 2850TIP3    H130041   0.291   1.915  12.113  0.1305 -0.0444 -1.4629
 2850TIP3    H230042   0.147   1.886  12.078 -0.3545  0.5774 -0.0784
 2851TIP3   OH230043   4.833   0.546  14.780 -0.2363 -0.4057  0.5449
 2851TIP3    H130044   4.779   0.613  14.821 -2.3553 -0.8656 -1.2733
 2851TIP3    H230045   4.885   0.509  14.852 -1.8016  0.5868  2.2745
 2852TIP3   OH230046   3.318   2.531   3.343 -0.8318  0.5870  0.0713
 2852TIP3    H130047   3.365   2.608   3.374 -0.3246  0.8477 -1.2711
 2852TIP3    H230048   3.385   2.477   3.300 -1.0782 -0.8608  1.4070
 2853TIP3   OH230049   3.632   2.463   5.643  0.5806 -0.0176  0.6666
 2853TIP3    H130050   3.665   2.418   5.721  0.7410  1.2911  1.3980
 2853TIP3    H230051   3.612   2.394   5.581  1.5050 -1.0335  1.4692
 2854TIP3   OH230052   4.108   5.149   3.520  0.4422 -0.1543 -0.0997
 2854TIP3    H130053   4.067   5.073   3.562  0.4668  0.4242  1.0229
 2854TIP3    H230054   4.085   5.142   3.428 -2.2446  0.1522  0.4697
 2855TIP3   OH230055   5.051   2.116   1.874  0.1503  0.3309  0.9705
 2855TIP3    H130056   5.066   2.070   1.791  3.3994  0.9458  1.0761
 2855TIP3    H230057   5.042   2.208   1.849 -2.2188  0.1813  1.0964
 2856TIP3   OH230058   0.750   3.393   6.418 -0.3693 -0.2602 -0.5763
 2856TIP3    H130059   0.828   3.413   6.470  0.1769 -0.5068 -1.2843
 2856TIP3    H230060   0.679   3.388   6.482  0.7464 -3.4590  0.5782
 2857TIP3   OH230061   5.554   2.906   4.922 -0.1204 -0.2792 -0.0974
 2857TIP3    H130062   5.522   2.988   4.884 -0.9483 -1.0336 -1.0711
 2857TIP3    H230063   5.640   2.928   4.957 -0.9455  1.3877  1.0349
 2858TIP3   OH230064   4.873   6.837   6.080 -0.1304 -0.3619 -0.0479
 2858TIP3    H130065   4.811   6.764   6.082 -0.5163 -0.0163  0.7995
 2858TIP3    H230066   4.824   6.911   6.115 -0.0245  0.5382 -1.6609
 2859TIP3   OH230067   1.565   6.109  16.078  0.4084 -0.3159 -0.0846
 2859TIP3    H130068   1.581   6.031  16.130 -0.3283 -0.2390  0.2664
 2859TIP3    H230069   1.527   6.076  15.996  0.1998 -0.3301  0.0195
 2860TIP3   OH230070   1.661   2.932   2.878 -0.5263 -0.0879  0.3887
 2860TIP3    H130071   1.703   2.874   2.814 -0.1023 -0.1382  0.7020
 2860TIP3    H230072   1.724   2.936   2.951 -2.3862 -2.7353  2.3431
 2861TIP3   OH230073   4.052   5.526  12.129  0.4349 -0.3253 -0.1684
 2861TIP3    H130074   3.960   5.554  12.135 -0.2722 -2.4743 -0.0389
 2861TIP3    H230075   4.102   5.602  12.156 -1.3677  0.5773  0.8174
 2862TIP3   OH230076   3.702   4.895   4.073 -0.4271 -0.1223  0.3589
 2862TIP3    H130077   3.734   4.879   4.161 -0.0432 -0.4711  0.1563
 2862TIP3    H230078   3.698   4.991   4.066  1.6360 -0.0320  0.0010
 2863TIP3   OH230079   2.394   3.296  15.919  0.2194 -0.8887 -0.3426
 2863TIP3    H130080   2.305   3.330  15.927  0.1307 -0.8565 -1.3448
 2863TIP3    H230081   2.427   3.334  15.837  1.5791  0.0301  0.6050
 2864TIP3   OH230082   1.249   1.622  11.840  0.6227 -0.0379 -0.3678
 2864TIP3    H130083   1.153   1.622  11.849  0.4766 -1.7220 -1.4630
 2864TIP3    H230084   1.280   1.661  11.922 -0.9746 -0.6318  0.5727
 2865TIP3   OH230085   0.832   1.002   0.461 -0.1624  0.5596 -0.3894
 2865TIP3    H130086   0.914   0.957   0.482 -1.6322 -2.1361  0.0825
 2865TIP3    H230087   0.835   1.013   0.366  1.1762  1.4988 -0.2661
 2866TIP3   OH230088   5.196   6.262   0.239  0.1781  0.3453 -0.4926
 2866TIP3    H130089   5.250   6.240   0.163  0.7182  1.1176 -0.3475
 2866TIP3    H230090   5.107   6.272   0.203  0.4867  1.0550 -1.0914
 2867TIP3   OH230091   0.054   6.220  16.362  0.0539 -0.2489 -0.2284
 2867TIP3    H130092   0.050   6.305  16.319 -0.9479 -0.0776  0.1880
 2867TIP3    H230093   0.140   6.219  16.405 -0.8605  1.5452  1.7927
 2868TIP3   OH230094   5.229   0.896   4.566  0.4338 -0.1624  0.3158
 2868TIP3    H130095   5.154   0.925   4.514  0.8898  0.3659 -0.0597
 2868TIP3    H230096   5.193   0.882   4.654  0.1143  1.2148  0.4293
 2869TIP3   OH230097   4.383   4.638  12.427 -0.1753 -0.5134 -0.3495
 2869TIP3    H130098   4.298   4.597  12.411 -0.7980  0.0341  1.2517
 2869TIP3    H230099   4.367   4.731  12.410  0.0976 -0.4091 -0.0327
 2870TIP3   OH230100   3.609   1.028   4.874 -0.0320 -0.3052 -0.3078
 2870TIP3    H130101   3.569   1.113   4.855 -2.5644 -1.4259 -0.4156
 2870TIP3    H230102   3.555   0.991   4.944  0.4156 -2.2058 -0.9083
 2871TIP3   OH230103   4.921   0.329   5.193 -0.0526 -0.0423  0.2775
 2871TIP3    H130104   4.882   0.406   5.152 -2.3661 -0.3849  1.6150
 2871TIP3    H230105   4.984   0.297   5.129 -0.8736  1.4986 -1.4050
 2872TIP3   OH230106   0.005   6.452   4.252 -0.8365  0.1990 -0.4993
 2872TIP3    H130107   0.092   6.489   4.237 -0.5389 -0.1214  0.3826
 2872TIP3    H230108  -0.040   6.463   4.168 -0.9289  2.9414 -0.1601
 2873TIP3   OH230109   4.347   2.756  13.288  0.5123 -0.4446  0.0727
 2873TIP3    H130110   4.292   2.802  13.224 -0.6743 -0.9230  0.7061
 2873TIP3    H230111   4.317   2.665  13.284  0.2823 -0.4529  1.4060
 2874TIP3   OH230112   3.233   5.127  11.845 -0.1364  0.6990  0.2661
 2874TIP3    H130113   3.223   5.134  11.750 -1.3192 -1.0273  0.2248
 2874TIP3    H230114   3.322   5.093  11.857 -0.0697  0.6919 -0.2159
 2875TIP3   OH230115   4.873   1.355  16.170 -0.6525  0.5972 -0.1807
 2875TIP3    H130116   4.914   1.291  16.113 -0.8117  1.4686 -1.3247
 2875TIP3    H230117   4.823   1.411  16.110 -2.0640  0.6373  0.9773
 2876TIP3   OH230118   5.601   1.110   2.155  0.1716  0.3595 -0.3181
 2876TIP3    H130119   5.572   1.201   2.148  1.8432  0.9883  0.3149
 2876TIP3    H230120   5.656   1.097   2.078  0.7833  0.2382  0.1293
 2877TIP3   OH230121   5.882   0.764  14.271 -0.1579 -0.2350 -0.2139
 2877TIP3    H130122   5.938   0.759  14.349 -0.6408 -2.2650  0.0511
 2877TIP3    H230123   5.895   0.853  14.238  1.4373  0.0875  1.1530
 2878TIP3   OH230124   6.628   5.644  12.673  0.0335  0.0115  0.2118
 2878TIP3    H130125   6.677   5.677  12.749  0.7498 -0.0603 -0.2105
 2878TIP3    H230126   6.574   5.573  12.708  2.6527 -2.1594  0.1450
 2879TIP3   OH230127   5.490   5.805   1.372  0.1384 -0.5202 -0.2308
 2879TIP3    H130128   5.540   5.883   1.393  0.2011 -0.6865  0.2543
 2879TIP3    H230129   5.399   5.829   1.390  0.1799 -0.6261  0.1176
 2880TIP3   OH230130   2.210   2.124  13.438 -0.3388 -0.1560  0.2318
 2880TIP3    H130131   2.167   2.175  13.369 -1.7041  4.8027  4.1170
 2880TIP3    H230132   2.138   2.081  13.484 -0.9534  3.6319  3.3728
 2881TIP3   OH230133   1.755   4.485   0.217  0.4523 -0.0756 -0.2704
 2881TIP3    H130134   1.696   4.490   0.292 -1.4134 -1.1832 -1.5687
 2881TIP3    H230135   1.704   4.520   0.144  1.6843 -0.3729 -1.3042
 2882TIP3   OH230136   5.662   0.088  11.777 -0.0281  0.0142  0.2181
 2882TIP3    H130137   5.740   0.143  11.785  0.2832 -0.6715  2.4028
 2882TIP3    H230138   5.589   0.144  11.803 -0.0652  0.1724 -0.2183
 2883TIP3   OH230139   5.801   2.265   1.808  0.3350  0.5579 -0.3270
 2883TIP3    H130140   5.828   2.324   1.879  0.0188  0.1749  0.1241
 2883TIP3    H230141   5.736   2.208   1.849  0.7726 -0.2210 -0.6976
 2884TIP3   OH230142   5.681   0.550   3.944 -0.5628 -0.3234 -0.2483
 2884TIP3    H130143   5.742   0.621   3.922  0.6804 -0.9210  1.1122
 2884TIP3    H230144   5.704   0.479   3.883  2.7884 -1.9312  2.5776
 2885TIP3   OH230145   6.559   6.258  12.034  0.2508 -0.1132  0.1479
 2885TIP3    H130146   6.596   6.343  12.009  0.6613 -0.3899 -0.2070
 2885TIP3    H230147   6.600   6.238  12.118 -0.0969  0.1932  0.3894
 2886TIP3   OH230148   5.948   4.583   4.716  0.3806  0.2238 -0.1412
 2886TIP3    H130149   6.003   4.594   4.639  1.3356  0.6179  0.5838
 2886TIP3    H230150   6.006   4.548   4.783 -0.6127 -0.8723  0.1962
 2887TIP3   OH230151   5.643   1.566  16.485 -0.1596 -0.2378  0.2579
 2887TIP3    H130152   5.584   1.493  16.465 -0.9504  0.6790 -0.8707
 2887TIP3    H230153   5.640   1.573  16.580  0.4764 -2.0991  0.4621
 2888TIP3   OH230154   0.117   2.870   0.462  0.1842 -0.1550  0.5317
 2888TIP3    H130155   0.026   2.841   0.472 -0.2653  0.9438 -0.2282
 2888TIP3    H230156   0.118   2.916   0.378  1.0493  1.3412  1.3421
 2889TIP3   OH230157   3.207   0.980  14.346  0.3126 -0.3234  0.6823
 2889TIP3    H130158   3.274   0.974  14.414  0.7390  0.9576  0.4082
 2889TIP3    H230159   3.129   1.011  14.392  0.4636  0.0582  0.6930
 2890TIP3   OH230160   3.039   0.327  10.547  0.3665  0.3804 -0.2257
 2890TIP3    H130161   3.064   0.322  10.455 -0.4675 -1.7290 -0.4003
 2890TIP3    H230162   3.122   0.315  10.594  0.7343  1.0066 -0.7003
 2891TIP3   OH230163   2.500   2.610   4.808 -0.0394 -0.1672 -0.2182
 2891TIP3    H130164   2.455   2.669   4.869  2.0452  1.3739 -0.0909
 2891TIP3    H230165   2.453   2.526   4.818  0.3245 -0.1118  3.7415
 2892TIP3   OH230166   3.599   3.365  13.491 -0.8132 -0.5954 -0.2756
 2892TIP3    H130167   3.670   3.328  13.440 -0.8821  0.1965 -0.9696
 2892TIP3    H230168   3.640   3.434  13.544 -0.8201 -1.1041  0.4030
 2893TIP3   OH230169   3.523   2.854  16.069  0.1595  0.6018  0.3094
 2893TIP3    H130170   3.439   2.808  16.063  0.2346  0.5534 -0.5208
 2893TIP3    H230171   3.589   2.788  16.047  0.5752  0.2212  2.5040
 2894TIP3   OH230172   6.048   6.530   3.317 -0.5274  0.1760 -0.3813
 2894TIP3    H130173   5.957   6.515   3.295 -1.1550 -1.9652  2.9813
 2894TIP3    H230174   6.092   6.447   3.298 -0.3468 -0.4324  2.2894
 2895TIP3   OH230175   1.382   4.345   0.865  0.3071 -0.2386  0.9524
 2895TIP3    H130176   1.304   4.394   0.838 -1.6874 -3.2468  0.7391
 2895TIP3    H230177   1.363   4.318   0.954  0.7724 -1.5671  0.6711
 2896TIP3   OH230178   0.488   6.445  13.143 -0.0227  0.6374 -0.1188
 2896TIP3    H130179   0.578   6.453  13.176  0.7097  0.1680 -1.9001
 2896TIP3    H230180   0.484   6.356  13.106 -0.9765  0.9162 -0.7085
 2897TIP3   OH230181   3.152   1.593   0.536 -0.0197  0.6165 -0.3277
 2897TIP3    H130182   3.225   1.648   0.566  1.0928 -0.2544 -1.3400
 2897TIP3    H230183   3.089   1.655   0.498 -0.3023  1.4802  1.4115
 2898TIP3   OH230184   0.830   6.709   6.303  0.0086  0.0252 -1.3929
 2898TIP3    H130185   0.736   6.715   6.284 -0.1700  0.4003 -0.4331
 2898TIP3    H230186   0.855   6.797   6.330  0.1491 -0.5442  0.4496
 2899TIP3   OH230187   5.473   0.583   1.376  0.6122 -0.2733 -0.1125
 2899TIP3    H130188   5.379   0.595   1.360  0.7203  2.0786  0.6790
 2899TIP3    H230189   5.497   0.507   1.322 -1.6373 -0.6717 -0.6574
 2900TIP3   OH230190   1.236   6.487  15.516  0.6996  0.1738  0.7847
 2900TIP3    H130191   1.304   6.442  15.566 -1.1971 -0.3486  3.0678
 2900TIP3    H230192   1.154   6.453  15.551 -0.8559 -0.5632 -3.0679
 2901TIP3   OH230193   0.970   6.885  16.212 -0.3883 -0.4723 -0.4622
 2901TIP3    H130194   0.959   6.890  16.307  0.2290 -0.4662 -0.3834
 2901TIP3    H230195   1.039   6.949  16.193  1.1651 -2.1278 -0.6098
 2902TIP3   OH230196   5.503   0.555   5.776 -0.3378  0.1945  0.1262
 2902TIP3    H130197   5.585   0.556   5.827 -0.8072  1.8474  0.8988
 2902TIP3    H230198   5.434   0.546   5.842 -0.9076  1.3218 -0.2941
 2903TIP3   OH230199   4.489   3.913   1.137 -0.4609 -0.2627 -0.2729
 2903TIP3    H130200   4.572   3.954   1.114 -0.0500  0.0842  1.6012
 2903TIP3    H230201   4.437   3.985   1.174 -1.3033 -0.6397 -0.6921
 2904TIP3   OH230202   4.486   2.313   0.739  0.0796 -0.1123 -0.0460
 2904TIP3    H130203   4.391   2.322   0.728  0.2188  1.5792 -0.0225
 2904TIP3    H230204   4.496   2.275   0.827 -0.5478  1.1428  0.5935
 2905TIP3   OH230205   6.190   4.623  14.146  0.0415 -0.3149 -0.3752
 2905TIP3    H130206   6.227   4.701  14.104  1.7480 -0.2051  1.2235
 2905TIP3    H230207   6.265   4.580  14.187 -1.3882 -0.8631  1.8217
 2906TIP3   OH230208   3.578   5.683   0.225  0.1822 -0.0862  0.4434
 2906TIP3    H130209   3.492   5.686   0.266  0.1806  1.5978  0.3593
 2906TIP3    H230210   3.639   5.708   0.294  0.6788 -1.6384  0.6094
 2907TIP3   OH230211   5.588   0.102  16.568  0.2995 -0.1390  0.0657
 2907TIP3    H130212   5.682   0.087  16.577  0.3524 -0.2338 -0.6142
 2907TIP3    H230213   5.580   0.197  16.559  0.4122 -0.2026 -0.7662
 2908TIP3   OH230214   6.458   2.394   2.917  0.3013  0.1542  0.6627
 2908TIP3    H130215   6.510   2.323   2.878 -0.4231 -0.3580  0.6022
 2908TIP3    H230216   6.413   2.353   2.991 -1.1349  0.2035 -0.1507
 2909TIP3   OH230217   6.262   6.301  10.436  0.1373  0.1143  0.2140
 2909TIP3    H130218   6.176   6.262  10.454  0.8968 -1.9783 -0.3741
 2909TIP3    H230219   6.250   6.394  10.453 -2.5295  0.0601 -0.8405
 2910TIP3   OH230220   5.658   1.310   3.213 -0.1702 -0.0276 -0.0056
 2910TIP3    H130221   5.591   1.244   3.232  1.1126 -0.9842  1.4115
 2910TIP3    H230222   5.711   1.270   3.144 -0.3365  0.2149 -0.2751
 2911TIP3   OH230223   2.110   0.927   3.986 -0.4186  0.2251 -0.7227
 2911TIP3    H130224   2.076   0.923   3.897  1.1423 -0.1714 -1.3208
 2911TIP3    H230225   2.197   0.887   3.981  0.7129  2.3890  0.4753
 2912TIP3   OH230226   3.324   3.303  14.595 -0.3731 -0.1870  0.4225
 2912TIP3    H130227   3.323   3.312  14.690 -1.1250 -0.1606  0.4138
 2912TIP3    H230228   3.283   3.219  14.578  1.2561 -0.9869  0.1907
 2913TIP3   OH230229   1.586   6.164   4.748  0.5413 -0.4368  0.5011
 2913TIP3    H130230   1.654   6.121   4.799  2.8729  0.9389 -1.2049
 2913TIP3    H230231   1.628   6.244   4.716 -0.9830 -0.7694 -2.7788
 2914TIP3   OH230232   3.795   0.209   3.059 -0.7531  0.2134  0.0253
 2914TIP3    H130233   3.702   0.186   3.049 -0.8364  0.2455  0.6631
 2914TIP3    H230234   3.804   0.228   3.153 -0.1626  0.4794 -0.0864
 2915TIP3   OH230235   6.417   5.929   3.590 -0.4470  0.3615  0.9562
 2915TIP3    H130236   6.377   6.005   3.631 -1.4322  1.5680 -1.9671
 2915TIP3    H230237   6.499   5.963   3.552  0.3205 -0.6405  1.6707
 2916TIP3   OH230238   3.559   1.378  14.496 -0.5974 -1.1049  0.0694
 2916TIP3    H130239   3.511   1.461  14.494  0.5419 -0.3517  1.8334
 2916TIP3    H230240   3.647   1.401  14.526 -0.4008 -2.9927  1.1529
 2917TIP3   OH230241   2.059   5.620  14.743  0.3642 -0.5378 -0.1037
 2917TIP3    H130242   2.144   5.598  14.704 -0.0739 -1.7519 -0.4069
 2917TIP3    H230243   2.073   5.705  14.785  2.0430 -1.2173  0.8103
 2918TIP3   OH230244   2.234   1.086  13.506  0.0095  0.0678 -0.1948
 2918TIP3    H130245   2.246   1.019  13.439 -1.6042  0.2380 -0.7093
 2918TIP3    H230246   2.156   1.059  13.554  1.7413 -0.6550  2.4385
 2919TIP3   OH230247   1.900   4.773   5.304  0.0758 -0.3701 -0.0738
 2919TIP3    H130248   1.944   4.711   5.363 -0.7728 -0.9804 -0.0781
 2919TIP3    H230249   1.838   4.720   5.254 -2.0460  0.7445  1.2420
 2920TIP3   OH230250   6.250   0.418  13.724 -0.7507  0.3908 -0.4731
 2920TIP3    H130251   6.315   0.379  13.666 -0.9641  0.0086 -0.4569
 2920TIP3    H230252   6.217   0.494  13.676 -1.7766 -0.5992 -1.3577
 2921TIP3   OH230253   5.754   4.056   3.321  0.1735  0.1487 -0.2563
 2921TIP3    H130254   5.752   3.963   3.340  0.0538  0.0682 -0.6677
 2921TIP3    H230255   5.667   4.088   3.345  0.1480  0.1191 -0.3124
 2922TIP3   OH230256   5.820   1.471   4.099 -0.0306  0.6502 -0.4930
 2922TIP3    H130257   5.746   1.495   4.154  0.6025  1.0044  0.2253
 2922TIP3    H230258   5.821   1.536   4.030 -0.9483  0.0916 -1.0569
 2923TIP3   OH230259   4.160   1.030   0.145  0.2581 -0.5852  0.2693
 2923TIP3    H130260   4.161   1.041   0.051 -0.0754 -0.9232  0.2227
 2923TIP3    H230261   4.068   1.040   0.170  0.6224  1.7937  0.8607
 2924TIP3   OH230262   4.693   0.319  13.165 -0.4134  0.0125 -0.4106
 2924TIP3    H130263   4.702   0.230  13.200  0.5294 -0.0864 -0.8673
 2924TIP3    H230264   4.767   0.367  13.202 -0.0230  0.1861 -1.3742
 2925TIP3   OH230265   3.008   2.619  16.117 -0.3037  0.3944 -0.5352
 2925TIP3    H130266   2.934   2.650  16.168  0.8676  1.0882  0.8019
 2925TIP3    H230267   3.007   2.674  16.038 -1.9280 -0.4600 -1.1424
 2926TIP3   OH230268   2.458   2.055   0.407 -0.4358 -0.0670 -0.6401
 2926TIP3    H130269   2.366   2.029   0.411 -1.0241  1.9327  0.1727
 2926TIP3    H230270   2.496   2.025   0.490 -0.2594 -1.1188 -1.0847
 2927TIP3   OH230271   6.138   2.494  13.599 -0.4190 -0.1045  0.0061
 2927TIP3    H130272   6.102   2.488  13.687 -0.6945 -1.1850 -0.1705
 2927TIP3    H230273   6.208   2.559  13.606 -0.5187 -0.0921  0.9916
 2928TIP3   OH230274   3.449   6.366  10.299 -0.9842  0.3694 -0.1789
 2928TIP3    H130275   3.526   6.405  10.259  0.1069 -2.4268 -1.0544
 2928TIP3    H230276   3.478   6.335  10.385 -1.3383  0.0283 -0.1763
 2929TIP3   OH230277   2.648   5.165  14.958 -0.0781  0.4477 -0.9322
 2929TIP3    H130278   2.619   5.240  14.906  0.9513  0.6584 -1.2292
 2929TIP3    H230279   2.660   5.095  14.894  1.2557  0.7258 -1.0300
 2930TIP3   OH230280   0.515   4.687  12.917 -0.2461 -0.0962  1.0529
 2930TIP3    H130281   0.514   4.679  13.012  2.2618  0.5131  1.1962
 2930TIP3    H230282   0.607   4.697  12.894 -0.8223  0.3774 -1.4010
 2931TIP3   OH230283   1.006   1.087  10.117 -0.0946  0.4340 -0.0431
 2931TIP3    H130284   0.950   1.161  10.143  0.7017  1.2718 -0.6224
 2931TIP3    H230285   1.095   1.117  10.137  0.3219  0.0471 -1.2064
 2932TIP3   OH230286   0.320   4.820   5.889 -0.4509  0.6335 -0.2511
 2932TIP3    H130287   0.378   4.744   5.885 -0.7651  0.2888  1.1410
 2932TIP3    H230288   0.291   4.823   5.980 -1.5406  1.6102 -0.6055
 2933TIP3   OH230289   1.738   1.542  14.919  0.2288  0.0815 -0.1641
 2933TIP3    H130290   1.698   1.520  15.003 -1.6876 -0.5857 -1.1961
 2933TIP3    H230291   1.764   1.458  14.882  0.0878  0.2662 -0.6959
 2934TIP3   OH230292   3.930   3.313  15.793 -0.0700 -0.6337 -0.3491
 2934TIP3    H130293   3.845   3.298  15.751  1.0125 -2.5444 -1.9870
 2934TIP3    H230294   3.990   3.329  15.720  1.0829  0.2492  0.7620
 2935TIP3   OH230295   2.572   1.387  15.779 -0.2625  0.1112 -0.1598
 2935TIP3    H130296   2.487   1.410  15.818 -0.8122  0.6061 -1.5945
 2935TIP3    H230297   2.551   1.359  15.690  0.9813 -0.8150 -0.1871
 2936TIP3   OH230298   4.530   3.484   4.551 -0.2027  0.4563 -0.7127
 2936TIP3    H130299   4.437   3.464   4.537 -0.8590 -0.4131  3.3766
 2936TIP3    H230300   4.531   3.532   4.634  3.0848 -0.6449  0.0237
 2937TIP3   OH230301   1.373   3.393  13.230 -0.1441  0.0742  0.1644
 2937TIP3    H130302   1.369   3.375  13.324 -0.5449  0.9785  0.3416
 2937TIP3    H230303   1.292   3.356  13.195 -1.6710  2.5641  0.7543
 2938TIP3   OH230304   0.071   1.432   4.153 -0.6161  0.0631 -0.2287
 2938TIP3    H130305   0.161   1.400   4.149 -1.2091 -1.5847 -2.7916
 2938TIP3    H230306   0.018   1.354   4.171 -1.7078  0.4255 -1.5950
 2939TIP3   OH230307   0.420   4.352   3.167  0.4098 -0.0638  0.0091
 2939TIP3    H130308   0.446   4.420   3.228 -1.3711  0.0973  0.6424
 2939TIP3    H230309   0.378   4.286   3.221 -3.5718  1.2451 -1.1286
 2940TIP3   OH230310   4.777   0.553  12.863 -0.5747  0.5235  0.0367
 2940TIP3    H130311   4.806   0.518  12.779 -0.4596 -0.2783  0.4058
 2940TIP3    H230312   4.684   0.572  12.850 -0.7254 -0.2610 -0.0602
 2941TIP3   OH230313   0.621   4.968  15.742 -0.2906  0.0395 -0.1032
 2941TIP3    H130314   0.627   5.061  15.763 -1.2551  0.0633  0.1373
 2941TIP3    H230315   0.615   4.924  15.828 -1.5856 -0.0847 -0.2342
 2942TIP3   OH230316   6.670   3.543   0.345  0.4532 -0.4082 -0.1508
 2942TIP3    H130317   6.670   3.581   0.257  0.1787 -0.5057 -0.1923
 2942TIP3    H230318   6.755   3.500   0.353  0.2452 -0.9081 -0.5861
 2943TIP3   OH230319   6.400   6.594   1.049 -0.2310  0.0737  0.2177
 2943TIP3    H130320   6.496   6.592   1.040  0.0291  1.4862  2.1286
 2943TIP3    H230321   6.374   6.502   1.041  1.3654 -0.4158  0.2564
 2944TIP3   OH230322   6.001   0.834  12.998  0.4656  0.5312 -0.1269
 2944TIP3    H130323   6.013   0.917  13.044 -0.9366  0.5639  0.2258
 2944TIP3    H230324   6.054   0.771  13.047  1.7219  1.2449 -0.5394
 2945TIP3   OH230325   5.193   4.787   0.585 -0.2482 -0.3276  1.0464
 2945TIP3    H130326   5.168   4.867   0.630  0.8893 -1.3725  3.7481
 2945TIP3    H230327   5.242   4.817   0.508  0.5389  1.5736  2.2250
 2946TIP3   OH230328   5.118   6.857   2.220  0.2004 -0.1483 -0.6187
 2946TIP3    H130329   5.101   6.848   2.126 -0.1935 -1.0464 -0.4723
 2946TIP3    H230330   5.213   6.870   2.226  0.1734  0.3104 -1.1630
 2947TIP3   OH230331   1.698   4.028   4.043  0.0755 -0.0045 -0.3156
 2947TIP3    H130332   1.787   3.994   4.035  1.4915  3.3144  0.0119
 2947TIP3    H230333   1.684   4.077   3.962  0.8937  4.2619  1.8647
 2948TIP3   OH230334   5.751   2.388  14.571  0.1373 -0.1292  0.2853
 2948TIP3    H130335   5.684   2.335  14.613  0.9098 -0.0571  1.6732
 2948TIP3    H230336   5.703   2.459  14.528 -0.7138 -0.4873  0.6334
 2949TIP3   OH230337   3.488   3.957   2.686  0.2373 -0.2955  0.0196
 2949TIP3    H130338   3.515   3.867   2.700 -0.4130 -0.4296  0.4456
 2949TIP3    H230339   3.568   4.003   2.661  0.3700 -1.2055 -1.2621
 2950TIP3   OH230340   6.249   5.990   5.590 -0.4849  0.2496  0.1379
 2950TIP3    H130341   6.339   5.961   5.575 -0.8698 -1.8710  1.5139
 2950TIP3    H230342   6.245   6.077   5.550  1.4789 -0.5710 -2.0850
 2951TIP3   OH230343   4.096   6.635   1.792 -0.4496 -0.4664 -0.4255
 2951TIP3    H130344   4.054   6.675   1.869 -0.7296 -0.4059 -0.6072
 2951TIP3    H230345   4.180   6.680   1.784 -0.7763  0.1195 -0.6489
 2952TIP3   OH230346   6.054   6.588  13.654  0.4618  0.3960 -0.3906
 2952TIP3    H130347   6.109   6.659  13.686  1.2368  0.3563 -1.5817
 2952TIP3    H230348   5.975   6.592  13.708  0.7542  1.7714 -0.0439
 2953TIP3   OH230349   4.134   1.041   5.173  0.1200  0.3023  0.2064
 2953TIP3    H130350   4.179   1.070   5.094 -1.4276 -0.8538 -1.1376
 2953TIP3    H230351   4.099   1.122   5.211  1.5395  0.9609  0.1883
 2954TIP3   OH230352   3.049   1.045  12.997 -0.2438 -0.5387 -0.2251
 2954TIP3    H130353   3.091   1.125  12.969  1.0748 -1.2341 -0.2802
 2954TIP3    H230354   3.094   1.021  13.078 -1.7144 -0.3790  0.6938
 2955TIP3   OH230355   4.150   2.548  12.064 -0.0850 -0.1075 -0.3829
 2955TIP3    H130356   4.056   2.528  12.058  0.0151 -0.6471 -0.2279
 2955TIP3    H230357   4.181   2.493  12.136  0.5647 -0.7644 -1.1417
 2956TIP3   OH230358   2.657   3.875   4.296 -0.2980 -0.2140 -0.1087
 2956TIP3    H130359   2.735   3.852   4.346 -1.8006 -2.0728  1.5379
 2956TIP3    H230360   2.630   3.794   4.254 -0.5866  0.7225 -1.8292
 2957TIP3   OH230361   4.614   2.539  12.790 -0.2894 -0.2018  0.6070
 2957TIP3    H130362   4.669   2.555  12.867 -1.0545  0.0095  1.1182
 2957TIP3    H230363   4.622   2.445  12.774 -2.5986 -0.9053  2.9048
 2958TIP3   OH230364   3.744   3.132   3.156  0.2544  0.2079  0.2190
 2958TIP3    H130365   3.793   3.050   3.152 -0.9725 -0.4754 -1.6259
 2958TIP3    H230366   3.801   3.196   3.114  0.3863 -0.1428 -0.1365
 2959TIP3   OH230367   0.655   3.403  11.506 -0.2424 -0.1901  0.3249
 2959TIP3    H130368   0.658   3.479  11.565 -1.8972  0.5553 -0.5001
 2959TIP3    H230369   0.584   3.349  11.540 -0.6928 -0.1394 -0.5260
 2960TIP3   OH230370   3.979   6.257   4.703  0.7122  0.0438 -0.5212
 2960TIP3    H130371   4.017   6.315   4.769  0.2711 -1.4977  1.1680
 2960TIP3    H230372   4.050   6.199   4.678  0.6404  0.0541 -0.7533
 2961TIP3   OH230373   3.854   4.791  12.349 -0.3214  0.6824 -0.2101
 2961TIP3    H130374   3.948   4.802  12.364 -0.0727  0.0302 -1.1850
 2961TIP3    H230375   3.823   4.879  12.327  0.0844  0.8751 -0.0263
 2962TIP3   OH230376   5.027   4.150  13.486  0.0033 -0.0658  0.2106
 2962TIP3    H130377   4.984   4.194  13.412  1.6902 -1.9306 -2.0495
 2962TIP3    H230378   5.120   4.161  13.469  0.4533 -0.3557  2.2666
 2963TIP3   OH230379   2.004   0.951  13.582  0.0550  0.0731 -0.0343
 2963TIP3    H130380   1.946   0.982  13.651 -0.4363  0.2596 -0.5274
 2963TIP3    H230381   1.946   0.914  13.515  0.4519  0.7166 -0.7630
 2964TIP3   OH230382   2.292   4.885   4.239  0.2493 -0.3291  0.4133
 2964TIP3    H130383   2.356   4.815   4.251 -0.4229 -0.9294  0.5813
 2964TIP3    H230384   2.299   4.938   4.318  0.1646 -0.7020  0.6725
 2965TIP3   OH230385   5.327   5.077   4.409 -0.1496 -0.0420 -0.3907
 2965TIP3    H130386   5.367   5.025   4.479 -0.8673  1.4405  1.1966
 2965TIP3    H230387   5.389   5.149   4.395 -0.3032 -0.0012 -0.8647
 2966TIP3   OH230388   5.333   5.656   5.211 -0.1594  0.0397 -0.1115
 2966TIP3    H130389   5.327   5.634   5.304 -2.8573  0.2155 -0.1580
 2966TIP3    H230390   5.348   5.751   5.210 -0.2280  0.0554  0.1650
 2967TIP3   OH230391   5.736   5.268   5.032  0.0949 -0.3260 -0.3344
 2967TIP3    H130392   5.786   5.273   4.951 -1.3720 -0.8759 -1.3222
 2967TIP3    H230393   5.709   5.359   5.049  0.3045 -0.2253 -0.5407
 2968TIP3   OH230394   0.153   0.826   4.523  0.2596 -0.6584  0.3945
 2968TIP3    H130395   0.114   0.891   4.581 -0.4966 -0.9986  0.2901
 2968TIP3    H230396   0.241   0.858   4.505 -0.1676  0.4237  0.1981
 2969TIP3   OH230397   5.999   5.299   3.808  0.1513  0.0531  0.6697
 2969TIP3    H130398   6.006   5.263   3.720 -2.9404 -0.3858  0.5005
 2969TIP3    H230399   5.943   5.376   3.798  0.4662  0.5036  2.1413
 2970TIP3   OH230400   2.703   6.792  15.871 -0.0134  0.3797 -0.2278
 2970TIP3    H130401   2.680   6.856  15.803 -1.0502 -0.1061 -0.3614
 2970TIP3    H230402   2.652   6.819  15.947  1.7446  1.3825  0.6414
 2971TIP3   OH230403   6.697   0.351  15.858  0.0504 -0.1561  0.4465
 2971TIP3    H130404   6.759   0.382  15.924  1.1950 -0.1861 -0.5859
 2971TIP3    H230405   6.751   0.331  15.782 -1.2160 -0.3315 -0.4341
 2972TIP3   OH230406   6.233   4.340  14.354  0.5753  0.3423 -0.3840
 2972TIP3    H130407   6.156   4.343  14.297  1.2243 -1.5280 -1.4614
 2972TIP3    H230408   6.239   4.248  14.381  2.5922  0.3774 -0.5735
 2973TIP3   OH230409   6.265   0.704  16.366  0.4308  0.3887 -0.1054
 2973TIP3    H130410   6.236   0.789  16.332  0.2963  0.8611  1.1584
 2973TIP3    H230411   6.349   0.722  16.408 -1.7035  1.0339  4.5080
 2974TIP3   OH230412   6.539   1.690   1.548 -0.5662  0.4121  0.0160
 2974TIP3    H130413   6.482   1.623   1.508 -1.5130  1.0985  0.1748
 2974TIP3    H230414   6.489   1.771   1.540  1.1126  1.3927 -1.3935
 2975TIP3   OH230415   4.070   2.825  16.669 -0.3349 -0.1106  0.5326
 2975TIP3    H130416   4.104   2.758  16.729  0.2322  1.8998  2.5836
 2975TIP3    H230417   3.980   2.798  16.652 -0.9125 -0.1958  3.2820
 2976TIP3   OH230418   4.208   5.926  15.461  0.1151  0.5023  0.6736
 2976TIP3    H130419   4.293   5.955  15.428  0.2851 -1.6333 -0.9648
 2976TIP3    H230420   4.204   5.961  15.550  2.3146  1.4140  0.4820
 2977TIP3   OH230421   2.848   0.888   0.889  0.6402  0.1486 -0.2361
 2977TIP3    H130422   2.889   0.924   0.809 -0.7206  0.0752 -0.9924
 2977TIP3    H230423   2.760   0.925   0.889  0.2831 -0.6803  0.6990
 2978TIP3   OH230424   0.132   3.356  16.045 -0.1091 -0.0959  0.2731
 2978TIP3    H130425   0.173   3.439  16.070 -0.8583  0.4769 -0.3199
 2978TIP3    H230426   0.192   3.289  16.076  0.3841  0.6607  1.0145
 2979TIP3   OH230427   3.200   0.228  15.130 -0.1035  1.0778 -0.0770
 2979TIP3    H130428   3.136   0.160  15.150 -0.5059  1.0831 -1.3027
 2979TIP3    H230429   3.173   0.303  15.183 -0.4644  0.7336  0.2311
 2980TIP3   OH230430   5.530   6.249   1.605  0.0129  0.1810  0.6318
 2980TIP3    H130431   5.575   6.169   1.576 -0.6911  0.6668 -2.1132
 2980TIP3    H230432   5.539   6.248   1.700  0.3148 -2.9899  0.6981
 2981TIP3   OH230433   4.867   6.666   1.328 -0.7135 -0.6057 -0.0794
 2981TIP3    H130434   4.807   6.591   1.329 -1.5359 -0.0132 -1.7776
 2981TIP3    H230435   4.812   6.741   1.307  0.3926  0.2086 -0.1621
 2982TIP3   OH230436   5.936   6.041   5.667 -0.0085 -0.2253 -0.3375
 2982TIP3    H130437   5.893   5.988   5.734 -1.3142 -0.1405 -1.0639
 2982TIP3    H230438   6.020   6.066   5.705 -1.4335  1.3242  1.9897
 2983TIP3   OH230439   6.333   0.765   0.578  0.3391  0.1863  0.6592
 2983TIP3    H130440   6.343   0.701   0.507 -0.1737  1.0838 -0.2421
 2983TIP3    H230441   6.384   0.728   0.650  0.2321 -1.1341  0.0937
 2984TIP3   OH230442   6.847   4.438   4.386  0.5317 -0.4851 -0.2901
 2984TIP3    H130443   6.771   4.399   4.343  0.6108  0.7941 -1.6911
 2984TIP3    H230444   6.901   4.471   4.313  1.7297 -0.1263  0.7266
 2985TIP3   OH230445   2.109   0.393   4.386  1.0499 -0.1777  0.1999
 2985TIP3    H130446   2.039   0.446   4.346  2.1298  1.3885  0.2738
 2985TIP3    H230447   2.068   0.309   4.404 -0.8438  0.7105  0.3174
 2986TIP3   OH230448   0.788   2.766   0.154  0.5935 -0.1368 -0.0279
 2986TIP3    H130449   0.877   2.797   0.171  1.9154 -2.8856 -1.3090
 2986TIP3    H230450   0.792   2.672   0.169 -1.3725 -0.7757 -2.7279
 2987TIP3   OH230451   6.626   1.861  16.949  0.4341  0.3529 -0.0685
 2987TIP3    H130452   6.679   1.903  17.017  1.5973  1.8386 -1.7767
 2987TIP3    H230453   6.550   1.918  16.939 -0.0050 -0.1548  0.3383
 2988TIP3   OH230454   4.666   4.239   3.042 -0.5583 -0.1327  0.2655
 2988TIP3    H130455   4.692   4.219   2.952 -0.9905 -0.6167  0.2457
 2988TIP3    H230456   4.683   4.333   3.052 -0.4274 -0.0971 -0.2921
 2989TIP3   OH230457   3.173   3.292   3.288  0.1708  0.0507  0.4167
 2989TIP3    H130458   3.090   3.247   3.271  0.0788  0.2386  0.3624
 2989TIP3    H230459   3.215   3.298   3.202 -0.7271  1.8595  0.0352
 2990TIP3   OH230460   1.378   1.271   2.605 -0.6543  0.6264 -0.2369
 2990TIP3    H130461   1.310   1.332   2.634 -0.3461  1.1430 -0.5846
 2990TIP3    H230462   1.460   1.315   2.626 -0.4263  0.2787 -0.3946
 2991TIP3   OH230463   4.401   4.909  15.972  0.8160  0.0309  0.2105
 2991TIP3    H130464   4.465   4.863  16.026  0.3828 -0.0181  0.6898
 2991TIP3    H230465   4.361   4.973  16.032  0.2468 -0.1032 -0.0180
 2992TIP3   OH230466   0.036   0.309  14.430 -0.4767  0.7934 -0.3512
 2992TIP3    H130467  -0.017   0.230  14.423  1.2353 -0.5253  0.7793
 2992TIP3    H230468   0.075   0.320  14.343  1.1511 -1.0715  0.0660
 2993TIP3   OH230469   0.720   4.278   5.965  0.3613  0.2326 -0.2039
 2993TIP3    H130470   0.675   4.194   5.977  1.3412 -0.2986 -0.1874
 2993TIP3    H230471   0.695   4.330   6.042 -0.8184  0.2344 -0.5645
 2994TIP3   OH230472   6.207   6.631   4.627  0.3634  0.3230 -0.3841
 2994TIP3    H130473   6.278   6.691   4.602  0.9276 -0.4801 -0.7669
 2994TIP3    H230474   6.127   6.683   4.617  0.8081  0.9020 -1.0514
 2995TIP3   OH230475   2.318   2.433   3.755 -0.6061 -0.0393 -0.6216
 2995TIP3    H130476   2.291   2.417   3.664 -1.2024 -1.0612 -0.2905
 2995TIP3    H230477   2.315   2.528   3.765 -1.2631  0.0440 -1.4621
 2996TIP3   OH230478   2.323   1.662   3.998  0.2144 -0.0962 -0.4562
 2996TIP3    H130479   2.285   1.669   4.086 -0.6517 -1.3865 -0.7119
 2996TIP3    H230480   2.416   1.647   4.014 -0.1044 -1.4213  0.2817
 2997TIP3   OH230481   6.229   3.702   4.408  0.1780  0.3961 -0.6485
 2997TIP3    H130482   6.205   3.709   4.500  0.6209 -1.2204 -0.3690
 2997TIP3    H230483   6.151   3.666   4.365  0.6439 -0.8725 -0.4910
 2998TIP3   OH230484   1.317   5.455  13.306  0.0488  0.3588 -0.6839
 2998TIP3    H130485   1.321   5.376  13.359  1.0916  0.8468 -0.0098
 2998TIP3    H230486   1.224   5.462  13.281 -0.2685 -0.4284  0.2190
 2999TIP3   OH230487   5.337   3.628  14.274  0.6394  0.2239  0.0221
 2999TIP3    H130488   5.294   3.552  14.313  0.8670  1.0487  1.9991
 2999TIP3    H230489   5.426   3.598  14.255  0.5376 -0.1882  0.1866
 3000TIP3   OH230490   2.208   5.946   5.619 -0.1457  0.1148 -0.2065
 3000TIP3    H130491   2.154   5.904   5.552 -1.1858 -0.2381  0.8064
 3000TIP3    H230492   2.288   5.894   5.622 -1.2222 -1.5886  0.7068
 3001TIP3   OH230493   2.356   5.088  15.630 -0.2483 -0.4839 -0.3253
 3001TIP3    H130494   2.360   5.068  15.724  1.2939 -1.6770 -0.6142
 3001TIP3    H230495   2.262   5.097  15.612 -0.6210 -1.0099  1.1772
 3002TIP3   OH230496   1.383   4.387   0.044 -0.3675 -0.2672  0.1414
 3002TIP3    H130497   1.348   4.301   0.024  0.9669 -0.9105  0.4476
 3002TIP3    H230498   1.319   4.448   0.008 -1.9101 -1.3671  0.9092
 3003TIP3   OH230499   6.807   0.600  13.577 -0.2898  0.7467 -0.0901
 3003TIP3    H130500   6.754   0.527  13.547  1.1227  0.7565 -3.0009
 3003TIP3    H230501   6.882   0.560  13.621 -0.2772  0.4811 -0.3508
 3004TIP3   OH230502   3.827   3.340   4.126  0.0794 -0.1487 -0.3172
 3004TIP3    H130503   3.839   3.289   4.206 -0.8988  0.5392  0.2888
 3004TIP3    H230504   3.829   3.431   4.155  0.0630  0.1235 -1.1295
 3005TIP3   OH230505   4.584   3.083   3.434  0.3622  0.6630 -0.2309
 3005TIP3    H130506   4.623   3.153   3.486 -0.7254  1.5836 -0.6056
 3005TIP3    H230507   4.489   3.101   3.438  0.1057 -0.5462 -0.6775
 3006TIP3   OH230508   4.345   2.462  11.744 -0.3098  0.2233 -0.4310
 3006TIP3    H130509   4.375   2.371  11.753 -0.1956  0.2220 -0.8349
 3006TIP3    H230510   4.253   2.454  11.719 -0.0588  0.2099 -1.3635
 3007TIP3   OH230511   0.348   2.569  10.463  0.8619  0.5069 -0.3837
 3007TIP3    H130512   0.358   2.664  10.468  1.2638  0.4374  0.2269
 3007TIP3    H230513   0.419   2.540  10.404  0.0279  0.6927 -1.5057
 3008TIP3   OH230514   5.061   6.518  11.059 -0.2387 -0.0550 -0.4410
 3008TIP3    H130515   4.988   6.564  11.100  0.3618  2.0920 -1.5873
 3008TIP3    H230516   5.021   6.455  10.999 -1.2556  2.0232 -2.0709
 3009TIP3   OH230517   6.747   3.300   1.889 -0.5325  0.8833 -0.5371
 3009TIP3    H130518   6.814   3.354   1.931  0.2235  0.4719 -1.1809
 3009TIP3    H230519   6.779   3.210   1.898 -1.3856  0.6072 -0.1678
 3010TIP3   OH230520   0.999   1.741  14.887 -0.2108  0.1966  0.1520
 3010TIP3    H130521   0.916   1.696  14.878 -0.3242  0.3881  0.2275
 3010TIP3    H230522   1.010   1.753  14.981  0.4852 -0.9003  0.2288
 3011TIP3   OH230523   4.015   1.595  13.783  0.4516 -0.0201 -0.2016
 3011TIP3    H130524   3.978   1.507  13.784  0.8278 -0.1711  0.4059
 3011TIP3    H230525   4.047   1.609  13.872 -1.8634  1.6896  0.4569
 3012TIP3   OH230526   5.918   0.278  12.373  0.3759 -0.1274  0.1282
 3012TIP3    H130527   5.896   0.208  12.435  1.0170 -0.4369  0.0145
 3012TIP3    H230528   6.014   0.286  12.379  0.6346 -1.1432 -1.8601
 3013TIP3   OH230529   6.414   3.242  15.730 -0.3013  0.3433  0.2548
 3013TIP3    H130530   6.359   3.240  15.808 -0.0873  0.8550  0.4300
 3013TIP3    H230531   6.504   3.239  15.764 -0.2104  0.4075  0.0255
 3014TIP3   OH230532   5.843   1.061  13.603  0.8402  0.3191  0.5856
 3014TIP3    H130533   5.819   1.084  13.513 -0.2690 -0.0030  0.7840
 3014TIP3    H230534   5.911   0.994  13.593  0.1661 -0.2969 -0.0349
 3015TIP3   OH230535   0.957   2.726  16.315 -0.1326 -0.1942  0.6595
 3015TIP3    H130536   1.051   2.728  16.297 -0.4244 -1.5933 -1.2561
 3015TIP3    H230537   0.947   2.658  16.382  0.0872 -1.0561 -0.1693
 3016TIP3   OH230538   6.254   1.629   2.476  0.1859 -0.5624  0.0477
 3016TIP3    H130539   6.285   1.588   2.395  0.9500 -0.1291  0.1104
 3016TIP3    H230540   6.296   1.579   2.545  0.1922 -0.4075  0.1555
 3017TIP3   OH230541   4.116   6.276   3.185  0.2416 -0.7269  0.1038
 3017TIP3    H130542   4.064   6.196   3.194 -0.7597  0.0503  1.7384
 3017TIP3    H230543   4.177   6.272   3.258  1.7870 -1.0869 -1.1627
 3018TIP3   OH230544   2.042   3.298   4.946  0.3300  0.3842  0.1797
 3018TIP3    H130545   1.990   3.349   5.009 -0.1700 -0.5687  0.5568
 3018TIP3    H230546   1.990   3.300   4.865 -0.8013 -1.3378  0.8110
 3019TIP3   OH230547   0.312   0.404   3.391  0.4154 -0.4533  0.0990
 3019TIP3    H130548   0.348   0.485   3.355 -0.4239 -1.5320 -3.5406
 3019TIP3    H230549   0.367   0.387   3.468  2.0003  2.3953 -0.2204
 3020TIP3   OH230550   1.378   2.390   3.265  0.3431  0.0398  0.2426
 3020TIP3    H130551   1.299   2.441   3.282 -0.2944 -0.9193  0.2231
 3020TIP3    H230552   1.357   2.302   3.297  1.4963 -0.1683  0.4810
 3021TIP3   OH230553   2.817   6.045   4.683 -0.0358 -0.0067 -0.2015
 3021TIP3    H130554   2.853   6.004   4.762 -1.0294  1.1896  0.9169
 3021TIP3    H230555   2.790   5.972   4.629  1.1421 -0.8710  0.3259
 3022TIP3   OH230556   4.367   0.784   5.109  0.0378 -0.4941  0.9982
 3022TIP3    H130557   4.389   0.821   5.194 -0.3728 -1.0304  1.3500
 3022TIP3    H230558   4.427   0.825   5.048 -1.1209  1.5885  1.1781
 3023TIP3   OH230559   0.299   0.027  11.256  0.3765 -0.0598  0.6041
 3023TIP3    H130560   0.349   0.109  11.250 -0.0938  0.2396  0.6579
 3023TIP3    H230561   0.212   0.051  11.224  0.2623 -0.5676  0.5299
 3024TIP3   OH230562   5.806   6.502  10.982  0.5646 -0.3468 -0.1781
 3024TIP3    H130563   5.738   6.522  10.918 -0.2217 -0.3872  0.6257
 3024TIP3    H230564   5.771   6.534  11.065  1.2849 -0.8744  0.3410
 3025TIP3   OH230565   4.387   0.723  11.678  0.5026 -0.0142 -0.0780
 3025TIP3    H130566   4.301   0.698  11.713 -0.0058  0.7987 -0.7312
 3025TIP3    H230567   4.373   0.734  11.584  1.7311 -1.6175 -0.5034
 3026TIP3   OH230568   6.535   4.672   2.518  0.5040  0.3167 -0.1509
 3026TIP3    H130569   6.580   4.685   2.601 -1.5301  1.3910  0.8517
 3026TIP3    H230570   6.503   4.759   2.494  0.5929 -0.0747 -1.8046
 3027TIP3   OH230571   6.582   5.141   4.181  0.2372  0.5153 -0.2207
 3027TIP3    H130572   6.571   5.191   4.100 -0.2039  1.9739  0.7025
 3027TIP3    H230573   6.674   5.153   4.204  1.0904 -2.0839 -1.8249
 3028TIP3   OH230574   2.427   5.415   5.459  0.1255 -0.4982  0.0570
 3028TIP3    H130575   2.370   5.477   5.415 -0.3073 -1.6671 -1.0878
 3028TIP3    H230576   2.392   5.410   5.549 -1.0846 -0.5752 -0.3940
 3029TIP3   OH230577   3.225   5.732   4.660 -0.8227 -0.0005  0.3323
 3029TIP3    H130578   3.265   5.701   4.742 -1.5598 -1.0967  0.2921
 3029TIP3    H230579   3.255   5.823   4.652  1.2681 -0.6221  0.5487
 3030TIP3   OH230580   6.488   1.120  10.519  0.0566 -0.1297  0.5721
 3030TIP3    H130581   6.447   1.087  10.439  1.5001 -0.4676 -0.0618
 3030TIP3    H230582   6.438   1.197  10.543 -1.4310 -0.9782  0.2924
 3031TIP3   OH230583   4.271   1.821  12.056  0.0833  0.4023  0.4780
 3031TIP3    H130584   4.181   1.808  12.085  0.1314  0.8108  0.8290
 3031TIP3    H230585   4.314   1.737  12.072 -0.5656 -0.2248 -0.9635
 3032TIP3   OH230586   2.206   6.668  11.407 -0.4486 -0.2980  0.2429
 3032TIP3    H130587   2.273   6.711  11.461 -0.4630 -0.8720  0.7261
 3032TIP3    H230588   2.154   6.617  11.470  0.5017 -2.2501 -0.4850
 3033TIP3   OH230589   3.408   0.853   2.166  0.1861 -0.2849  0.7365
 3033TIP3    H130590   3.486   0.822   2.122 -0.4825 -1.3660  0.2680
 3033TIP3    H230591   3.373   0.922   2.109  0.5807 -0.0633  0.7606
 3034TIP3   OH230592   1.190   5.583   2.528  0.1942  0.4093 -0.1369
 3034TIP3    H130593   1.130   5.509   2.534  0.4161  0.2338 -0.0680
 3034TIP3    H230594   1.267   5.548   2.482 -0.9767  1.3824 -3.0677
 3035TIP3   OH230595   0.803   4.146   2.428 -0.4525 -0.3315 -0.6222
 3035TIP3    H130596   0.812   4.068   2.374 -0.7743 -0.3730 -0.6184
 3035TIP3    H230597   0.753   4.207   2.374 -2.0081 -0.8810  0.1368
 3036TIP3   OH230598   3.811   1.755  15.306  0.4686  0.2343  0.7688
 3036TIP3    H130599   3.718   1.766  15.288 -0.2046  0.5406  3.8848
 3036TIP3    H230600   3.851   1.838  15.281 -0.2164  0.3867  0.1637
 3037TIP3   OH230601   2.994   6.158  14.859 -0.3415 -0.0820  0.4615
 3037TIP3    H130602   3.047   6.133  14.935  0.9985  1.3916  0.0633
 3037TIP3    H230603   3.049   6.139  14.784 -1.7739 -1.8107 -0.2308
 3038TIP3   OH230604   6.286   5.465   5.799 -0.5049  0.1486 -0.1832
 3038TIP3    H130605   6.371   5.447   5.837 -0.5269  2.1397  0.9955
 3038TIP3    H230606   6.225   5.463   5.873 -1.4266 -0.7932 -0.9289
 3039TIP3   OH230607   3.131   2.456   0.978 -0.5439 -0.5860 -0.1851
 3039TIP3    H130608   3.125   2.372   1.025 -1.5063 -0.5215 -0.1855
 3039TIP3    H230609   3.049   2.501   0.999  0.2824  0.6850  0.4276
 3040TIP3   OH230610   3.136   5.211  15.360  0.0088  0.3722  0.4289
 3040TIP3    H130611   3.196   5.284  15.375  0.9644 -0.2432 -0.2909
 3040TIP3    H230612   3.058   5.234  15.410  0.6898  1.3790  1.0756
 3041TIP3   OH230613   5.442   2.748   0.758  0.0571  0.3905  0.2856
 3041TIP3    H130614   5.394   2.669   0.732  0.3504  0.2536  0.1556
 3041TIP3    H230615   5.503   2.718   0.825  1.0608  0.2487 -0.6604
 3042TIP3   OH230616   5.340   3.703  16.044 -0.1961  0.4077 -0.3229
 3042TIP3    H130617   5.272   3.702  16.112 -0.4174  0.1711 -0.5470
 3042TIP3    H230618   5.374   3.614  16.043 -0.1635  0.4218 -0.4906
 3043TIP3   OH230619   4.652   5.199   0.770 -0.1054  0.4712  0.2894
 3043TIP3    H130620   4.648   5.264   0.840  1.4513 -0.7650  1.6206
 3043TIP3    H230621   4.626   5.117   0.813 -2.0575  0.1518 -1.3506
 3044TIP3   OH230622   3.911   0.217  10.696 -0.4422  0.0921 -0.5516
 3044TIP3    H130623   3.932   0.282  10.629  2.4854  0.1480  0.2478
 3044TIP3    H230624   3.876   0.267  10.769  0.0566  0.5557 -0.6253
 3045TIP3   OH230625   2.478   2.002   5.587  0.3279  0.1746 -0.2116
 3045TIP3    H130626   2.411   2.035   5.647 -0.3105  0.7469 -1.1963
 3045TIP3    H230627   2.460   2.048   5.505  2.0101  0.4177 -0.4691
 3046TIP3   OH230628   0.605   4.181  13.947 -0.4692 -0.9192  0.3277
 3046TIP3    H130629   0.664   4.144  14.013 -0.9519  1.2526  2.0657
 3046TIP3    H230630   0.659   4.246  13.901 -0.3340 -1.9442 -1.0168
 3047TIP3   OH230631   3.634   6.654  12.876  0.3230  0.0974  0.1458
 3047TIP3    H130632   3.555   6.703  12.898  0.0234  0.8206 -2.2722
 3047TIP3    H230633   3.613   6.611  12.793  1.5730 -1.8772  0.7826
 3048TIP3   OH230634   2.982   5.941   0.173  0.2489  0.8667 -0.1378
 3048TIP3    H130635   2.965   6.013   0.112  1.1385 -0.0378 -1.4989
 3048TIP3    H230636   2.991   5.984   0.258 -0.6944  2.1987 -0.6713
 3049TIP3   OH230637   6.066   5.215  16.689  0.5297  0.6026 -0.3680
 3049TIP3    H130638   6.022   5.262  16.760  1.2444  0.7721 -0.0285
 3049TIP3    H230639   5.996   5.194  16.627  0.0004  0.9959  0.0902
 3050TIP3   OH230640   1.806   3.336  14.970  0.3283 -0.3057 -0.0683
 3050TIP3    H130641   1.841   3.383  15.045 -0.9491 -1.1334  1.0757
 3050TIP3    H230642   1.745   3.272  15.007 -2.3859  1.0115 -1.9306
 3051TIP3   OH230643   2.348   2.609   0.388  0.1050 -0.2192 -0.3872
 3051TIP3    H130644   2.324   2.536   0.446 -1.2536  0.2540 -0.3215
 3051TIP3    H230645   2.268   2.629   0.341  0.8222  0.3794 -1.3710
 3052TIP3   OH230646   1.361   5.153   2.680  0.3072  0.6059 -0.2369
 3052TIP3    H130647   1.430   5.214   2.652  1.5176 -0.1368  0.9774
 3052TIP3    H230648   1.401   5.066   2.670  0.7773  0.2631  3.3554
 3053TIP3   OH230649   5.227   4.089  15.524 -0.3683 -0.0444  0.0585
 3053TIP3    H130650   5.262   4.028  15.459  1.5078  1.2815 -0.2523
 3053TIP3    H230651   5.294   4.094  15.592 -1.0750  0.6598  0.7330
 3054TIP3   OH230652   0.293   5.768  16.552 -0.2897 -0.2060  0.0193
 3054TIP3    H130653   0.218   5.819  16.583  0.1987  0.5020  0.0616
 3054TIP3    H230654   0.369   5.807  16.597  0.5266  1.2313 -2.4442
 3055TIP3   OH230655   0.477   6.015  15.345  0.0946 -0.0204  0.3224
 3055TIP3    H130656   0.407   6.033  15.282  0.4486  0.6728  0.1108
 3055TIP3    H230657   0.545   6.079  15.323 -0.4833  1.4739  2.5618
 3056TIP3   OH230658   0.931   1.890  13.243 -0.7005  0.4782 -0.5539
 3056TIP3    H130659   1.010   1.940  13.259 -1.1500  1.2297 -0.6405
 3056TIP3    H230660   0.866   1.927  13.302 -1.2272  0.4698 -1.1112
 3057TIP3   OH230661   1.447   0.130   1.741 -0.3770 -0.7529 -0.4290
 3057TIP3    H130662   1.497   0.049   1.751 -0.1735 -0.7270 -1.1708
 3057TIP3    H230663   1.414   0.127   1.651  1.1953  0.8590 -1.1159
 3058TIP3   OH230664   6.758   1.663  16.141  0.1760 -0.1147  0.6421
 3058TIP3    H130665   6.854   1.659  16.139  0.1649 -0.4214 -1.2255
 3058TIP3    H230666   6.737   1.747  16.101 -0.3481  0.8405  2.7858
 3059TIP3   OH230667   1.437   1.411   2.142  0.6145  0.2026 -0.3220
 3059TIP3    H130668   1.367   1.476   2.146 -1.1106 -1.6220  1.2693
 3059TIP3    H230669   1.403   1.335   2.190  2.9029 -1.5398 -1.2397
 3060TIP3   OH230670   5.502   0.137  14.225  0.1611  0.1942  0.3939
 3060TIP3    H130671   5.528   0.218  14.181 -2.0883  0.1248 -1.2287
 3060TIP3    H230672   5.410   0.152  14.249  0.0152 -1.5150  1.0030
 3061TIP3   OH230673   0.989   1.141  11.422  0.3191  0.4678  0.2521
 3061TIP3    H130674   1.007   1.194  11.344 -1.6102 -0.6464 -1.0367
 3061TIP3    H230675   1.051   1.068  11.417 -1.1082 -0.7277 -1.4694
 3062TIP3   OH230676   3.432   2.006   5.473 -0.1372 -0.3897 -0.1568
 3062TIP3    H130677   3.372   2.061   5.424  0.0128  0.5711  0.7102
 3062TIP3    H230678   3.495   1.975   5.408 -0.9201 -0.5205 -0.8652
 3063TIP3   OH230679   2.680   2.380  16.339  0.4116  0.0154  0.0452
 3063TIP3    H130680   2.741   2.353  16.408  2.6626  0.7435 -1.5407
 3063TIP3    H230681   2.730   2.372  16.258 -1.1192  2.0205 -1.2086
 3064TIP3   OH230682   4.609   1.204   4.818  0.1642  0.1755  0.1135
 3064TIP3    H130683   4.582   1.162   4.900  0.8379 -0.4899  0.0048
 3064TIP3    H230684   4.693   1.164   4.797  0.4882  1.0848 -0.3736
 3065TIP3   OH230685   4.316   0.707   2.687 -0.8583  0.1988  0.0771
 3065TIP3    H130686   4.379   0.659   2.742 -1.8651 -0.4396  0.7160
 3065TIP3    H230687   4.232   0.666   2.707 -1.2738 -0.0257 -1.9329
 3066TIP3   OH230688   1.087   3.915  12.576  0.2907 -0.5538  0.1825
 3066TIP3    H130689   1.090   3.960  12.491  0.9497 -0.1737  0.3978
 3066TIP3    H230690   1.004   3.867  12.575 -1.4545  2.2019  0.7001
 3067TIP3   OH230691   2.408   4.416  10.952  0.1769 -0.4153  0.7635
 3067TIP3    H130692   2.403   4.508  10.924 -0.0204 -0.9920 -1.2744
 3067TIP3    H230693   2.498   4.390  10.933 -0.1821 -1.0524 -0.1388
 3068TIP3   OH230694   6.296   5.672  14.812  0.3355 -0.1937 -0.0562
 3068TIP3    H130695   6.302   5.608  14.882  0.6728  0.5660  0.6243
 3068TIP3    H230696   6.211   5.715  14.826 -0.2180 -0.9490 -0.9329
 3069TIP3   OH230697   4.054   3.994  16.116 -0.5798 -0.2292 -0.2394
 3069TIP3    H130698   4.136   3.965  16.156 -0.3552 -1.1404 -1.3159
 3069TIP3    H230699   4.003   4.029  16.189  0.6724  0.1562  0.4785
 3070TIP3   OH230700   5.021   0.971   2.475 -1.0433 -0.3196  0.1322
 3070TIP3    H130701   5.096   0.914   2.488 -1.9590 -1.3860  0.9610
 3070TIP3    H230702   5.034   1.043   2.535 -0.6315 -0.4399  0.1903
 3071TIP3   OH230703   2.868   2.251   1.977  0.1463 -0.2283 -0.5426
 3071TIP3    H130704   2.857   2.157   1.963 -0.5080 -0.4451  1.1634
 3071TIP3    H230705   2.863   2.262   2.072  2.8408  1.2047 -0.4523
 3072TIP3   OH230706   4.857   0.247   6.057  0.0445 -0.2843 -0.1013
 3072TIP3    H130707   4.922   0.247   6.127  1.3205  2.2322 -1.1385
 3072TIP3    H230708   4.783   0.294   6.093  1.0787  1.8844 -0.6528
 3073TIP3   OH230709   0.579   0.982   2.120 -0.1726 -0.4570 -0.0138
 3073TIP3    H130710   0.496   0.990   2.169  0.5844 -0.3260  1.3054
 3073TIP3    H230711   0.578   1.056   2.060 -0.5885  0.1244  0.6849
 3074TIP3   OH230712   5.602   3.234   0.657 -0.0274  0.2285  0.0861
 3074TIP3    H130713   5.677   3.185   0.622 -0.4596 -1.8562  1.8083
 3074TIP3    H230714   5.636   3.323   0.671  1.1947  0.1513 -1.9924
 3075TIP3   OH230715   2.948   3.367  12.457 -0.2099 -0.4192  0.7845
 3075TIP3    H130716   2.879   3.378  12.522  0.4662 -1.1206  1.6470
 3075TIP3    H230717   2.952   3.451  12.411 -0.1458  0.3729  2.1893
 3076TIP3   OH230718   3.798   4.904  12.739 -0.0808  0.1956  0.1805
 3076TIP3    H130719   3.892   4.913  12.726 -0.1260  0.0550 -0.2743
 3076TIP3    H230720   3.781   4.810  12.730 -0.4030  0.3330 -0.7696
 3077TIP3   OH230721   3.419   4.277  12.178 -0.1025  0.2212 -0.6358
 3077TIP3    H130722   3.509   4.258  12.153  0.4899  2.6443 -0.5758
 3077TIP3    H230723   3.387   4.337  12.110 -0.9548  1.0170  0.4200
 3078TIP3   OH230724   3.309   3.278  13.666  0.1020 -0.3016 -0.2662
 3078TIP3    H130725   3.375   3.250  13.729  0.5563 -1.4270 -1.2164
 3078TIP3    H230726   3.356   3.286  13.584 -0.8077 -0.4018 -0.8076
 3079TIP3   OH230727   0.608   0.659   5.922 -0.1932  0.3820  0.4974
 3079TIP3    H130728   0.645   0.615   5.999 -0.7131 -1.4611 -0.2581
 3079TIP3    H230729   0.514   0.644   5.929 -0.1388 -0.9310 -1.1379
 3080TIP3   OH230730   1.769   3.537  15.685  0.1210  0.6166 -0.2799
 3080TIP3    H130731   1.831   3.466  15.700  2.2846  2.2855 -0.7583
 3080TIP3    H230732   1.726   3.515  15.602 -0.0266 -0.6006  0.1037
 3081TIP3   OH230733   3.013   3.837  13.380 -0.3598  0.2313 -0.5866
 3081TIP3    H130734   2.937   3.821  13.436 -1.4683 -0.4822 -2.1810
 3081TIP3    H230735   3.088   3.821  13.436 -1.3922  0.4751  0.9285
 3082TIP3   OH230736   1.263   5.678  16.139 -0.1191  0.0758  0.3520
 3082TIP3    H130737   1.228   5.699  16.226 -0.0582  1.6809  0.0143
 3082TIP3    H230738   1.193   5.627  16.097 -0.4141 -0.1570  1.1050
 3083TIP3   OH230739   4.690   4.843   5.675 -0.0819 -0.0877 -0.2734
 3083TIP3    H130740   4.653   4.851   5.587  0.1627  1.0894 -0.2769
 3083TIP3    H230741   4.762   4.906   5.677 -1.4953  1.6119  1.4881
 3084TIP3   OH230742   5.282   0.668   1.036 -0.0713  0.3145 -0.0719
 3084TIP3    H130743   5.290   0.657   0.941  1.9688  0.9226 -0.0013
 3084TIP3    H230744   5.299   0.581   1.072 -1.6897 -0.1191 -0.2474
 3085TIP3   OH230745   2.020   5.862   2.166 -0.2471 -0.3510 -0.1087
 3085TIP3    H130746   2.051   5.776   2.140  0.7705  0.1411 -0.5589
 3085TIP3    H230747   1.927   5.849   2.187 -0.0764 -1.5650 -0.0669
 3086TIP3   OH230748   4.863   2.361   1.335  0.0198 -0.3251 -0.0556
 3086TIP3    H130749   4.889   2.452   1.343 -1.4137  0.0504  0.6493
 3086TIP3    H230750   4.769   2.363   1.318  0.0011 -1.6594 -0.2748
 3087TIP3   OH230751   3.370   0.389  12.435 -0.1764  0.2468  0.3224
 3087TIP3    H130752   3.427   0.465  12.447 -2.9203  2.3801  0.9093
 3087TIP3    H230753   3.358   0.382  12.340  1.5487 -0.6917  0.1389
 3088TIP3   OH230754   4.556   3.883  11.707 -0.0821 -0.1442 -0.1478
 3088TIP3    H130755   4.550   3.978  11.697 -0.8885 -0.0242  1.2649
 3088TIP3    H230756   4.474   3.850  11.671  0.1708 -0.3100 -0.5779
 3089TIP3   OH230757   0.442   1.403   3.966  1.0832 -0.0155  0.2131
 3089TIP3    H130758   0.396   1.397   3.882 -1.1875  1.6610  1.2266
 3089TIP3    H230759   0.376   1.377   4.031  2.4453 -0.2150  1.5744
 3090TIP3   OH230760   0.536   0.290  15.535  0.2816 -0.2171  0.0658
 3090TIP3    H130761   0.468   0.251  15.589 -0.3592  1.1155  0.2548
 3090TIP3    H230762   0.616   0.241  15.556 -0.5205 -1.4894  0.1832
 3091TIP3   OH230763   3.893   5.178  12.631  0.2815 -0.0041  0.2530
 3091TIP3    H130764   3.889   5.184  12.536  1.7947  3.2909  0.2582
 3091TIP3    H230765   3.946   5.100  12.648  3.1655  1.3235 -1.8218
 3092TIP3   OH230766   2.343   1.354   4.607 -0.1019  0.1521  0.1134
 3092TIP3    H130767   2.251   1.376   4.624 -0.2971 -0.3497 -0.2699
 3092TIP3    H230768   2.392   1.426   4.646 -0.6344  0.1379  0.8208
 3093TIP3   OH230769   3.405   1.109   4.356  0.0384  0.1779  0.3224
 3093TIP3    H130770   3.454   1.163   4.294  0.8866  1.2153  1.8312
 3093TIP3    H230771   3.349   1.172   4.402 -0.1362 -0.4690  1.0015
 3094TIP3   OH230772   2.062   4.177   5.147 -0.2682  0.1171  0.2657
 3094TIP3    H130773   2.033   4.136   5.066 -0.3923 -2.1643  1.3824
 3094TIP3    H230774   2.083   4.267   5.123  2.7027 -1.2248 -2.9790
 3095TIP3   OH230775   5.207   3.577  12.374  0.6780 -0.5341  0.2923
 3095TIP3    H130776   5.152   3.552  12.448 -2.1715  1.3940 -1.0233
 3095TIP3    H230777   5.242   3.663  12.398  1.5810 -0.8840  0.2870
 3096TIP3   OH230778   0.487   4.630  11.649 -0.0661 -0.6746 -0.1529
 3096TIP3    H130779   0.551   4.682  11.699 -0.9248 -0.8214  1.1382
 3096TIP3    H230780   0.490   4.543  11.688 -0.6231 -0.8477 -0.4782
 3097TIP3   OH230781   6.382   3.580  10.425 -0.2116 -0.0220  0.0638
 3097TIP3    H130782   6.465   3.588  10.377  1.1675  0.6095  2.4052
 3097TIP3    H230783   6.315   3.597  10.358  1.4941 -0.7490 -1.9612
 3098TIP3   OH230784   5.397   2.307   2.295 -0.1078  0.2842  0.1104
 3098TIP3    H130785   5.473   2.343   2.249 -0.8482 -0.0263 -1.4260
 3098TIP3    H230786   5.343   2.383   2.317 -0.7385  0.3082 -1.4075
 3099TIP3   OH230787   2.341   2.098  14.591  0.2817  0.1350 -0.0277
 3099TIP3    H130788   2.377   2.109  14.679  3.2202 -0.3769 -1.0536
 3099TIP3    H230789   2.376   2.173  14.542  1.1780 -1.1508 -1.4365
 3100TIP3   OH230790   2.728   5.629   4.274 -0.1748 -0.6580  0.5655
 3100TIP3    H130791   2.636   5.608   4.255  0.6275 -3.3317 -1.0777
 3100TIP3    H230792   2.743   5.712   4.229 -0.9070 -2.0401 -2.5033
 3101TIP3   OH230793   6.530   3.194  14.705 -0.0505  0.0555  0.2530
 3101TIP3    H130794   6.507   3.241  14.625  0.0427  0.1602  0.2890
 3101TIP3    H230795   6.622   3.216  14.721 -0.7018  1.9832  1.7262
 3102TIP3   OH230796   0.282   0.131  15.157  0.1823 -0.3394 -0.2211
 3102TIP3    H130797   0.198   0.105  15.194  0.7783 -1.1276  0.6125
 3102TIP3    H230798   0.289   0.225  15.177  0.0625 -0.5423  0.8278
 3103TIP3   OH230799   1.185   1.402   2.447 -0.0593  0.5881  0.3729
 3103TIP3    H130800   1.118   1.338   2.424 -1.5009  1.2180  2.4725
 3103TIP3    H230801   1.267   1.353   2.446 -0.9280 -0.9214  0.4732
 3104TIP3   OH230802   3.652   1.519  13.894 -0.0150 -0.5915  0.0820
 3104TIP3    H130803   3.674   1.575  13.969 -2.8787  0.3021  0.3582
 3104TIP3    H230804   3.649   1.430  13.931  0.2349 -0.3753  0.6334
 3105TIP3   OH230805   5.438   2.959  12.778 -0.0093 -0.8175  0.2685
 3105TIP3    H130806   5.457   2.934  12.869 -2.2849 -1.8188  0.5425
 3105TIP3    H230807   5.409   2.877  12.737 -1.3622  0.0931 -0.6580
 3106TIP3   OH230808   0.381   4.419  11.122  0.6554 -0.2266 -0.2321
 3106TIP3    H130809   0.401   4.336  11.079  0.3564 -0.4257  0.0182
 3106TIP3    H230810   0.365   4.480  11.050  1.5217 -0.2162 -0.4350
 3107TIP3   OH230811   3.388   4.846   4.342 -0.5886  0.1854  0.5746
 3107TIP3    H130812   3.310   4.896   4.319 -2.6862 -3.2696 -0.4795
 3107TIP3    H230813   3.360   4.787   4.412  1.3100 -0.6075  0.7450
 3108TIP3   OH230814   1.153   2.542   0.556 -0.1634  0.4436 -0.0072
 3108TIP3    H130815   1.144   2.472   0.491  0.6869  0.0791  0.2430
 3108TIP3    H230816   1.079   2.530   0.615 -1.9869  1.8815 -1.8776
 3109TIP3   OH230817   3.282   4.623  15.733  0.5971  0.0388  0.7214
 3109TIP3    H130818   3.213   4.595  15.672  0.9730 -1.7044  1.0339
 3109TIP3    H230819   3.268   4.570  15.811  1.2309  0.9357  1.4582
 3110TIP3   OH230820   0.193   3.672  13.326 -0.2162 -0.0790 -0.4109
 3110TIP3    H130821   0.212   3.584  13.294  0.2772 -0.5481  1.0646
 3110TIP3    H230822   0.221   3.730  13.256  2.0442 -0.9925 -0.3367
 3111TIP3   OH230823   6.403   4.823  10.521  0.0205  0.6401 -0.0962
 3111TIP3    H130824   6.473   4.763  10.545  1.0806  1.1282 -1.8306
 3111TIP3    H230825   6.447   4.907  10.508 -1.0882  1.2551  0.0067
 3112TIP3   OH230826   4.631   4.330  14.263 -0.0274  1.0176 -0.0295
 3112TIP3    H130827   4.598   4.325  14.173 -1.8553 -0.7807  0.6667
 3112TIP3    H230828   4.700   4.396  14.259 -1.5155  2.5908 -2.2861
 3113TIP3   OH230829   6.287   5.894   2.853  0.2051  0.1699  0.0843
 3113TIP3    H130830   6.202   5.896   2.808  0.2470  1.4577  0.0192
 3113TIP3    H230831   6.287   5.810   2.900 -0.5176 -0.4696 -1.0087
 3114TIP3   OH230832   6.412   0.253   4.591 -0.3211 -0.5488  0.2398
 3114TIP3    H130833   6.502   0.281   4.607 -0.6454 -0.5884  2.4646
 3114TIP3    H230834   6.418   0.194   4.515  1.4719 -0.3842  0.2172
 3115TIP3   OH230835   2.904   2.064  11.007 -0.0453 -0.0613  0.3311
 3115TIP3    H130836   2.984   2.091  10.962 -1.2973  3.1653 -0.2181
 3115TIP3    H230837   2.844   2.038  10.937 -1.1966  2.7113  0.1651
 3116TIP3   OH230838   4.457   6.757   5.600 -0.1137  0.6544  0.5106
 3116TIP3    H130839   4.519   6.830   5.595 -0.3151  0.7701 -0.4153
 3116TIP3    H230840   4.380   6.796   5.642 -0.3205  1.0545 -0.2260
 3117TIP3   OH230841   3.184   5.443   0.352 -0.3825  0.4968 -0.4488
 3117TIP3    H130842   3.160   5.472   0.264 -1.5922  0.5515 -0.1282
 3117TIP3    H230843   3.110   5.389   0.379  0.6770 -0.7792 -0.0447
 3118TIP3   OH230844   2.386   2.188  16.870  0.2065  0.1380  0.1936
 3118TIP3    H130845   2.354   2.189  16.779 -0.9944 -0.7686  0.5752
 3118TIP3    H230846   2.449   2.260  16.874 -3.0746  3.3169 -0.1502
 3119TIP3   OH230847   4.446   2.610   3.059 -0.2388 -0.0736  0.3438
 3119TIP3    H130848   4.541   2.624   3.055 -0.0752 -1.3134 -1.2373
 3119TIP3    H230849   4.410   2.697   3.079  1.2163  0.3809  1.1566
 3120TIP3   OH230850   4.225   6.077   2.254 -0.0012 -0.8243 -0.4126
 3120TIP3    H130851   4.185   6.071   2.167 -1.9285 -2.0428  0.4872
 3120TIP3    H230852   4.151   6.091   2.313  1.3166  0.4545  1.0154
 3121TIP3   OH230853   3.733   4.160  11.162  0.1885  0.2607 -0.2723
 3121TIP3    H130854   3.764   4.237  11.115  0.8309  0.5175  0.5433
 3121TIP3    H230855   3.759   4.175  11.253  0.1523 -0.8334 -0.0605
 3122TIP3   OH230856   0.051   4.335  11.990  0.1488 -0.1860 -0.2130
 3122TIP3    H130857   0.110   4.327  12.065  1.1355 -1.0811 -1.0521
 3122TIP3    H230858   0.047   4.429  11.972  1.0726 -0.0868  0.0441
 3123TIP3   OH230859   2.231   4.061  15.511 -0.1769  0.2632 -0.2213
 3123TIP3    H130860   2.237   4.145  15.556 -2.7389  0.1422  0.5137
 3123TIP3    H230861   2.260   3.997  15.576  1.5807  0.5201 -0.7134
 3124TIP3   OH230862   0.033   2.274   6.121  0.2276  0.6459 -0.7086
 3124TIP3    H130863   0.115   2.257   6.167 -0.2200  1.1695  0.3285
 3124TIP3    H230864   0.019   2.197   6.066  0.9914  0.1779 -0.2635
 3125TIP3   OH230865   6.000   6.773   1.548  0.1830  0.3671  0.7138
 3125TIP3    H130866   6.066   6.729   1.602 -0.7584 -1.7647  0.1963
 3125TIP3    H230867   5.920   6.723   1.561 -0.6876  1.3045 -0.7518
 3126TIP3   OH230868   5.058   0.141  16.203 -0.0522  0.3652 -0.0583
 3126TIP3    H130869   4.993   0.070  16.211  0.2646  0.1685  0.8870
 3126TIP3    H230870   5.132   0.112  16.256  0.4445  1.0075 -0.3901
 3127TIP3   OH230871   4.677   0.121  11.206 -0.2797 -0.0945 -0.5314
 3127TIP3    H130872   4.707   0.033  11.230 -0.4031 -0.5915 -2.0717
 3127TIP3    H230873   4.606   0.105  11.144 -0.2562  1.1125 -0.8854
 3128TIP3   OH230874   4.845   2.314  12.963  0.1286  0.0256  0.0301
 3128TIP3    H130875   4.823   2.276  13.048 -1.3414  0.8643  0.0492
 3128TIP3    H230876   4.874   2.403  12.984  3.4106 -0.9119 -0.0280
 3129TIP3   OH230877   0.187   6.628   4.656 -0.4138 -0.1974 -0.5326
 3129TIP3    H130878   0.178   6.672   4.741 -1.3712  1.8854 -1.6381
 3129TIP3    H230879   0.142   6.544   4.668  0.5445 -0.4993  1.3508
 3130TIP3   OH230880   4.639   2.943   4.239  0.1920 -0.2013  0.0836
 3130TIP3    H130881   4.591   3.024   4.254 -0.5263 -0.5587 -0.2385
 3130TIP3    H230882   4.577   2.873   4.261 -0.0468 -0.6979 -1.9006
 3131TIP3   OH230883   4.141   6.283  15.510  0.2459 -0.7694  0.6040
 3131TIP3    H130884   4.081   6.269  15.583 -0.5577  1.4266  0.4234
 3131TIP3    H230885   4.224   6.307  15.552 -0.3497  1.0056  0.8474
 3132TIP3   OH230886   3.893   6.279  14.225  0.4757  0.0879 -0.2385
 3132TIP3    H130887   3.802   6.249  14.229  0.7147 -0.7533 -0.7671
 3132TIP3    H230888   3.888   6.373  14.241 -0.5433  0.1472 -0.8074
 3133TIP3   OH230889   3.164   6.817  14.826  0.8020 -0.3384 -1.1344
 3133TIP3    H130890   3.088   6.771  14.790  1.5359 -0.9540 -1.9306
 3133TIP3    H230891   3.240   6.770  14.792  1.5854  1.2585 -1.7147
 3134TIP3   OH230892   2.431   2.349  11.430 -0.0988  0.5271 -0.5802
 3134TIP3    H130893   2.428   2.310  11.342  0.8314  0.4488 -0.5821
 3134TIP3    H230894   2.464   2.278  11.486  1.9024  1.3545 -0.6297
 3135TIP3   OH230895   5.567   6.612  11.503 -0.0752  0.1735  0.0823
 3135TIP3    H130896   5.540   6.584  11.416 -1.4698 -0.6115  0.7190
 3135TIP3    H230897   5.494   6.586  11.560  0.8245  0.6020  1.4928
 3136TIP3   OH230898   6.694   6.757   0.968 -0.2275 -0.4390 -0.5938
 3136TIP3    H130899   6.669   6.758   1.060  0.5831  1.8814 -0.3150
 3136TIP3    H230900   6.719   6.848   0.949 -1.5151 -0.5447 -3.4266
 3137TIP3   OH230901   3.480   1.784  15.973 -0.3812  0.6771 -0.1532
 3137TIP3    H130902   3.513   1.869  15.942  0.9439  0.5058  0.6924
 3137TIP3    H230903   3.460   1.735  15.894  0.3264  1.2339 -0.6843
 3138TIP3   OH230904   3.755   5.213   0.228  0.5247 -0.1707 -0.0056
 3138TIP3    H130905   3.685   5.152   0.249  0.6143  0.4140  2.1863
 3138TIP3    H230906   3.716   5.272   0.163 -0.6461 -0.5236  0.3602
 3139TIP3   OH230907   5.143   0.328   3.914  0.6962  0.2791 -0.1201
 3139TIP3    H130908   5.201   0.400   3.888  1.2961 -0.7418 -1.7943
 3139TIP3    H230909   5.061   0.346   3.868  0.4454  0.4940  0.4003
 3140TIP3   OH230910   3.010   2.607  11.513 -0.3162 -0.4488 -0.2762
 3140TIP3    H130911   3.084   2.579  11.568 -0.8296 -1.5647 -0.1380
 3140TIP3    H230912   3.050   2.657  11.442  0.4451  0.1870  0.5776
 3141TIP3   OH230913   2.764   1.180  12.541  0.7247  0.6248 -0.1664
 3141TIP3    H130914   2.683   1.137  12.512  0.2630 -1.6646  3.8123
 3141TIP3    H230915   2.833   1.137  12.490 -0.2165 -0.6325 -0.4301
 3142TIP3   OH230916   1.376   6.863   0.449  0.4980  0.0301  0.4840
 3142TIP3    H130917   1.418   6.820   0.375  0.5010 -1.4415  1.3017
 3142TIP3    H230918   1.284   6.835   0.445  0.2051  0.9640  0.3246
 3143TIP3   OH230919   6.378   4.487  16.901  0.1461 -0.3651 -0.1950
 3143TIP3    H130920   6.470   4.513  16.896 -0.1094  0.9432  1.2743
 3143TIP3    H230921   6.381   4.392  16.917  1.3155 -0.0850  1.5992
 3144TIP3   OH230922   6.380   6.045   3.205  0.4722 -0.0430  0.0784
 3144TIP3    H130923   6.448   6.015   3.146  0.4299 -1.6428  0.7810
 3144TIP3    H230924   6.349   5.966   3.249 -0.5633  0.8818  1.1156
 3145TIP3   OH230925   3.201   1.499  11.290 -0.0436 -0.2006 -0.0304
 3145TIP3    H130926   3.108   1.498  11.270  0.0972 -1.0030 -0.7307
 3145TIP3    H230927   3.244   1.511  11.205  0.5112 -1.2118  0.0824
 3146TIP3   OH230928   2.449   2.717   2.785 -0.1849  0.1872 -0.1692
 3146TIP3    H130929   2.522   2.731   2.845  0.3319 -0.0865 -0.7298
 3146TIP3    H230930   2.467   2.632   2.745  0.9720  1.5511 -2.7673
 3147TIP3   OH230931   4.853   4.105  14.432  1.1379 -0.1495 -0.2371
 3147TIP3    H130932   4.827   4.014  14.419  0.9965 -0.2088  0.4367
 3147TIP3    H230933   4.865   4.114  14.526  0.4656  0.7127 -0.2195
 3148TIP3   OH230934   0.198   1.586  15.631  0.3772 -0.2741 -0.1268
 3148TIP3    H130935   0.263   1.601  15.700  0.0506 -0.0284  0.1326
 3148TIP3    H230936   0.237   1.518  15.576  1.4670  0.8196 -0.7673
 3149TIP3   OH230937   0.460   6.287  16.209 -0.8616  0.1558 -0.3631
 3149TIP3    H130938   0.527   6.232  16.250 -1.9570 -1.2822 -0.4192
 3149TIP3    H230939   0.484   6.288  16.116  0.3411  1.5462 -0.0687
 3150TIP3   OH230940   4.751   0.967   3.539 -0.0791 -0.9934  0.0785
 3150TIP3    H130941   4.771   0.964   3.445  1.4022 -1.3314  0.3815
 3150TIP3    H230942   4.707   0.884   3.557 -1.9826 -0.1935 -0.6282
 3151TIP3   OH230943   4.532   0.064   3.056 -0.2914  0.4275  0.4691
 3151TIP3    H130944   4.589   0.139   3.038 -0.1673  0.1260 -0.4563
 3151TIP3    H230945   4.565  -0.005   2.998 -2.8400  0.8451 -1.6665
 3152TIP3   OH230946   3.880   0.224   4.750  0.9808  0.2632  0.0420
 3152TIP3    H130947   3.846   0.179   4.828  1.7687 -0.5770 -0.0819
 3152TIP3    H230948   3.814   0.290   4.730 -1.1596 -1.9930 -0.8277
 3153TIP3   OH230949   2.769   5.172  12.543  0.0756 -0.1209 -0.2799
 3153TIP3    H130950   2.764   5.077  12.529 -2.1743  0.0103 -0.7895
 3153TIP3    H230951   2.707   5.208  12.480 -1.0081  1.4880  1.5989
 3154TIP3   OH230952   3.015   1.128  16.711  0.0538 -0.1848 -0.3177
 3154TIP3    H130953   3.041   1.088  16.628  1.6940 -1.0169  0.5440
 3154TIP3    H230954   2.919   1.122  16.712  0.1408 -2.7033 -0.9313
 3155TIP3   OH230955   4.851   3.548  12.395 -0.1826  0.3093  0.0323
 3155TIP3    H130956   4.906   3.622  12.368 -0.1329  0.5781  0.8353
 3155TIP3    H230957   4.795   3.531  12.320  0.6526  0.3583 -0.6198
 3156TIP3   OH230958   3.272   0.697  14.380  0.1700 -0.5103  0.2274
 3156TIP3    H130959   3.281   0.784  14.419  0.3410 -0.8204  0.8964
 3156TIP3    H230960   3.351   0.687  14.327 -0.4936  0.2782 -0.9455
 3157TIP3   OH230961   0.042   0.372   0.622 -0.3722  0.0722 -0.2308
 3157TIP3    H130962   0.074   0.306   0.684  2.6354 -0.1684 -1.8672
 3157TIP3    H230963   0.036   0.452   0.674 -0.4579 -0.6599  0.9407
 3158TIP3   OH230964   0.805   3.305  15.521 -0.3527 -0.3105 -0.0885
 3158TIP3    H130965   0.790   3.398  15.541 -0.4969  0.1693 -2.1891
 3158TIP3    H230966   0.897   3.290  15.543  0.1309  0.7939 -1.2320
 3159TIP3   OH230967   4.675   5.541   2.379  0.4733 -0.1141  0.2258
 3159TIP3    H130968   4.705   5.582   2.297 -1.9016 -1.4569 -1.4393
 3159TIP3    H230969   4.751   5.491   2.410  1.6326  0.9558 -0.7590
 3160TIP3   OH230970   2.671   6.137  16.961 -0.7704  0.3423 -0.3445
 3160TIP3    H130971   2.726   6.211  16.936  0.3424 -0.3816 -0.1154
 3160TIP3    H230972   2.617   6.169  17.032 -3.4841  2.2508 -3.0220
 3161TIP3   OH230973   0.936   4.332   2.016 -0.0213  0.5728 -0.5472
 3161TIP3    H130974   1.028   4.340   1.990  0.3394 -0.9656  0.1718
 3161TIP3    H230975   0.910   4.420   2.041  1.6595  0.8061  0.5188
 3162TIP3   OH230976   6.457   5.778   0.084 -0.4272  0.8876 -0.2442
 3162TIP3    H130977   6.452   5.812  -0.006  0.6005 -0.2506 -0.7523
 3162TIP3    H230978   6.505   5.845   0.132 -1.0130  1.5198 -0.5201
 3163TIP3   OH230979   2.995   1.493  11.591  0.0306  0.3438  0.1197
 3163TIP3    H130980   2.952   1.545  11.659  3.2669  0.2237  2.4635
 3163TIP3    H230981   2.993   1.403  11.624 -0.7378 -0.2065 -1.3177
 3164TIP3   OH230982   0.133   3.377  12.897 -0.4094  0.6053 -0.2354
 3164TIP3    H130983   0.128   3.472  12.907  2.5971  0.9074 -0.7286
 3164TIP3    H230984   0.194   3.364  12.825 -0.3153 -1.7083  0.1931
 3165TIP3   OH230985   5.698   6.797  14.961 -0.0201 -0.1482 -0.7289
 3165TIP3    H130986   5.603   6.792  14.962 -0.0911  0.6414  1.3404
 3165TIP3    H230987   5.727   6.707  14.943 -1.1369 -0.3092 -1.7807
 3166TIP3   OH230988   4.296   1.739   4.810  0.7353 -0.3283  0.1486
 3166TIP3    H130989   4.329   1.817   4.767 -1.0624  0.3779 -0.0263
 3166TIP3    H230990   4.200   1.747   4.806  0.5049 -2.0267  1.0415
 3167TIP3   OH230991   3.135   3.136   5.943 -0.3992 -0.2477 -0.3089
 3167TIP3    H130992   3.096   3.138   6.030 -0.1617 -0.8218 -0.1848
 3167TIP3    H230993   3.149   3.228   5.921 -1.0817 -0.0685 -0.0261
 3168TIP3   OH230994   4.416   0.913   0.637 -0.2593 -0.0818  0.3990
 3168TIP3    H130995   4.371   0.857   0.701 -0.0020  2.1528  2.7167
 3168TIP3    H230996   4.506   0.917   0.667 -0.0388  0.7191 -0.3189
 3169TIP3   OH230997   0.575   4.096  15.989 -0.2133 -0.3567  0.0566
 3169TIP3    H130998   0.626   4.016  15.973  0.6993 -0.2845  2.2187
 3169TIP3    H230999   0.486   4.064  16.004 -0.3626 -0.7133 -1.4611
 3170TIP3   OH231000   0.107   3.715   0.507 -0.3112 -0.6988 -0.0521
 3170TIP3    H131001   0.131   3.795   0.554 -0.1465 -0.1372 -1.0568
 3170TIP3    H231002   0.011   3.720   0.498 -0.1560  0.3191 -1.6617
 3171TIP3   OH231003   3.343   1.823  14.998  0.3324  0.1577 -0.7952
 3171TIP3    H131004   3.432   1.856  14.989  0.4167  1.7944  3.6355
 3171TIP3    H231005   3.290   1.901  15.012 -1.2324 -0.9904 -0.0333
 3172TIP3   OH231006   1.854   6.840  12.355 -0.0549  0.4575  0.3809
 3172TIP3    H131007   1.870   6.746  12.361  1.4387  0.7140  0.6856
 3172TIP3    H231008   1.765   6.851  12.391 -0.4435 -0.8752 -0.1142
 3173TIP3   OH231009   0.037   3.410   0.204  0.5992 -0.2049  0.0983
 3173TIP3    H131010   0.127   3.384   0.187  0.5345 -0.4585  0.1312
 3173TIP3    H231011  -0.016   3.342   0.161  0.4203  0.1894 -0.3121
 3174TIP3   OH231012   4.459   6.605  11.624  0.7125 -0.3662 -0.4708
 3174TIP3    H131013   4.386   6.610  11.562 -0.7870 -0.2744  1.2189
 3174TIP3    H231014   4.437   6.669  11.692  0.9354 -2.2763  1.5022
 3175TIP3   OH231015   0.467   6.129   3.368 -0.1994  0.7513 -0.1537
 3175TIP3    H131016   0.443   6.071   3.295  1.9053 -0.0460 -0.2681
 3175TIP3    H231017   0.413   6.207   3.355  0.7186  1.0196 -3.1376
 3176TIP3   OH231018   5.216   5.430   4.889  0.8601 -0.5096 -0.2325
 3176TIP3    H131019   5.163   5.381   4.952  0.3261 -2.1649 -1.8496
 3176TIP3    H231020   5.297   5.449   4.935  1.2604 -3.3358  0.4221
 3177TIP3   OH231021   3.568   5.178   5.748 -0.0439 -0.2250  0.2406
 3177TIP3    H131022   3.636   5.139   5.693 -0.3681  0.6291 -0.7825
 3177TIP3    H231023   3.486   5.154   5.707 -0.2855  0.5743  0.2374
 3178TIP3   OH231024   4.454   4.176  13.157  0.8939 -0.0694  0.0138
 3178TIP3    H131025   4.480   4.244  13.094  2.6966 -0.5965  0.1344
 3178TIP3    H231026   4.449   4.096  13.105 -0.8918  0.0503 -0.0611
 3179TIP3   OH231027   2.670   1.857  13.226  0.0055  0.2827 -0.3852
 3179TIP3    H131028   2.587   1.879  13.269 -1.3638 -0.0686 -2.7119
 3179TIP3    H231029   2.657   1.879  13.134  2.0714 -0.9593 -1.0529
 3180TIP3   OH231030   2.958   6.672  13.946  0.0893  0.0240  0.4822
 3180TIP3    H131031   3.004   6.709  14.022 -0.9718  0.6942  0.8193
 3180TIP3    H231032   2.955   6.578  13.964  0.8114  0.0463  0.7387
 3181TIP3   OH231033   6.217   0.057   4.851 -0.5211  0.2106  0.3572
 3181TIP3    H131034   6.234   0.110   4.930  0.0650 -1.8894  1.7288
 3181TIP3    H231035   6.160  -0.013   4.882  0.1721 -0.9781 -0.9614
 3182TIP3   OH231036   4.386   1.947   3.666  0.3446 -0.8941  0.4817
 3182TIP3    H131037   4.473   1.910   3.655  0.6914  0.1703 -0.7078
 3182TIP3    H231038   4.402   2.041   3.679 -0.6299 -0.5343 -0.7103
 3183TIP3   OH231039   1.954   2.836   3.602  0.5270  0.0763  0.1218
 3183TIP3    H131040   1.919   2.774   3.538 -1.4804  1.5518 -0.2696
 3183TIP3    H231041   2.045   2.849   3.574  0.3334 -0.9476 -1.1164
 3184TIP3   OH231042   2.837   4.391  14.773 -0.3849  0.1788 -0.0365
 3184TIP3    H131043   2.771   4.332  14.809 -0.5037  1.5642  2.1760
 3184TIP3    H231044   2.795   4.477  14.773  1.1000  0.9396  0.5860
 3185TIP3   OH231045   4.083   1.367  11.413 -0.3724 -0.4310 -0.6929
 3185TIP3    H131046   4.137   1.413  11.350  0.0786  3.7006  2.3270
 3185TIP3    H231047   4.145   1.315  11.465  0.0255  0.3380 -0.3846
 3186TIP3   OH231048   1.897   2.923  10.716 -0.3546  0.1483  0.1745
 3186TIP3    H131049   1.812   2.913  10.675 -0.5774  1.8147  0.1316
 3186TIP3    H231050   1.960   2.892  10.651 -0.9315 -1.5003  0.3770
 3187TIP3   OH231051   4.352   1.255  14.011 -0.4581  0.9279  0.3590
 3187TIP3    H131052   4.273   1.276  14.061 -0.7859 -0.1237  0.3141
 3187TIP3    H231053   4.400   1.195  14.068 -0.1121  0.8947  0.0312
 3188TIP3   OH231054   3.044   0.647  11.123 -0.8020 -0.1799 -0.0412
 3188TIP3    H131055   3.027   0.554  11.137 -1.3221 -0.0853 -0.0323
 3188TIP3    H231056   3.113   0.649  11.057  0.1746 -0.5951  0.9290
 3189TIP3   OH231057   1.632   5.666  12.438  0.0777 -0.0964  0.4039
 3189TIP3    H131058   1.574   5.741  12.422  0.5502  0.3442  0.7077
 3189TIP3    H231059   1.705   5.679  12.378 -0.4640 -1.0342 -0.4905
 3190TIP3   OH231060   3.902   0.847   0.306  0.5004  0.2077 -0.1351
 3190TIP3    H131061   3.874   0.864   0.216  2.2202  0.1585 -0.7115
 3190TIP3    H231062   3.933   0.932   0.338  1.0305 -0.0274 -0.0189
 3191TIP3   OH231063   6.059   0.260  15.148 -0.0124  0.0615 -0.1004
 3191TIP3    H131064   5.990   0.291  15.089 -0.2546  0.8110  0.5576
 3191TIP3    H231065   6.054   0.165  15.142 -0.1624  0.1155 -1.1312
 3192TIP3   OH231066   0.591   3.381  14.890  0.2339 -0.0023 -0.3666
 3192TIP3    H131067   0.593   3.295  14.930 -0.5435 -0.1293 -0.5956
 3192TIP3    H231068   0.589   3.442  14.964 -2.0416 -0.2502 -0.1562
 3193TIP3   OH231069   0.615   2.004  16.815  0.1099 -0.6287  0.0412
 3193TIP3    H131070   0.533   2.039  16.850  0.3185  1.0890 -1.0664
 3193TIP3    H231071   0.673   2.080  16.812  2.0352 -1.9538  1.5095
 3194TIP3   OH231072   0.818   1.159   6.029 -0.0764 -0.2059  0.4306
 3194TIP3    H131073   0.749   1.094   6.012 -0.9536  0.7932  0.0462
 3194TIP3    H231074   0.824   1.164   6.124  0.0410 -0.8675  0.4690
 3195TIP3   OH231075   3.900   1.274   1.071  0.1728  0.3930 -0.4329
 3195TIP3    H131076   3.954   1.300   1.146  2.0380 -0.6979 -1.3305
 3195TIP3    H231077   3.956   1.215   1.021 -1.3706  0.3491 -2.1956
 3196TIP3   OH231078   4.202   0.747  15.132  0.1557 -0.4453  0.0237
 3196TIP3    H131079   4.263   0.678  15.158  1.0928  0.3379 -0.0278
 3196TIP3    H231080   4.237   0.780  15.049 -0.9308 -0.6703 -0.5444
 3197TIP3   OH231081   1.608   4.411  12.007  0.2462 -0.6227 -0.2415
 3197TIP3    H131082   1.574   4.329  11.972  0.5659 -0.2537 -1.4373
 3197TIP3    H231083   1.673   4.441  11.943  1.7520 -0.5443  1.2330
 3198TIP3   OH231084   2.165   1.944   0.983 -0.4509  0.2325 -0.0079
 3198TIP3    H131085   2.139   1.859   0.947 -0.2426 -0.6593  1.8093
 3198TIP3    H231086   2.259   1.934   1.000 -0.6291  0.4523  1.1513
 3199TIP3   OH231087   6.811   2.105  16.606 -0.5430  0.1415  0.0417
 3199TIP3    H131088   6.773   2.161  16.674 -2.2853 -0.4083 -0.4244
 3199TIP3    H231089   6.906   2.114  16.618 -0.7893  0.4626  2.2053
 3200TIP3   OH231090   3.593   3.226   0.920 -0.0754  0.3595  0.1705
 3200TIP3    H131091   3.567   3.296   0.981 -0.5337  0.8807 -0.5973
 3200TIP3    H231092   3.566   3.259   0.834 -1.7641 -1.4345 -0.0629
 3201TIP3   OH231093   5.856   6.593  13.838  0.7881 -0.0812  0.2103
 3201TIP3    H131094   5.824   6.609  13.926  0.7770 -0.4168  0.2708
 3201TIP3    H231095   5.819   6.508  13.814 -1.1824  1.0496 -1.0299
 3202TIP3   OH231096   0.513   3.466   3.153  0.1501 -0.1705  0.3578
 3202TIP3    H131097   0.440   3.414   3.120 -0.7959 -0.2924  2.4767
 3202TIP3    H231098   0.577   3.466   3.081 -1.3685 -1.1409 -1.0690
 3203TIP3   OH231099   1.480   3.416   3.102 -0.1438  0.1305  0.4804
 3203TIP3    H131100   1.541   3.434   3.173  1.6333 -0.6605 -0.7534
 3203TIP3    H231101   1.517   3.461   3.026 -0.1728 -1.6939 -0.6791
 3204TIP3   OH231102   4.976   4.979   5.666  0.0600  0.8460 -0.2296
 3204TIP3    H131103   4.984   5.052   5.728 -0.1565  0.3188  0.4256
 3204TIP3    H231104   5.054   4.926   5.681 -0.1276  0.5742 -0.2227
 3205TIP3   OH231105   4.900   5.948   2.086  1.0583  0.1782 -0.2683
 3205TIP3    H131106   4.864   6.027   2.127  0.2657 -0.7956  0.9705
 3205TIP3    H231107   4.981   5.978   2.044  1.4100  1.4111  1.1982
 3206TIP3   OH231108   0.590   2.746   0.773  0.5827  0.0232  0.2557
 3206TIP3    H131109   0.573   2.661   0.734 -0.4723 -0.5627  1.8505
 3206TIP3    H231110   0.610   2.727   0.865  1.2452  1.4343  0.4378
 3207TIP3   OH231111   4.964   5.515   4.831  0.0641  0.3756 -0.5986
 3207TIP3    H131112   5.055   5.529   4.804  0.2264 -0.3066 -0.4226
 3207TIP3    H231113   4.961   5.424   4.859 -0.4740  0.6290  0.2025
 3208TIP3   OH231114   4.419   3.951   0.745 -0.1672  0.1559  0.0543
 3208TIP3    H131115   4.428   3.897   0.666  1.7714 -1.1866  1.1200
 3208TIP3    H231116   4.419   3.888   0.817 -2.0561  1.3414  1.1630
 3209TIP3   OH231117   2.427   0.177  14.698 -0.1314  0.2484  0.6919
 3209TIP3    H131118   2.437   0.106  14.762 -1.4018 -1.7653 -1.1913
 3209TIP3    H231119   2.368   0.240  14.741 -1.0614 -1.1070  1.4893
 3210TIP3   OH231120   0.230   2.893  16.957 -0.0155  0.1395 -0.4792
 3210TIP3    H131121   0.249   2.943  17.036  0.9660 -1.8410  0.6016
 3210TIP3    H231122   0.150   2.933  16.923  0.7489  2.4585  0.2476
 3211TIP3   OH231123   5.177   4.805   5.801  0.3709  0.5137 -0.3717
 3211TIP3    H131124   5.244   4.863   5.764 -0.8939  1.4267 -1.3062
 3211TIP3    H231125   5.160   4.840   5.888 -0.7608  1.9405 -1.1166
 3212TIP3   OH231126   1.890   4.144  15.832  0.1695  0.1580  0.3205
 3212TIP3    H131127   1.855   4.196  15.905 -0.9217 -2.6664  1.9782
 3212TIP3    H231128   1.962   4.095  15.871  0.1155 -0.7844 -0.7179
 3213TIP3   OH231129   2.854   2.311   4.883  0.1674 -0.3543 -0.1182
 3213TIP3    H131130   2.810   2.369   4.945 -0.2785 -0.9832  0.1544
 3213TIP3    H231131   2.824   2.223   4.905 -0.4080 -0.5495 -1.5469
 3214TIP3   OH231132   3.688   3.727   1.088  0.7825  0.1667 -0.5970
 3214TIP3    H131133   3.661   3.780   1.163  0.1311 -0.0664 -0.6559
 3214TIP3    H231134   3.619   3.661   1.080  1.9694 -1.1850 -0.0371
 3215TIP3   OH231135   5.091   2.059   4.130  0.6195  0.2585 -0.2975
 3215TIP3    H131136   5.116   2.044   4.039 -1.9474 -0.4586 -0.9407
 3215TIP3    H231137   5.032   2.134   4.127 -0.5167 -0.5669  0.5915
 3216TIP3   OH231138   4.723   1.468   4.774 -0.7484 -0.3500 -0.3337
 3216TIP3    H131139   4.692   1.378   4.778 -0.0842 -0.6149 -0.8188
 3216TIP3    H231140   4.645   1.519   4.753 -1.3178 -0.6796  0.8666
 3217TIP3   OH231141   0.613   0.345  13.641 -0.0658 -0.3233 -0.0957
 3217TIP3    H131142   0.582   0.422  13.592 -0.1808 -0.5641 -0.4017
 3217TIP3    H231143   0.565   0.349  13.724  1.4462  1.0972  0.7765
 3218TIP3   OH231144   1.901   1.710   3.074  0.6193 -0.6700 -0.3003
 3218TIP3    H131145   1.920   1.685   3.164  0.4310  1.3696  0.3682
 3218TIP3    H231146   1.807   1.696   3.064  0.6855 -1.1392 -0.2608
 3219TIP3   OH231147   6.675   0.665   3.572 -0.3232  0.0007 -0.1474
 3219TIP3    H131148   6.744   0.723   3.603 -1.1408  0.9728 -0.1127
 3219TIP3    H231149   6.631   0.714   3.503 -0.6738 -0.8044 -0.5090
 3220TIP3   OH231150   4.352   3.269   4.748  0.3847  0.3988  0.7737
 3220TIP3    H131151   4.438   3.282   4.789  0.6004  2.4801 -0.2042
 3220TIP3    H231152   4.366   3.198   4.686  1.5138  0.9252  0.3912
 3221TIP3   OH231153   5.743   1.305   5.231 -0.0839  0.0245  0.1946
 3221TIP3    H131154   5.666   1.295   5.174  0.1416 -1.9588  0.1514
 3221TIP3    H231155   5.746   1.223   5.281  0.1340  1.4102  2.6138
 3222TIP3   OH231156   0.718   2.211  13.151  0.0771 -0.4059 -0.2622
 3222TIP3    H131157   0.689   2.269  13.222  0.6056 -0.9166  0.3760
 3222TIP3    H231158   0.637   2.174  13.116 -0.2268  0.2865 -0.3110
 3223TIP3   OH231159   4.416   1.179  11.207 -0.5672 -0.1218  0.9622
 3223TIP3    H131160   4.441   1.140  11.291  0.5501  0.1275  0.7618
 3223TIP3    H231161   4.460   1.125  11.141 -1.9581 -0.7094  0.4828
 3224TIP3   OH231162   6.617   3.496   4.513 -0.3071 -0.2990 -0.0604
 3224TIP3    H131163   6.553   3.566   4.501  1.1739  1.1765  0.1857
 3224TIP3    H231164   6.636   3.465   4.425  0.3181  0.8838 -0.3694
 3225TIP3   OH231165   0.339   5.003  12.501 -0.0938  0.1126  0.1959
 3225TIP3    H131166   0.412   5.064  12.515 -0.4820  0.4147  0.9577
 3225TIP3    H231167   0.264   5.059  12.483  0.1884 -0.2319 -2.4552
 3226TIP3   OH231168   1.945   5.875   2.871 -0.0953  0.2076  0.1355
 3226TIP3    H131169   1.894   5.813   2.923  1.3031 -0.3153  0.9480
 3226TIP3    H231170   1.918   5.860   2.781 -1.8489  0.4284  0.5939
 3227TIP3   OH231171   5.752   2.321   3.294  0.0773 -0.0847  0.1849
 3227TIP3    H131172   5.765   2.226   3.304  0.8574  0.1353  1.6178
 3227TIP3    H231173   5.833   2.359   3.327  0.9160  1.0518 -2.9404
 3228TIP3   OH231174   3.219   4.085  13.456  0.1255  0.3001 -0.2506
 3228TIP3    H131175   3.292   4.146  13.463  1.2133 -1.0232  0.2803
 3228TIP3    H231176   3.199   4.061  13.546 -1.0811  0.7524 -0.3807
 3229TIP3   OH231177   6.446   3.588  16.776  0.3950 -0.0276  0.1440
 3229TIP3    H131178   6.414   3.567  16.864 -0.8871  0.5563 -0.1689
 3229TIP3    H231179   6.500   3.512  16.752 -2.1665 -1.9281  0.0029
 3230TIP3   OH231180   1.397   4.693   1.870 -0.0443  0.4999 -0.4178
 3230TIP3    H131181   1.452   4.741   1.808 -0.5253  3.9229  1.5573
 3230TIP3    H231182   1.456   4.633   1.914  0.8521  0.0068 -2.2127
 3231TIP3   OH231183   3.321   1.406   2.706 -0.6336  0.1254 -0.3863
 3231TIP3    H131184   3.334   1.415   2.800  0.7369 -0.1129 -0.5251
 3231TIP3    H231185   3.291   1.316   2.694  2.0384 -0.8459 -0.3803
 3232TIP3   OH231186   4.790   6.785   0.094  0.2149  0.4215 -0.3301
 3232TIP3    H131187   4.779   6.850   0.025  1.4770 -0.1341 -1.0919
 3232TIP3    H231188   4.831   6.711   0.051  0.2051 -0.2885  0.8410
 3233TIP3   OH231189   4.510   0.953  16.373 -0.3711  0.0839 -0.4682
 3233TIP3    H131190   4.437   0.976  16.430  0.7579  0.8691  0.7067
 3233TIP3    H231191   4.483   0.870  16.333 -1.5927 -0.0174  0.4860
 3234TIP3   OH231192   1.770   0.812  15.483  0.1278 -0.5234  0.1131
 3234TIP3    H131193   1.797   0.732  15.529  1.7742  1.9727  3.9909
 3234TIP3    H231194   1.848   0.839  15.435 -0.1932 -0.8154 -0.5853
 3235TIP3   OH231195   5.579   0.932  11.361  0.0844  0.3201  0.0863
 3235TIP3    H131196   5.539   0.845  11.360  1.0060 -0.1179 -0.9314
 3235TIP3    H231197   5.568   0.964  11.271 -2.0418  2.1399  0.9121
 3236TIP3   OH231198   6.516   0.962   1.947 -0.2755 -0.3590  0.3200
 3236TIP3    H131199   6.531   1.037   2.005  0.6980 -0.2837 -0.0212
 3236TIP3    H231200   6.442   0.916   1.987 -0.6681  0.5928  0.7169
 3237TIP3   OH231201   6.608   0.124   0.493 -0.5524 -0.1270  0.0168
 3237TIP3    H131202   6.552   0.053   0.463 -0.7057 -0.6417  1.4230
 3237TIP3    H231203   6.678   0.080   0.541  1.0303  0.5155 -1.6177
 3238TIP3   OH231204   5.951   2.067   3.832  0.3331  0.5883 -0.3041
 3238TIP3    H131205   6.045   2.073   3.812  0.6167 -0.6028  0.5592
 3238TIP3    H231206   5.945   1.995   3.895 -1.0798  1.1436  0.2271
 3239TIP3   OH231207   0.430   3.987   5.145 -0.2058  0.6001  0.7203
 3239TIP3    H131208   0.432   4.066   5.091 -1.4844 -0.9174 -1.7721
 3239TIP3    H231209   0.520   3.976   5.177  0.4264  2.0013 -0.4857
 3240TIP3   OH231210   4.695   2.723  15.547 -0.4377  0.3088  0.4630
 3240TIP3    H131211   4.654   2.638  15.563  2.0612 -1.0632 -0.0381
 3240TIP3    H231212   4.676   2.774  15.626 -1.4606 -0.9113  1.0362
 3241TIP3   OH231213   0.377   5.242   5.286 -0.7011 -0.1426  0.3954
 3241TIP3    H131214   0.299   5.284   5.322 -2.3416 -1.6614 -1.1676
 3241TIP3    H231215   0.349   5.209   5.200  2.1476  0.6863 -0.9875
 3242TIP3   OH231216   0.343   5.444  13.417 -0.0224  0.2322  0.6259
 3242TIP3    H131217   0.303   5.415  13.335  0.5472  0.5630  0.2234
 3242TIP3    H231218   0.339   5.540  13.414  2.0452  0.3494 -0.0956
 3243TIP3   OH231219   1.954   4.723  16.533 -0.2116 -0.2609  0.3808
 3243TIP3    H131220   1.979   4.633  16.514 -0.2395  0.0918 -1.5318
 3243TIP3    H231221   2.023   4.755  16.592  2.1521 -0.3424 -2.1187
 3244TIP3   OH231222   2.369   0.000  10.622 -0.7797  0.1155  0.4149
 3244TIP3    H131223   2.387  -0.012  10.528 -0.4181  1.4979  0.2819
 3244TIP3    H231224   2.275  -0.016  10.631 -0.8266  0.0159 -0.1953
 3245TIP3   OH231225   5.910   1.301  15.875  0.0702 -0.2089 -0.1513
 3245TIP3    H131226   5.954   1.234  15.822  0.6161 -0.7169  0.8969
 3245TIP3    H231227   5.900   1.259  15.961 -2.7375 -0.2113 -0.4083
 3246TIP3   OH231228   4.119   2.395  15.392 -1.0387  0.1515 -0.0053
 3246TIP3    H131229   4.023   2.394  15.397 -1.0557 -0.2390 -0.3646
 3246TIP3    H231230   4.140   2.335  15.321 -0.4925 -0.2766  0.5079
 3247TIP3   OH231231   5.876   5.998  12.579  0.4237 -0.4737 -0.3017
 3247TIP3    H131232   5.931   5.936  12.626  1.2807  1.1842  0.9887
 3247TIP3    H231233   5.938   6.051  12.528  0.1655  1.7349  1.5386
 3248TIP3   OH231234   5.360   5.847  14.652 -0.4781 -0.0417 -0.4163
 3248TIP3    H131235   5.451   5.819  14.643  0.1215  1.6547  0.1576
 3248TIP3    H231236   5.343   5.899  14.573 -0.2996  1.3022  0.4027
 3249TIP3   OH231237   0.958   1.933  14.435  0.4147  0.5796  0.0697
 3249TIP3    H131238   1.004   1.851  14.417 -1.8640 -1.4895  2.8064
 3249TIP3    H231239   0.981   1.954  14.526 -0.2739  2.1371 -0.0857
 3250TIP3   OH231240   5.468   5.081  12.880 -0.5345  0.0078  0.2854
 3250TIP3    H131241   5.429   5.136  12.948  1.4377  1.9468 -0.0296
 3250TIP3    H231242   5.395   5.061  12.821 -1.3605  2.4263  0.3685
 3251TIP3   OH231243   3.898   6.716   4.289  0.1010  0.2912 -0.0943
 3251TIP3    H131244   3.865   6.802   4.265 -1.8812 -1.1972 -3.5990
 3251TIP3    H231245   3.828   6.677   4.341  0.1200  0.1438 -0.1770
 3252TIP3   OH231246   0.712   4.769  13.324  0.2511  0.2889  0.0816
 3252TIP3    H131247   0.807   4.768  13.314  0.2159  3.2185 -1.8516
 3252TIP3    H231248   0.695   4.840  13.387 -0.6830 -0.7502  1.0635
 3253TIP3   OH231249   3.277   3.321   6.566  0.1864 -0.2897 -0.2437
 3253TIP3    H131250   3.273   3.269   6.646  0.3834  0.4603  0.2657
 3253TIP3    H231251   3.235   3.267   6.500 -1.4863 -0.2613  0.7349
 3254TIP3   OH231252   3.218   0.786   2.872  0.2003 -0.1646  0.3263
 3254TIP3    H131253   3.220   0.872   2.915  0.1343 -0.7954  1.6465
 3254TIP3    H231254   3.176   0.728   2.936 -0.8190 -0.9427 -1.0020
 3255TIP3   OH231255   5.850   3.586   5.367 -0.3670  0.7114  0.4586
 3255TIP3    H131256   5.792   3.562   5.438 -1.0395  0.8837 -0.0244
 3255TIP3    H231257   5.793   3.593   5.290  0.5540 -0.9390 -0.4355
 3256TIP3   OH231258   5.401   2.720  11.836  0.0340 -0.2929 -0.2775
 3256TIP3    H131259   5.421   2.632  11.805 -0.2264 -0.1675 -0.8157
 3256TIP3    H231260   5.364   2.764  11.760  1.2736  0.6614 -0.3701
 3257TIP3   OH231261   2.462   4.637   1.016  0.4204  0.0825  0.4756
 3257TIP3    H131262   2.480   4.543   1.021  4.0989  0.6329  0.6623
 3257TIP3    H231263   2.492   4.663   0.929  0.5457  1.2655  0.8559
 3258TIP3   OH231264   0.906   3.912   0.136  0.1502 -0.4023  0.5436
 3258TIP3    H131265   0.948   3.827   0.149  1.8695  0.0450 -1.5070
 3258TIP3    H231266   0.817   3.891   0.109  0.3063 -1.5272  0.8525
 3259TIP3   OH231267   5.599   4.326   4.293  0.7856 -0.0646 -0.3994
 3259TIP3    H131268   5.558   4.370   4.218  0.8955 -1.8900 -1.5915
 3259TIP3    H231269   5.534   4.262   4.322  0.6506  0.7799  1.2608
 3260TIP3   OH231270   0.412   5.375   4.007  0.0145 -0.7517  0.3211
 3260TIP3    H131271   0.474   5.318   3.960  1.4305  1.4922 -0.7074
 3260TIP3    H231272   0.392   5.445   3.945 -2.3931 -0.5724  1.2073
 3261TIP3   OH231273   6.202   6.535  14.839  0.2142  0.4292 -0.0698
 3261TIP3    H131274   6.228   6.491  14.920 -2.9500  1.6234  1.7803
 3261TIP3    H231275   6.245   6.620  14.844  1.1114  0.0082 -0.3761
 3262TIP3   OH231276   4.865   2.824  14.341 -0.2270 -0.2587 -0.6468
 3262TIP3    H131277   4.890   2.783  14.424  1.1317 -1.2138 -1.4812
 3262TIP3    H231278   4.810   2.898  14.366  0.5718 -0.2153  1.1312
 3263TIP3   OH231279   4.204   6.277   4.427  0.2093 -0.0460 -0.5541
 3263TIP3    H131280   4.188   6.188   4.461  1.8485 -0.5854 -1.1237
 3263TIP3    H231281   4.192   6.334   4.503 -0.3382 -0.8067 -0.0558
 3264TIP3   OH231282   1.729   6.747  11.338 -0.7855 -0.5505 -0.5885
 3264TIP3    H131283   1.806   6.708  11.297 -0.8809 -1.0808 -0.2748
 3264TIP3    H231284   1.675   6.776  11.264 -0.4715 -0.5433 -0.8172
 3265TIP3   OH231285   6.272   2.128  12.118  0.4797 -0.3318  0.3761
 3265TIP3    H131286   6.255   2.182  12.195  0.1943 -1.0286  0.8048
 3265TIP3    H231287   6.225   2.046  12.135  1.4978 -0.9979  0.0565
 3266TIP3   OH231288   3.795   2.444   2.986  0.3220 -0.1588 -0.4112
 3266TIP3    H131289   3.841   2.523   3.014  0.3403  1.0231 -3.3777
 3266TIP3    H231290   3.826   2.376   3.045  1.3771  1.7528  1.3786
 3267TIP3   OH231291   3.080   1.699   1.182 -0.2762 -0.2390  0.0412
 3267TIP3    H131292   3.150   1.664   1.238 -0.2230  0.0271  0.1433
 3267TIP3    H231293   3.008   1.717   1.243 -0.5994 -0.9362 -0.1274
 3268TIP3   OH231294   0.797   4.452   4.927  0.6616 -0.4140  0.4246
 3268TIP3    H131295   0.730   4.476   4.863  1.6550  1.4229  0.0089
 3268TIP3    H231296   0.758   4.381   4.978 -0.9611 -0.4749 -0.8370
 3269TIP3   OH231297   5.100   6.291  14.727  0.1316  0.1184 -0.1859
 3269TIP3    H131298   5.083   6.247  14.644  1.2857  0.4841 -0.6386
 3269TIP3    H231299   5.165   6.235  14.770  0.2245  0.4107  0.0570
 3270TIP3   OH231300   3.043   4.243  14.624  0.3556  0.1842 -0.0035
 3270TIP3    H131301   3.111   4.300  14.660 -2.0503  1.7363  2.4186
 3270TIP3    H231302   2.968   4.254  14.683 -1.4119 -2.8765 -1.4464
 3271TIP3   OH231303   3.422   5.777   5.636 -0.1301 -0.1455  0.3656
 3271TIP3    H131304   3.360   5.741   5.700 -0.0805 -0.6786  0.1124
 3271TIP3    H231305   3.503   5.789   5.686  0.4145 -2.1238  0.0301
 3272TIP3   OH231306   0.042   5.613   4.766  0.0760  0.3442 -0.1408
 3272TIP3    H131307   0.081   5.700   4.774  1.7708 -0.3527 -0.2518
 3272TIP3    H231308   0.027   5.584   4.856 -1.7728  1.2655 -0.1287
 3273TIP3   OH231309   2.053   5.179   3.400 -0.6385  0.2299  0.1047
 3273TIP3    H131310   2.069   5.100   3.452  0.2100 -0.3988 -1.0614
 3273TIP3    H231311   2.140   5.211   3.378 -0.9603  1.7130  0.8356
 3274TIP3   OH231312   4.111   0.951   2.606 -0.0271 -0.9179 -0.0474
 3274TIP3    H131313   4.043   0.972   2.542  0.8552  1.2509 -0.3629
 3274TIP3    H231314   4.071   0.972   2.690 -0.2294 -1.0120 -0.1192
 3275TIP3   OH231315   3.573   4.108   2.247 -0.0884 -0.2546 -0.3104
 3275TIP3    H131316   3.659   4.144   2.225 -0.6046  1.6738  0.6269
 3275TIP3    H231317   3.513   4.182   2.238 -1.1780 -0.7764  2.0063
 3276TIP3   OH231318   6.648   3.161  15.861  0.5088  0.2351 -0.6082
 3276TIP3    H131319   6.663   3.235  15.920  1.4448  0.7519 -1.4641
 3276TIP3    H231320   6.700   3.090  15.898 -0.6915 -0.1487  0.4314
 3277TIP3   OH231321   1.574   1.191  13.513  0.0622  0.2188  0.3969
 3277TIP3    H131322   1.637   1.184  13.584 -1.8520  1.5521  2.3521
 3277TIP3    H231323   1.561   1.101  13.483  1.9123 -0.2088  0.7590
 3278TIP3   OH231324   4.672   1.996   4.561  0.3048 -0.4815  0.1928
 3278TIP3    H131325   4.724   1.920   4.586  1.5712 -0.2792 -1.6935
 3278TIP3    H231326   4.637   1.975   4.475  0.0364  0.7523 -0.0246
 3279TIP3   OH231327   2.413   0.665   3.572 -0.3698 -0.1926 -0.0589
 3279TIP3    H131328   2.317   0.666   3.578 -0.3492 -0.7920  0.6202
 3279TIP3    H231329   2.441   0.637   3.659  0.3416 -2.4032 -0.9368
 3280TIP3   OH231330   1.783   2.307   3.277  0.6579  0.0059  0.3119
 3280TIP3    H131331   1.860   2.320   3.221  0.1041  0.8184 -0.2984
 3280TIP3    H231332   1.764   2.214   3.271  0.1658  0.1717 -1.5103
 3281TIP3   OH231333   5.688   3.827   3.560 -0.0257 -0.3863  0.4217
 3281TIP3    H131334   5.722   3.805   3.473 -1.5405 -1.4579  0.0561
 3281TIP3    H231335   5.678   3.743   3.605 -2.7438 -0.2708  0.2335
 3282TIP3   OH231336   1.858   2.848  13.284  0.5959 -1.0096 -0.5630
 3282TIP3    H131337   1.862   2.766  13.332  2.3230 -0.5690  0.1273
 3282TIP3    H231338   1.858   2.823  13.192  0.1406 -1.7968 -0.3526
 3283TIP3   OH231339   1.409   2.795  13.200 -0.3772  0.3358  0.0809
 3283TIP3    H131340   1.360   2.798  13.118  1.5007 -1.6233 -1.2104
 3283TIP3    H231341   1.501   2.796  13.174  0.2864 -0.2651  2.1663
 3284TIP3   OH231342   6.087   2.533   4.241 -0.4410 -0.1927  0.3547
 3284TIP3    H131343   6.021   2.467   4.219  0.3955 -1.4983  1.6139
 3284TIP3    H231344   6.127   2.501   4.322  2.5592 -0.1055 -0.9586
 3285TIP3   OH231345   1.149   2.763   4.837  0.0129 -0.1239 -0.0524
 3285TIP3    H131346   1.076   2.706   4.857 -0.1797  0.4362  0.8773
 3285TIP3    H231347   1.132   2.843   4.887  1.3103 -0.0284  0.2765
 3286TIP3   OH231348   5.379   5.859  11.981 -0.4167 -0.7479 -0.0316
 3286TIP3    H131349   5.315   5.789  11.989 -1.1727 -0.5083 -3.0039
 3286TIP3    H231350   5.338   5.923  11.923  1.1550  1.1335  0.7896
 3287TIP3   OH231351   5.344   0.940   1.778 -0.4356 -0.5126  0.2266
 3287TIP3    H131352   5.339   0.914   1.686  1.1298 -1.0098  0.2367
 3287TIP3    H231353   5.368   1.032   1.777 -0.2856 -0.5526  0.1263
 3288TIP3   OH231354   1.723   0.693   5.742  0.5840  0.1113  0.6635
 3288TIP3    H131355   1.637   0.731   5.757  1.1537  2.1230 -0.8115
 3288TIP3    H231356   1.784   0.758   5.776  1.5660 -0.2268 -0.3862
 3289TIP3   OH231357   1.419   3.932   4.582  0.4727  0.0755 -0.1054
 3289TIP3    H131358   1.444   3.867   4.516  1.1866  0.9375 -0.6973
 3289TIP3    H231359   1.427   4.016   4.538 -1.6212  0.5333  0.2655
 3290TIP3   OH231360   3.627   1.391   4.447 -0.1266 -0.0191  0.1879
 3290TIP3    H131361   3.687   1.430   4.511  0.6078  0.8877 -0.9925
 3290TIP3    H231362   3.552   1.450   4.446  0.5236  0.8325 -0.8360
 3291TIP3   OH231363   1.824   0.810   2.274 -0.3259 -0.6973 -0.0462
 3291TIP3    H131364   1.866   0.887   2.312 -0.0903 -0.7363 -0.2218
 3291TIP3    H231365   1.847   0.739   2.334  0.2047 -0.7946 -0.3530
 3292TIP3   OH231366   6.488   0.310   1.138  0.2194  0.0917 -0.0947
 3292TIP3    H131367   6.578   0.341   1.141  0.8850 -1.7204 -0.4760
 3292TIP3    H231368   6.449   0.356   1.064  0.9776  0.4880 -0.2514
 3293TIP3   OH231369   5.909   6.624   0.696 -0.1716 -0.0352  0.9206
 3293TIP3    H131370   5.833   6.613   0.640  0.0914  0.1042  0.5329
 3293TIP3    H231371   5.909   6.546   0.752 -0.9808  0.2889  1.3941
 3294TIP3   OH231372   6.603   4.754  11.545 -0.3889  0.0420  0.1064
 3294TIP3    H131373   6.652   4.814  11.602 -0.4123  0.2574 -0.0956
 3294TIP3    H231374   6.668   4.690  11.516 -0.5976 -0.6773  1.1860
 3295TIP3   OH231375   4.123   3.577  12.176 -0.3874  0.0708 -0.7039
 3295TIP3    H131376   4.120   3.662  12.131 -0.3010 -0.4037 -1.6152
 3295TIP3    H231377   4.048   3.580  12.236  0.0758  1.1006 -0.1509
 3296TIP3   OH231378   2.591   4.056  12.868  0.0841 -0.4208 -0.7681
 3296TIP3    H131379   2.610   4.140  12.911 -0.1458 -0.6853 -0.1439
 3296TIP3    H231380   2.605   4.074  12.775  0.6207  0.1508 -0.5886
 3297TIP3   OH231381   6.597   4.593   4.776  0.0264  0.1818  0.6756
 3297TIP3    H131382   6.633   4.622   4.860  1.8044  0.6778 -0.2038
 3297TIP3    H231383   6.611   4.499   4.775  0.5278  0.2527  0.7141
 3298TIP3   OH231384   5.719   5.611  12.419  0.9758  0.3155 -0.9636
 3298TIP3    H131385   5.649   5.553  12.389  0.7603  0.5920 -0.9939
 3298TIP3    H231386   5.679   5.698  12.425  1.0866  0.3254 -0.1515
 3299TIP3   OH231387   1.734   2.126   2.984 -0.1980 -0.2009 -0.1619
 3299TIP3    H131388   1.789   2.205   2.983  1.0259 -0.9816  1.1451
 3299TIP3    H231389   1.734   2.099   3.076 -0.1978 -1.9835 -0.6658
 3300TIP3   OH231390   3.339   3.390   2.605 -1.1482 -0.5326  0.0824
 3300TIP3    H131391   3.278   3.325   2.571 -2.1002 -0.0998  0.9074
 3300TIP3    H231392   3.390   3.418   2.529 -1.1641 -1.7673 -0.3959
 3301TIP3   OH231393   3.339   5.793  16.656  0.6677 -0.7265  0.0154
 3301TIP3    H131394   3.415   5.767  16.605  1.1127  1.3678 -0.4477
 3301TIP3    H231395   3.317   5.880  16.624 -1.4143 -0.9302  0.7428
 3302TIP3   OH231396   0.370   1.151  13.136  0.0333 -0.4987  0.7949
 3302TIP3    H131397   0.360   1.246  13.141 -1.3758 -0.6719  1.9045
 3302TIP3    H231398   0.461   1.138  13.109  0.0860  1.1591  0.0333
 3303TIP3   OH231399   3.281   6.210   2.681  0.0490  0.1511 -0.3174
 3303TIP3    H131400   3.372   6.236   2.695  0.4630 -1.4688  0.2367
 3303TIP3    H231401   3.232   6.255   2.750  0.6932 -0.2854  0.4408
 3304TIP3   OH231402   1.013   3.285  11.066  1.0311  0.1412 -0.1742
 3304TIP3    H131403   1.035   3.298  11.158 -0.0585 -2.1357  0.4966
 3304TIP3    H231404   1.097   3.263  11.025  1.3262 -0.1937  0.5824
 3305TIP3   OH231405   1.854   4.511   1.525  0.3868  0.1471 -0.1599
 3305TIP3    H131406   1.923   4.524   1.460  0.8349 -1.5756 -0.0833
 3305TIP3    H231407   1.839   4.416   1.525 -1.0308  0.3380  0.8080
 3306TIP3   OH231408   6.468   3.397  11.249  0.4941 -0.2078 -0.1346
 3306TIP3    H131409   6.533   3.466  11.232 -0.1434  0.3580 -0.3258
 3306TIP3    H231410   6.393   3.444  11.287  0.2596 -0.8770  0.2321
 3307TIP3   OH231411   5.290   0.200   0.553  0.6508 -0.3118 -0.5567
 3307TIP3    H131412   5.346   0.276   0.568  1.3753 -0.8815 -0.3135
 3307TIP3    H231413   5.221   0.232   0.494  1.5399  0.2723 -1.3100
 3308TIP3   OH231414   0.684   4.253   5.130 -0.2898  0.1441 -0.0788
 3308TIP3    H131415   0.607   4.211   5.092 -0.1953 -1.5805  1.4962
 3308TIP3    H231416   0.649   4.318   5.191 -0.4325  1.9598 -1.9708
 3309TIP3   OH231417   0.308   0.607   4.746 -0.4513 -0.1197  0.2612
 3309TIP3    H131418   0.365   0.534   4.720  0.0987  0.3782  0.0543
 3309TIP3    H231419   0.229   0.595   4.695  0.6537  0.9275 -1.7967
 3310TIP3   OH231420   5.724   0.982  16.642 -0.5947 -0.5884 -0.0239
 3310TIP3    H131421   5.716   0.888  16.660  0.3674 -0.7118 -0.1789
 3310TIP3    H231422   5.733   0.987  16.547  0.2718 -0.4246  0.0579
 3311TIP3   OH231423   3.234   5.042  14.561 -0.0243 -0.2804  0.0147
 3311TIP3    H131424   3.229   5.099  14.638  1.8617  0.1740 -0.1513
 3311TIP3    H231425   3.247   4.954  14.597 -1.3659 -0.4221  0.2277
 3312TIP3   OH231426   6.678   2.792  11.713  0.5489  0.2908  0.4636
 3312TIP3    H131427   6.659   2.698  11.713  1.5450  0.0735 -0.2993
 3312TIP3    H231428   6.673   2.817  11.805  1.6978 -0.8204  0.8551
 3313TIP3   OH231429   6.656   4.278   0.449  0.0283 -0.3125  0.7977
 3313TIP3    H131430   6.655   4.357   0.503  1.4621  0.4157 -0.1743
 3313TIP3    H231431   6.647   4.206   0.511 -3.0552  0.5930  1.5819
 3314TIP3   OH231432   1.987   6.715  16.203  0.8892 -0.1221  0.7363
 3314TIP3    H131433   2.079   6.738  16.218  0.4958  0.7098  1.9190
 3314TIP3    H231434   1.944   6.729  16.287  0.0167 -2.3053  0.7258
 3315TIP3   OH231435   4.936   1.460  12.826  0.1224 -0.1117  0.5090
 3315TIP3    H131436   4.955   1.466  12.732  3.2784 -0.4498  1.0261
 3315TIP3    H231437   4.955   1.548  12.860 -0.4561 -0.1452  0.9335
 3316TIP3   OH231438   1.619   5.407  11.172  0.2919 -0.4505  0.3346
 3316TIP3    H131439   1.650   5.498  11.174 -1.0133  0.0081  1.4715
 3316TIP3    H231440   1.604   5.389  11.079 -0.7868  1.0099  0.1853
 3317TIP3   OH231441   3.787   0.399  12.111  0.1246 -0.2641 -0.1769
 3317TIP3    H131442   3.696   0.371  12.108  0.6327 -2.2204  0.8419
 3317TIP3    H231443   3.807   0.427  12.022 -1.4775  0.2889 -0.3931
 3318TIP3   OH231444   5.875   5.849  15.519 -0.2458  0.5476 -0.1909
 3318TIP3    H131445   5.837   5.762  15.505 -0.2332  0.2818  1.2704
 3318TIP3    H231446   5.847   5.900  15.443 -0.3566 -0.6936 -1.0076
 3319TIP3   OH231447   0.021   3.701  12.303 -0.8278 -0.0699  0.0427
 3319TIP3    H131448   0.018   3.761  12.228 -1.4550 -0.1201  0.0189
 3319TIP3    H231449  -0.070   3.694  12.330 -0.5597  0.2536  1.0559
 3320TIP3   OH231450   0.397   5.223   3.275  0.0355  0.1851  0.3308
 3320TIP3    H131451   0.317   5.249   3.230 -0.2502  0.8224  1.1856
 3320TIP3    H231452   0.445   5.305   3.290  0.7317 -0.1586  0.0606
 3321TIP3   OH231453   5.399   2.416   4.908 -0.0737 -0.2585  1.2025
 3321TIP3    H131454   5.371   2.499   4.870  1.0980 -0.2279  0.3483
 3321TIP3    H231455   5.448   2.440   4.986 -0.8401 -0.2225  1.6793
 3322TIP3   OH231456   5.577   1.788   3.987  0.1437  0.1336 -0.0615
 3322TIP3    H131457   5.565   1.713   4.045  0.6828 -0.3048 -0.4990
 3322TIP3    H231458   5.522   1.769   3.911  0.8513 -0.1900 -0.5059
 3323TIP3   OH231459   5.176   1.396   2.921 -0.2212  0.4601 -0.3509
 3323TIP3    H131460   5.217   1.329   2.867  0.0799  1.2683 -1.1657
 3323TIP3    H231461   5.198   1.372   3.011  0.0745 -0.3957 -0.6448
 3324TIP3   OH231462   2.218   2.393   3.488 -0.4020 -0.6095 -0.0349
 3324TIP3    H131463   2.203   2.306   3.451 -2.2131 -0.1869 -0.3808
 3324TIP3    H231464   2.131   2.434   3.489  0.2339  0.7807  1.1896
 3325TIP3   OH231465   3.677   0.814   2.037 -0.2913 -0.1007 -0.7149
 3325TIP3    H131466   3.744   0.787   2.099 -1.1477  0.1703  0.3668
 3325TIP3    H231467   3.705   0.901   2.008  0.3025 -0.3800 -0.9896
 3326TIP3   OH231468   6.882   3.011   4.449 -0.1490 -0.6732  0.2190
 3326TIP3    H131469   6.833   2.983   4.372 -0.7787  0.2809  0.2566
 3326TIP3    H231470   6.817   3.057   4.503  0.7775  0.6664  0.2430
 3327TIP3   OH231471   4.673   1.905   0.096 -0.1615 -0.0540  0.4887
 3327TIP3    H131472   4.699   1.861   0.177 -0.1435 -0.7759  0.0932
 3327TIP3    H231473   4.681   1.998   0.117  1.3843 -0.2344  0.8107
 3328TIP3   OH231474   4.957   2.917  15.086 -1.0694 -0.4244 -0.7976
 3328TIP3    H131475   4.957   2.859  15.162  1.5379  0.9981  0.4417
 3328TIP3    H231476   5.020   2.878  15.026 -1.2973 -0.2557 -1.1483
 3329TIP3   OH231477   0.217   4.762   5.017 -0.2915 -0.4173  0.2986
 3329TIP3    H131478   0.177   4.676   5.011 -0.3564 -0.4001  0.5002
 3329TIP3    H231479   0.161   4.818   4.964  1.0803 -0.9760 -1.8885
 3330TIP3   OH231480   1.524   3.118   4.246 -0.1517 -0.3452  0.3038
 3330TIP3    H131481   1.606   3.127   4.295 -1.3456  0.3894  2.2949
 3330TIP3    H231482   1.551   3.095   4.158  2.2216  0.4341  0.7624
 3331TIP3   OH231483   3.915   0.595  16.206  0.0847  0.0989  0.0963
 3331TIP3    H131484   3.984   0.549  16.254 -0.3001 -0.3117  0.2717
 3331TIP3    H231485   3.907   0.680  16.250  0.7094  0.2878 -0.1432
 3332TIP3   OH231486   2.236   2.420   0.570  0.8613 -0.5892 -0.0695
 3332TIP3    H131487   2.189   2.429   0.652 -1.4414 -0.8940 -1.2671
 3332TIP3    H231488   2.180   2.364   0.516  3.7061 -2.9262 -0.8545
 3333TIP3   OH231489   3.824   3.174  12.084 -0.0779 -0.4897 -0.3306
 3333TIP3    H131490   3.843   3.153  11.993  2.4592  1.1269 -0.2723
 3333TIP3    H231491   3.797   3.266  12.083 -0.3683 -0.5532  0.5235
 3334TIP3   OH231492   3.677   1.058  13.459 -0.2733  0.8445 -0.2660
 3334TIP3    H131493   3.608   1.118  13.489  0.7155  2.6555 -1.4387
 3334TIP3    H231494   3.665   1.052  13.365 -0.1342 -0.5969 -0.2188
 3335TIP3   OH231495   2.691   0.244  16.081 -0.3240  0.2012  0.4052
 3335TIP3    H131496   2.644   0.322  16.054  1.0222  1.0479  0.3983
 3335TIP3    H231497   2.635   0.171  16.055 -1.1083  1.1322 -0.5810
 3336TIP3   OH231498   6.243   3.937  11.690  0.1258 -0.1742  0.1911
 3336TIP3    H131499   6.320   3.880  11.681  1.0991  1.0032  0.6679
 3336TIP3    H231500   6.246   3.965  11.782 -0.3061  0.6534 -0.0400
 3337TIP3   OH231501   5.061   0.435  13.591  0.5442  0.0277  0.2224
 3337TIP3    H131502   5.067   0.355  13.539  0.5223 -0.4361  0.9211
 3337TIP3    H231503   5.028   0.406  13.676  0.8157  0.7350  0.5760
 3338TIP3   OH231504   0.650   5.793   3.001 -0.5815  0.1493  0.3760
 3338TIP3    H131505   0.697   5.803   3.084 -1.5011  0.8548  0.8391
 3338TIP3    H231506   0.698   5.848   2.939  0.2847 -0.6118  0.3494
 3339TIP3   OH231507   4.960   4.138  16.126  0.1369  0.4158  0.0417
 3339TIP3    H131508   4.887   4.196  16.103  0.1262  0.8998  1.2201
 3339TIP3    H231509   5.024   4.150  16.056 -1.2398 -0.6586 -1.4837
 3340TIP3   OH231510   6.176   0.860  16.782 -0.3515  0.3326  0.2975
 3340TIP3    H131511   6.251   0.801  16.777  0.2769  0.4067  4.8049
 3340TIP3    H231512   6.100   0.802  16.777  0.1708 -0.4484  1.0772
 3341TIP3   OH231513   1.251   0.661  10.265  0.0438 -0.1854  0.0529
 3341TIP3    H131514   1.341   0.662  10.297  0.2779  1.6469 -0.5295
 3341TIP3    H231515   1.230   0.568  10.254  0.6353 -0.8367  3.4261
 3342TIP3   OH231516   1.532   6.485   0.965  0.4775  0.6567 -0.0760
 3342TIP3    H131517   1.604   6.499   0.903 -0.8312  0.0815 -1.8213
 3342TIP3    H231518   1.552   6.400   1.006 -0.9647 -1.4818 -3.3392
 3343TIP3   OH231519   6.164   0.225   3.154  0.0053  0.1415  0.5119
 3343TIP3    H131520   6.130   0.171   3.225 -0.2007 -0.4024  0.0040
 3343TIP3    H231521   6.098   0.294   3.143  1.4451  2.0875  2.8782
 3344TIP3   OH231522   3.764   1.067  16.175  0.4045  0.5431 -0.6207
 3344TIP3    H131523   3.725   1.154  16.177  0.0645  0.3853  0.0189
 3344TIP3    H231524   3.821   1.067  16.098  0.2134  1.2445 -0.7644
 3345TIP3   OH231525   3.984   4.761   0.403 -0.0554  0.6310 -0.3543
 3345TIP3    H131526   3.927   4.833   0.430 -0.4841 -0.4869  1.9328
 3345TIP3    H231527   4.040   4.744   0.479 -0.6160 -2.0505 -0.4547
 3346TIP3   OH231528   3.195   6.156  15.474 -0.3682  0.3946  1.0150
 3346TIP3    H131529   3.231   6.245  15.477  0.9428 -0.0049 -0.9431
 3346TIP3    H231530   3.131   6.158  15.404  2.1764 -0.9347 -1.5609
 3347TIP3   OH231531   3.608   3.787   4.274  0.4615 -0.2720  0.3970
 3347TIP3    H131532   3.590   3.864   4.220  0.2691 -0.7043 -0.1622
 3347TIP3    H231533   3.521   3.750   4.291  0.4651  0.1914  1.5109
 3348TIP3   OH231534   4.073   4.993   1.793 -0.5961 -0.2703 -0.0739
 3348TIP3    H131535   4.151   4.974   1.740  0.0009 -1.2081  1.0807
 3348TIP3    H231536   4.004   5.009   1.729  0.6372  1.1316 -1.1414
 3349TIP3   OH231537   4.456   6.062   3.739 -0.6065 -0.1493 -0.1104
 3349TIP3    H131538   4.372   6.102   3.762 -0.5076 -0.7581  1.3974
 3349TIP3    H231539   4.521   6.118   3.780 -0.2482  0.3770 -1.3596
 3350TIP3   OH231540   0.721   6.800   5.489 -0.5790 -0.2094 -0.0456
 3350TIP3    H131541   0.787   6.753   5.540  0.7924  2.6987  1.0965
 3350TIP3    H231542   0.746   6.784   5.398  0.9485 -0.2105  0.3483
 3351TIP3   OH231543   1.978   1.794   2.399 -0.3642 -0.1268 -0.0168
 3351TIP3    H131544   2.056   1.758   2.357 -0.5740 -0.1769 -0.3691
 3351TIP3    H231545   1.905   1.751   2.355 -0.5869 -0.3393  0.5462
 3352TIP3   OH231546   4.703   1.551  13.400  0.1256  0.2909  0.5555
 3352TIP3    H131547   4.737   1.565  13.311  0.3437  0.3021  0.6418
 3352TIP3    H231548   4.610   1.574  13.393  0.5225  2.1330  0.7690
 3353TIP3   OH231549   6.353   1.107   4.499  0.3663  0.1812  0.7623
 3353TIP3    H131550   6.377   1.060   4.419  1.1580 -0.2772  1.2500
 3353TIP3    H231551   6.272   1.152   4.478  0.3201 -0.3162 -0.1491
 3354TIP3   OH231552   2.495   4.050   2.395 -0.0925 -0.3647 -0.5807
 3354TIP3    H131553   2.494   4.145   2.409  0.2273 -0.5623  1.0429
 3354TIP3    H231554   2.404   4.023   2.408 -0.1650 -0.2870 -0.9369
 3355TIP3   OH231555   6.312   3.575   1.480 -0.3041 -0.2806  0.4454
 3355TIP3    H131556   6.295   3.505   1.418 -1.0986  1.6691 -1.6924
 3355TIP3    H231557   6.225   3.608   1.503  0.0828  0.8058  0.4127
 3356TIP3   OH231558   0.177   3.252   1.646  0.2111 -0.1224  0.4268
 3356TIP3    H131559   0.234   3.324   1.670 -1.5983  0.8687  2.0875
 3356TIP3    H231560   0.116   3.289   1.582  0.4136 -0.7163 -0.1274
 3357TIP3   OH231561   1.177   3.292   1.491 -0.0273 -0.5183  0.0049
 3357TIP3    H131562   1.140   3.352   1.426 -4.5857 -0.9943  1.8121
 3357TIP3    H231563   1.252   3.339   1.527 -2.1448  3.3242 -0.1099
 3358TIP3   OH231564   3.445   2.091   4.382  0.5565  0.3200 -0.7213
 3358TIP3    H131565   3.375   2.026   4.372  3.3584 -2.9669 -1.2005
 3358TIP3    H231566   3.459   2.124   4.293  1.9936 -1.9487 -1.4343
 3359TIP3   OH231567   3.307   1.189   0.218  0.6881 -0.2549 -0.9677
 3359TIP3    H131568   3.214   1.215   0.218  0.6859  0.5779  3.8120
 3359TIP3    H231569   3.305   1.093   0.225  0.1417 -0.2148 -0.4760
 3360TIP3   OH231570   2.871   1.330   2.242  0.6471  0.1974 -0.5256
 3360TIP3    H131571   2.945   1.330   2.303 -0.4094  1.8853  0.8623
 3360TIP3    H231572   2.896   1.393   2.174  0.7286  0.3088 -0.3923
 3361TIP3   OH231573   6.298   5.142  15.884 -0.3106  0.2666 -0.2472
 3361TIP3    H131574   6.268   5.205  15.949  1.2061 -1.0969  1.9250
 3361TIP3    H231575   6.393   5.141  15.894 -0.2607 -2.2213 -0.2462
 3362TIP3   OH231576   3.697   5.009  11.064  0.3151 -0.1369 -0.2398
 3362TIP3    H131577   3.652   5.071  11.007  1.3037  0.8116 -0.0139
 3362TIP3    H231578   3.628   4.973  11.120 -0.0119  2.2273  0.9742
 3363TIP3   OH231579   0.068   1.666   1.673  0.2070 -0.0134  0.0216
 3363TIP3    H131580  -0.015   1.710   1.651 -0.5860 -1.3295  0.2743
 3363TIP3    H231581   0.082   1.605   1.600 -0.5221 -1.7806  1.2856
 3364TIP3   OH231582   0.777   1.519   3.132 -0.3159 -0.1540  0.0229
 3364TIP3    H131583   0.809   1.575   3.061  1.3579 -0.2047  0.6937
 3364TIP3    H231584   0.707   1.468   3.092 -0.2222  0.6642 -1.2642
 3365TIP3   OH231585   0.107   4.954  16.476  0.7606 -0.4941  0.0668
 3365TIP3    H131586   0.019   4.962  16.514  0.8148 -4.0295  1.2922
 3365TIP3    H231587   0.166   4.980  16.547  0.7574 -0.0118 -0.1033
 3366TIP3   OH231588   6.724   2.700  10.991  0.6695 -0.0922 -0.1760
 3366TIP3    H131589   6.810   2.720  11.029 -0.2882 -0.4009  2.3617
 3366TIP3    H231590   6.669   2.677  11.066 -1.8749  0.8139 -1.6343
 3367TIP3   OH231591   5.299   3.084  16.290  0.2690  0.1459 -0.4437
 3367TIP3    H131592   5.361   3.061  16.359  0.9198  1.0102 -0.7172
 3367TIP3    H231593   5.246   3.006  16.278  0.5889 -0.2424  0.5611
 3368TIP3   OH231594   4.202   0.165   4.681  0.2830  0.7309  0.3281
 3368TIP3    H131595   4.141   0.177   4.609 -0.1930 -0.2360  0.5556
 3368TIP3    H231596   4.208   0.251   4.722 -1.9878  0.5696  1.1417
 3369TIP3   OH231597   2.822   5.296   4.176  0.7228  0.0314 -0.0533
 3369TIP3    H131598   2.729   5.293   4.157  0.0689  3.5104  1.7854
 3369TIP3    H231599   2.863   5.316   4.091 -0.4346  0.4465 -0.5420
 3370TIP3   OH231600   4.995   1.311   0.482  0.3576 -0.5034  1.1605
 3370TIP3    H131601   4.967   1.350   0.565 -0.4799  2.0692 -0.2003
 3370TIP3    H231602   4.951   1.364   0.415  1.8457 -1.7919 -0.9487
 3371TIP3   OH231603   0.502   5.157   0.927 -0.0121  1.1190 -0.0652
 3371TIP3    H131604   0.441   5.191   0.862 -0.5955  2.0199  0.9121
 3371TIP3    H231605   0.475   5.065   0.939 -1.6848  1.6763  0.8611
 3372TIP3   OH231606   0.011   1.867  15.591 -0.2265  0.0560  0.0258
 3372TIP3    H131607   0.059   1.784  15.600  0.2193  0.1684 -1.1470
 3372TIP3    H231608  -0.071   1.852  15.637 -0.6005 -1.4185 -1.0399
 3373TIP3   OH231609   0.576   2.668   1.698 -0.3650  0.1135  0.3486
 3373TIP3    H131610   0.611   2.660   1.609  0.6255 -2.3093  0.8664
 3373TIP3    H231611   0.524   2.588   1.710  0.8211 -0.4240  2.4529
 3374TIP3   OH231612   4.905   2.653  12.561 -0.3850  0.5543 -0.5551
 3374TIP3    H131613   4.890   2.594  12.635 -1.0280  0.8824 -0.4201
 3374TIP3    H231614   4.963   2.720  12.597  1.5264 -0.7335 -1.0892
 3375TIP3   OH231615   4.483   4.723   5.108  0.2034  0.0960  0.0154
 3375TIP3    H131616   4.497   4.814   5.134 -1.1994 -0.9546  6.0571
 3375TIP3    H231617   4.564   4.679   5.131 -0.2784 -0.6478  0.3113
 3376TIP3   OH231618   3.595   4.659  12.428 -0.0135  0.0729 -0.1356
 3376TIP3    H131619   3.537   4.722  12.386 -0.2855 -0.4528 -0.5567
 3376TIP3    H231620   3.675   4.662  12.377 -0.7697 -1.4545 -1.4750
 3377TIP3   OH231621   6.447   5.682  15.165 -0.1117  0.7303  0.2530
 3377TIP3    H131622   6.512   5.657  15.230 -0.6595  0.4812  0.7083
 3377TIP3    H231623   6.495   5.736  15.102  0.4366  0.9051  0.8181
 3378TIP3   OH231624   0.955   0.413   3.349  0.0746 -0.2754 -0.3484
 3378TIP3    H131625   0.877   0.467   3.358 -0.7023 -1.2602 -0.9730
 3378TIP3    H231626   0.982   0.425   3.258  0.0832 -0.6719 -0.4018
 3379TIP3   OH231627   5.581   6.328  14.102 -0.3258 -0.0372 -0.0539
 3379TIP3    H131628   5.661   6.290  14.137 -0.2275 -0.2233 -0.4674
 3379TIP3    H231629   5.563   6.404  14.157  0.1580  0.0300  0.0105
 3380TIP3   OH231630   1.824   6.290   0.997  0.0096 -0.0175  0.2340
 3380TIP3    H131631   1.810   6.279   0.903  0.6404  0.1369  0.1181
 3380TIP3    H231632   1.918   6.306   1.005 -0.0911  0.2567  0.8650
 3381TIP3   OH231633   0.951   3.766   4.502 -0.4765 -0.4694  0.4221
 3381TIP3    H131634   0.906   3.685   4.530 -1.2244 -0.0929  0.3439
 3381TIP3    H231635   1.009   3.787   4.575  0.5327 -1.6544 -0.0023
 3382TIP3   OH231636   6.303   2.264  11.232  0.2830  0.0639  0.4156
 3382TIP3    H131637   6.215   2.230  11.218 -0.4338  1.8126  0.5094
 3382TIP3    H231638   6.356   2.218  11.167 -1.0462  0.3223 -0.9143
 3383TIP3   OH231639   2.877   4.765  16.096 -0.5136  0.2430 -0.2249
 3383TIP3    H131640   2.786   4.790  16.107 -0.1478  1.1682  0.9732
 3383TIP3    H231641   2.874   4.682  16.048 -1.9654  0.2834 -0.2459
 3384TIP3   OH231642   0.300   3.733   4.284  0.4886  0.0137  0.2992
 3384TIP3    H131643   0.311   3.818   4.329  1.1932 -1.1959  2.5849
 3384TIP3    H231644   0.205   3.722   4.278  0.3842  0.5712  0.7912
 3385TIP3   OH231645   4.954   4.480   2.474  0.7248 -0.0066  0.3764
 3385TIP3    H131646   5.049   4.487   2.484  0.6176  0.9763  0.8036
 3385TIP3    H231647   4.920   4.562   2.510 -0.1651  0.5378 -1.5911
 3386TIP3   OH231648   0.646   4.629  11.386 -1.1268  0.0279  0.0496
 3386TIP3    H131649   0.585   4.592  11.450 -0.3671 -1.6021 -0.0967
 3386TIP3    H231650   0.669   4.554  11.330 -0.0987  0.9251 -0.7756
 3387TIP3   OH231651   0.035   0.535  14.249  0.0804 -0.5121  0.3311
 3387TIP3    H131652  -0.042   0.525  14.306 -0.9378 -0.8465 -1.0600
 3387TIP3    H231653   0.034   0.458  14.193  0.3507  0.3862 -0.9530
 3388TIP3   OH231654   1.009   4.715   3.392 -0.0882 -0.5352 -0.4266
 3388TIP3    H131655   0.964   4.647   3.442  1.2071 -1.5462 -0.6057
 3388TIP3    H231656   1.020   4.787   3.454 -0.8267 -0.7575 -0.0256
 3389TIP3   OH231657   4.596   0.729  12.228  0.0501  0.3522 -0.4125
 3389TIP3    H131658   4.656   0.711  12.155  0.3592 -0.2749 -0.0089
 3389TIP3    H231659   4.639   0.690  12.304  0.7565  2.7768  0.5286
 3390TIP3   OH231660   1.035   0.914  14.377  0.1682 -0.0007 -0.0447
 3390TIP3    H131661   1.071   0.912  14.288 -2.9164 -0.2012 -1.4216
 3390TIP3    H231662   1.050   1.003  14.407  0.5112  0.3156 -1.1127
 3391TIP3   OH231663   3.644   4.169   5.528  0.4894  0.5331  0.0647
 3391TIP3    H131664   3.686   4.182   5.443  0.0619  1.2728 -0.0399
 3391TIP3    H231665   3.716   4.160   5.590  0.8048 -0.0004 -0.3677
 3392TIP3   OH231666   1.454   2.367  11.916 -0.4546 -0.3784 -0.2125
 3392TIP3    H131667   1.380   2.324  11.874  1.1232 -1.0506 -2.5526
 3392TIP3    H231668   1.500   2.410  11.843  0.3117  1.8194  1.4549
 3393TIP3   OH231669   3.487   1.683  10.512 -0.3784 -0.2244 -0.3184
 3393TIP3    H131670   3.404   1.641  10.486 -0.1559 -1.6325  1.1188
 3393TIP3    H231671   3.465   1.735  10.589 -0.4025  1.4801 -1.4131
 3394TIP3   OH231672   0.227   5.252  14.021  0.5001 -0.5755 -0.0697
 3394TIP3    H131673   0.298   5.211  13.972  1.2219 -1.3474  1.5175
 3394TIP3    H231674   0.240   5.221  14.111 -0.9164  0.5413  0.5581
 3395TIP3   OH231675   3.788   6.070  14.814  0.2918  0.8030  0.0492
 3395TIP3    H131676   3.871   6.115  14.827  1.9346 -1.6868 -0.9062
 3395TIP3    H231677   3.746   6.116  14.742  0.4176  2.5959  1.0792
 3396TIP3   OH231678   3.262   1.375   4.365 -0.1317  0.1617 -0.5551
 3396TIP3    H131679   3.196   1.403   4.429 -0.2927 -1.1594 -0.1068
 3396TIP3    H231680   3.326   1.446   4.363  1.0718 -0.6377  2.7365
 3397TIP3   OH231681   2.091   4.997   6.378  0.1911  0.4408  0.0243
 3397TIP3    H131682   2.069   5.069   6.436  0.6324 -0.1140  0.8935
 3397TIP3    H231683   2.104   4.922   6.436 -0.9060 -0.5093 -0.9067
 3398TIP3   OH231684   4.445   6.500  16.308 -0.0222 -0.3058 -0.2122
 3398TIP3    H131685   4.485   6.444  16.242  3.3742 -0.5511  1.8593
 3398TIP3    H231686   4.404   6.439  16.370  0.4723 -0.3084  0.1136
 3399TIP3   OH231687   3.379   5.600   5.433 -0.7385 -0.0782  0.0554
 3399TIP3    H131688   3.375   5.657   5.510  2.7886 -0.9993  1.0745
 3399TIP3    H231689   3.370   5.660   5.358 -1.6929  1.1642  1.1187
 3400TIP3   OH231690   6.480   3.860  11.075  0.3217  0.1259  0.2180
 3400TIP3    H131691   6.456   3.863  10.982 -0.6160 -0.3268  0.4323
 3400TIP3    H231692   6.421   3.922  11.117  1.4379  1.1143  0.3934
 3401TIP3   OH231693   1.975   5.907  16.076  0.3908 -0.1545  0.3250
 3401TIP3    H131694   1.955   5.941  15.989 -1.3101  0.1844  0.8263
 3401TIP3    H231695   2.010   5.982  16.123  1.3692 -0.3515 -0.0513
 3402TIP3   OH231696   5.457   3.188  12.193  1.0939 -0.2556  0.6683
 3402TIP3    H131697   5.467   3.259  12.256  0.1597 -0.8947  1.5809
 3402TIP3    H231698   5.439   3.111  12.247 -2.4368 -0.3368 -0.3961
 3403TIP3   OH231699   2.792   6.772  16.296 -0.1570  0.5625 -0.3605
 3403TIP3    H131700   2.723   6.838  16.304 -0.9230  0.0257 -2.0562
 3403TIP3    H231701   2.756   6.695  16.340 -1.7196 -0.4419 -3.1150
 3404TIP3   OH231702   2.580   1.064  14.722 -0.4319 -0.4085  0.1865
 3404TIP3    H131703   2.568   1.008  14.798 -0.0939  1.0341  1.3549
 3404TIP3    H231704   2.504   1.122  14.723 -0.8979 -0.9596 -1.1352
 3405TIP3   OH231705   2.613   5.986   5.985  0.1305 -0.1290 -0.4624
 3405TIP3    H131706   2.584   5.899   6.012 -2.9372  1.2068  0.9955
 3405TIP3    H231707   2.595   5.989   5.891  2.0367 -1.6114 -0.9472
 3406TIP3   OH231708   1.520   0.557   1.810  0.4081  0.3299 -0.1635
 3406TIP3    H131709   1.566   0.626   1.858 -0.6086  2.4426 -2.0799
 3406TIP3    H231710   1.441   0.540   1.862  0.6130  0.6697  0.2667
 3407TIP3   OH231711   1.357   0.494   0.791  0.5376 -0.2602 -0.3135
 3407TIP3    H131712   1.305   0.426   0.836  1.5055  0.2572  1.6986
 3407TIP3    H231713   1.368   0.460   0.702 -2.2190 -0.9399 -0.5154
 3408TIP3   OH231714   4.861   0.972  11.081 -0.4923  0.5628  0.0367
 3408TIP3    H131715   4.945   1.017  11.092 -0.4162  0.6481 -0.8023
 3408TIP3    H231716   4.859   0.908  11.151  1.0488 -0.6015 -0.9110
 3409TIP3   OH231717   1.346   0.827   0.001  0.2846  0.2055 -0.2782
 3409TIP3    H131718   1.277   0.888   0.026  0.6284  1.1156 -1.4174
 3409TIP3    H231719   1.426   0.880   0.003  0.6548 -0.3234 -0.8621
 3410TIP3   OH231720   5.186   5.345   4.633  0.0413 -0.1842  0.2544
 3410TIP3    H131721   5.158   5.258   4.663  0.8600 -0.1574  1.1919
 3410TIP3    H231722   5.189   5.397   4.713 -0.0982  0.6117 -0.2533
 3411TIP3   OH231723   3.536   3.550   2.455  0.1977  0.0889 -0.9884
 3411TIP3    H131724   3.569   3.605   2.526  1.3679 -1.5693 -0.1964
 3411TIP3    H231725   3.500   3.612   2.391  0.1843  1.6767  0.4997
 3412TIP3   OH231726   0.153   4.769   4.251  0.5236  0.1911  0.2188
 3412TIP3    H131727   0.059   4.757   4.266  0.4856  0.2955  0.0623
 3412TIP3    H231728   0.161   4.856   4.212  0.7465  0.4385  0.7985
 3413TIP3   OH231729   5.326   2.985  13.259 -0.2840  0.0915  0.0023
 3413TIP3    H131730   5.283   3.068  13.239 -0.5115 -0.2173 -0.8138
 3413TIP3    H231731   5.319   2.977  13.354  0.0217  1.1561  0.1364
 3414TIP3   OH231732   2.495   5.830   3.056 -0.2011  0.3953 -0.5473
 3414TIP3    H131733   2.548   5.769   3.005 -2.4508  0.6858 -3.4936
 3414TIP3    H231734   2.521   5.917   3.024 -0.9415  0.6381 -0.5270
 3415TIP3   OH231735   1.699   3.324   1.323 -0.4853 -0.2747 -0.0337
 3415TIP3    H131736   1.678   3.235   1.352  0.4320 -1.1670 -1.9129
 3415TIP3    H231737   1.616   3.357   1.288 -0.8260 -0.3886  0.6409
 3416TIP3   OH231738   5.661   2.063   0.693  0.5557 -0.2659  0.3604
 3416TIP3    H131739   5.687   1.978   0.659  1.6974  0.2924 -0.2150
 3416TIP3    H231740   5.742   2.105   0.721  0.2947  1.3355 -1.0520
 3417TIP3   OH231741   4.274   3.724  15.286 -0.3311 -0.2459  0.5905
 3417TIP3    H131742   4.365   3.710  15.262 -0.4993 -1.3019  0.5321
 3417TIP3    H231743   4.249   3.805  15.241  0.9469  0.7971  1.6864
 3418TIP3   OH231744   2.022   0.591   1.268  0.1789 -0.4615  0.4127
 3418TIP3    H131745   2.041   0.552   1.183  0.3463  2.3484 -0.9284
 3418TIP3    H231746   1.928   0.575   1.281 -0.3756  0.9350 -1.4069
 3419TIP3   OH231747   6.648   3.097   6.202 -0.2801  0.1598 -0.3435
 3419TIP3    H131748   6.575   3.109   6.262  0.4558  0.2783  0.5474
 3419TIP3    H231749   6.724   3.133   6.248  0.9759 -2.7603  0.1147
 3420TIP3   OH231750   5.729   4.155  13.843 -0.1002 -0.4662 -0.0588
 3420TIP3    H131751   5.671   4.232  13.846  2.5273  1.8458 -2.4552
 3420TIP3    H231752   5.680   4.090  13.793 -1.3335  0.7061 -0.4404
 3421TIP3   OH231753   0.795   3.725   6.596  0.4335 -0.3294  0.3849
 3421TIP3    H131754   0.882   3.693   6.573  0.1183 -1.1344  0.2426
 3421TIP3    H231755   0.797   3.734   6.691  0.1774 -1.9880  0.5877
 3422TIP3   OH231756   2.608   4.170  12.431 -0.1134  0.0871 -0.1872
 3422TIP3    H131757   2.610   4.255  12.386  2.0893 -0.6875 -1.6997
 3422TIP3    H231758   2.683   4.172  12.490 -0.0702 -0.7880 -0.1988
 3423TIP3   OH231759   5.823   5.077   0.007  0.1881 -0.1147 -0.4435
 3423TIP3    H131760   5.869   5.161   0.008  1.0749 -0.5832 -0.6428
 3423TIP3    H231761   5.845   5.037   0.091 -0.5260 -0.0033 -0.1973
 3424TIP3   OH231762   0.815   1.213   5.564 -0.8096 -0.4353  0.0023
 3424TIP3    H131763   0.865   1.291   5.590 -2.0002  0.4480 -0.2748
 3424TIP3    H231764   0.740   1.248   5.515 -0.6857 -1.8305 -1.2657
 3425TIP3   OH231765   6.077   6.345  16.953 -0.0400 -0.0551 -0.0855
 3425TIP3    H131766   6.069   6.326  16.859  1.3720 -0.8854 -0.0538
 3425TIP3    H231767   6.100   6.261  16.992 -0.3173  0.3538  0.9863
 3426TIP3   OH231768   4.083   1.452   0.101  0.5086  0.2316 -0.0311
 3426TIP3    H131769   4.125   1.406   0.028  0.3712  1.8682 -1.1922
 3426TIP3    H231770   4.005   1.492   0.062  0.0252  0.5181  1.1956
 3427TIP3   OH231771   4.390   4.174  15.273 -0.5909  0.0664  0.2521
 3427TIP3    H131772   4.382   4.269  15.267  1.8610  0.4017  1.1382
 3427TIP3    H231773   4.448   4.150  15.202 -0.5250 -0.6631  0.5417
 3428TIP3   OH231774   6.224   2.114  14.945 -0.2104 -0.2088  0.3482
 3428TIP3    H131775   6.302   2.058  14.940 -0.1231 -0.0706  0.1735
 3428TIP3    H231776   6.178   2.083  15.023  0.2146 -0.0354  0.6747
 3429TIP3   OH231777   3.163   0.436  15.339  0.8348 -0.2814  0.0049
 3429TIP3    H131778   3.102   0.491  15.388  0.2373 -1.4304  0.5657
 3429TIP3    H231779   3.213   0.389  15.405  0.4316 -1.3981 -0.4515
 3430TIP3   OH231780   5.195   6.530  15.086 -0.8166 -0.0192 -0.1330
 3430TIP3    H131781   5.124   6.466  15.094 -1.3687  0.7183  1.2937
 3430TIP3    H231782   5.180   6.591  15.158  0.2846  1.1429 -0.8487
 3431TIP3   OH231783   6.871   2.968  11.621  0.4160  0.1138  0.0759
 3431TIP3    H131784   6.932   2.929  11.559  0.7978  0.6619  0.0991
 3431TIP3    H231785   6.819   2.894  11.653  2.1068 -0.6443  1.2271
 3432TIP3   OH231786   2.345   3.257   0.790 -0.0644  0.2166 -0.4080
 3432TIP3    H131787   2.324   3.343   0.755  1.4248  1.5921  1.8722
 3432TIP3    H231788   2.329   3.264   0.884  1.4165 -1.5698  0.0379
 3433TIP3   OH231789   5.413   6.834  12.121  0.1265 -0.3133  0.0677
 3433TIP3    H131790   5.486   6.812  12.063 -0.0506 -0.9995  0.0848
 3433TIP3    H231791   5.336   6.835  12.063  0.0361 -0.3918  0.1857
 3434TIP3   OH231792   0.563   4.157   4.435  0.0132  0.1962  0.3783
 3434TIP3    H131793   0.595   4.247   4.438  0.3673  0.3131 -3.0958
 3434TIP3    H231794   0.637   4.107   4.402 -0.8184 -1.0233  0.3123
 3435TIP3   OH231795   5.544   5.848  10.455 -0.2620 -0.7580 -0.3294
 3435TIP3    H131796   5.489   5.781  10.414  0.6887 -0.7519 -1.6959
 3435TIP3    H231797   5.630   5.806  10.464 -0.0472 -0.2217  0.2363
 3436TIP3   OH231798   5.500   6.622   4.676  0.8103  0.2430  0.0837
 3436TIP3    H131799   5.479   6.649   4.765  3.2459 -0.4540  0.9714
 3436TIP3    H231800   5.481   6.528   4.674 -0.4050  0.4843 -0.5603
 3437TIP3   OH231801   3.454   1.696  15.452  0.3592  0.1403 -0.3423
 3437TIP3    H131802   3.395   1.624  15.431  0.3192  0.4428 -1.3064
 3437TIP3    H231803   3.490   1.724  15.368  1.5771  0.2285  0.1753
 3438TIP3   OH231804   4.176   4.419   0.588  0.2986  0.1853  0.1282
 3438TIP3    H131805   4.194   4.404   0.496  0.8847  0.7829  0.1356
 3438TIP3    H231806   4.201   4.338   0.632  3.1077  0.9539  0.1391
 3439TIP3   OH231807   1.009   0.660   4.438 -0.0296 -0.2537 -0.0964
 3439TIP3    H131808   1.063   0.623   4.508 -0.4547  0.1942  0.4807
 3439TIP3    H231809   1.029   0.606   4.361  2.6801  1.0725 -0.4298
 3440TIP3   OH231810   5.817   5.535  14.239  0.1389  0.9107  1.5646
 3440TIP3    H131811   5.771   5.457  14.206  0.9465  1.1339 -0.2087
 3440TIP3    H231812   5.749   5.602  14.246  0.3046  1.9245 -3.1772
 3441TIP3   OH231813   0.660   6.572   1.430  0.1970  0.1597  0.1879
 3441TIP3    H131814   0.628   6.503   1.488  0.5940 -1.5888 -1.5527
 3441TIP3    H231815   0.609   6.562   1.350  0.4626  1.7316 -0.2123
 3442TIP3   OH231816   6.512   4.603   1.565  0.8271  0.1701  0.3796
 3442TIP3    H131817   6.431   4.595   1.616  0.8193 -0.1845  0.3141
 3442TIP3    H231818   6.537   4.694   1.575  0.6104  0.1990  0.6950
 3443TIP3   OH231819   3.253   3.990  14.066  0.1722 -0.0638  0.4519
 3443TIP3    H131820   3.259   3.987  14.161  1.2233 -0.5869  0.3806
 3443TIP3    H231821   3.304   3.915  14.036 -2.4046 -1.5620 -0.4642
 3444TIP3   OH231822   0.334   1.159  13.692 -0.2970 -0.2456 -0.1076
 3444TIP3    H131823   0.355   1.135  13.782  1.2200 -3.2706 -1.1418
 3444TIP3    H231824   0.419   1.180  13.652 -0.8007 -0.1284 -1.1625
 3445TIP3   OH231825   5.885   5.315   5.265 -0.7505  0.7377 -0.8080
 3445TIP3    H131826   5.971   5.294   5.229 -0.0096  0.7370  0.8972
 3445TIP3    H231827   5.823   5.273   5.205  0.5172 -1.3397 -0.7482
 3446TIP3   OH231828   2.778   5.987   3.611 -0.0595  0.0915  0.7037
 3446TIP3    H131829   2.796   5.905   3.656  0.5724  0.0808  0.4465
 3446TIP3    H231830   2.698   6.021   3.652 -0.1501 -0.4986  1.0138
 3447TIP3   OH231831   1.348   6.445  16.540 -0.5202 -0.2018  0.2227
 3447TIP3    H131832   1.379   6.511  16.602 -0.8040  0.9820 -0.8612
 3447TIP3    H231833   1.253   6.444  16.552 -0.4500 -1.0121  0.7966
 3448TIP3   OH231834   4.554   0.878  15.834 -0.8097  0.0302 -0.2084
 3448TIP3    H131835   4.479   0.862  15.777 -0.7254 -1.6404  0.0828
 3448TIP3    H231836   4.591   0.791  15.850  2.5114  0.8883 -2.0752
 3449TIP3   OH231837   4.590   0.981  12.380 -0.1700 -0.3920  0.5935
 3449TIP3    H131838   4.540   0.907  12.345 -0.5197  0.8333 -1.6450
 3449TIP3    H231839   4.681   0.961  12.357 -0.4088  0.4608 -1.2854
 3450TIP3   OH231840   0.047   0.815  16.514 -0.2155  0.1584 -0.3992
 3450TIP3    H131841   0.041   0.886  16.450  1.2040  0.8381  0.1887
 3450TIP3    H231842  -0.043   0.806  16.547 -0.2731  2.3749  0.2391
 3451TIP3   OH231843   3.520   1.510   3.220 -0.0368 -0.2531 -0.6271
 3451TIP3    H131844   3.582   1.547   3.157 -0.6923 -1.2404 -1.9071
 3451TIP3    H231845   3.453   1.577   3.231  1.1828  0.8362  0.7829
 3452TIP3   OH231846   4.510   4.836  11.648  0.0344  0.0592  0.0173
 3452TIP3    H131847   4.457   4.815  11.725  1.0227  2.0343  1.3228
 3452TIP3    H231848   4.585   4.778  11.654 -0.8088 -1.1316 -0.5612
 3453TIP3   OH231849   1.656   0.852  12.216  0.5151 -0.4123  0.1458
 3453TIP3    H131850   1.709   0.829  12.139  4.4190 -1.2732  2.8200
 3453TIP3    H231851   1.654   0.772  12.268  0.1787  0.8271  2.1359
 3454TIP3   OH231852   3.780   6.594  14.060 -0.1376  0.1989  0.2052
 3454TIP3    H131853   3.806   6.670  14.008 -1.0505  0.9182  0.7542
 3454TIP3    H231854   3.741   6.534  13.996  1.0743 -0.0620 -0.3165
 3455TIP3   OH231855   2.714   1.653   2.823  0.1667 -0.3779  0.3820
 3455TIP3    H131856   2.783   1.618   2.879  0.1479  1.5832  1.7390
 3455TIP3    H231857   2.758   1.675   2.742  0.5029 -1.8913  0.1246
 3456TIP3   OH231858   4.396   5.559  14.508  0.2483  0.1659  0.8146
 3456TIP3    H131859   4.343   5.585  14.433  0.8745 -0.5203  0.1158
 3456TIP3    H231860   4.338   5.567  14.583 -0.0840  1.9253  0.4273
 3457TIP3   OH231861   5.673   6.561  10.742  0.5727  0.3283  0.1454
 3457TIP3    H131862   5.602   6.547  10.679 -1.0658  2.1804  1.4656
 3457TIP3    H231863   5.744   6.597  10.689  0.2836 -0.8476 -1.0887
 3458TIP3   OH231864   5.491   2.892   0.497 -0.7105  0.0643  0.0121
 3458TIP3    H131865   5.452   2.805   0.495  0.3744 -0.6359  3.1208
 3458TIP3    H231866   5.513   2.906   0.589  1.1789  2.7224 -0.7264
 3459TIP3   OH231867   6.321   1.175   1.291  0.3867 -0.1355  0.0176
 3459TIP3    H131868   6.411   1.176   1.324  0.5974 -1.1295 -0.4841
 3459TIP3    H231869   6.330   1.193   1.197  0.2491 -1.8943 -0.3717
 3460TIP3   OH231870   3.886   5.440   5.543  0.5033 -0.4999 -0.0195
 3460TIP3    H131871   3.955   5.390   5.588 -0.0223 -0.2222  1.1361
 3460TIP3    H231872   3.808   5.385   5.551  0.2736 -0.1859 -0.0846
 3461TIP3   OH231873   4.789   1.228   5.597  0.1508  0.1482 -0.2821
 3461TIP3    H131874   4.741   1.165   5.543  1.0960 -1.3527  0.5719
 3461TIP3    H231875   4.800   1.184   5.681  2.3018  0.7636 -0.1904
 3462TIP3   OH231876   0.814   0.054  11.416  0.1983  0.6677 -0.1478
 3462TIP3    H131877   0.802   0.059  11.511  0.1514  2.1750 -0.2202
 3462TIP3    H231878   0.898   0.096  11.399  0.5981 -0.3186 -0.7129
 3463TIP3   OH231879   2.861   5.649  14.524 -0.0185  0.0182 -0.5325
 3463TIP3    H131880   2.900   5.724  14.569  1.7280 -0.4282 -1.2003
 3463TIP3    H231881   2.767   5.660  14.536  0.3051  0.6757  1.9761
 3464TIP3   OH231882   2.173   4.909  13.516  0.2457 -0.0636  0.2597
 3464TIP3    H131883   2.244   4.848  13.495 -1.5439 -1.9882 -0.5361
 3464TIP3    H231884   2.133   4.874  13.595  0.3789  1.2158  0.9164
 3465TIP3   OH231885   5.636   1.529  13.680  0.4788  0.5067  0.3305
 3465TIP3    H131886   5.567   1.535  13.746  1.0168 -0.0246  0.9624
 3465TIP3    H231887   5.711   1.495  13.728  0.5612 -0.9653 -0.7988
 3466TIP3   OH231888   4.086   4.535  12.876 -0.2009  0.1347  0.2516
 3466TIP3    H131889   4.132   4.554  12.959 -0.0400  1.8206 -0.1773
 3466TIP3    H231890   4.107   4.444  12.857 -2.2371 -1.1643  3.3142
 3467TIP3   OH231891   4.062   4.985  11.892  0.0162  0.5731 -0.3843
 3467TIP3    H131892   4.034   4.912  11.947  0.4908  0.4464 -0.3010
 3467TIP3    H231893   3.988   5.002  11.834  0.0098 -0.1671 -0.5986
 3468TIP3   OH231894   2.844   0.700   3.741 -0.4776  0.0016 -0.8545
 3468TIP3    H131895   2.891   0.617   3.754  1.6749  1.2273 -0.1901
 3468TIP3    H231896   2.805   0.718   3.827 -0.9534 -0.3152 -1.0013
 3469TIP3   OH231897   5.700   3.009  10.138 -0.0664  0.6139  0.1264
 3469TIP3    H131898   5.650   2.956  10.200 -0.4190  2.6135  1.6848
 3469TIP3    H231899   5.636   3.073  10.105 -0.0714 -0.8518 -2.9696
 3470TIP3   OH231900   5.943   4.957   0.904  0.6374  0.2999  0.7118
 3470TIP3    H131901   5.901   5.042   0.917  0.6267  0.2337  1.1290
 3470TIP3    H231902   5.872   4.900   0.873  0.4480  0.2280  1.2633
 3471TIP3   OH231903   4.790   0.049  14.794 -0.2530  0.2299  0.6686
 3471TIP3    H131904   4.768   0.030  14.703 -1.1190 -0.5166  1.0106
 3471TIP3    H231905   4.742   0.129  14.814  1.5198  1.5270 -0.0904
 3472TIP3   OH231906   3.977   6.071   1.694  0.2585 -0.2218  0.4912
 3472TIP3    H131907   4.022   6.155   1.689 -0.5230  0.1587 -0.5505
 3472TIP3    H231908   3.889   6.093   1.725 -0.4564 -0.4200 -1.2910
 3473TIP3   OH231909   3.779   3.606   4.194  0.4069 -0.4440  0.9757
 3473TIP3    H131910   3.719   3.674   4.225  0.5853  0.2192 -0.0772
 3473TIP3    H231911   3.862   3.626   4.237  0.4047 -0.1209  0.8320
 3474TIP3   OH231912   0.020   2.597   2.610  0.1349  0.0863  0.7100
 3474TIP3    H131913  -0.027   2.666   2.657 -1.6743  0.1070 -1.0321
 3474TIP3    H231914  -0.028   2.517   2.631 -1.9920  0.3570 -2.5453
 3475TIP3   OH231915   0.422   0.617  14.561 -0.8417  0.1331  0.1027
 3475TIP3    H131916   0.507   0.580  14.583 -1.5518 -1.1338  0.8938
 3475TIP3    H231917   0.419   0.701  14.607 -0.2397 -0.0760  0.5351
 3476TIP3   OH231918   5.960   5.670   2.519 -0.0061  0.2895 -0.6476
 3476TIP3    H131919   5.919   5.745   2.476  1.9009  0.6336 -2.0253
 3476TIP3    H231920   5.934   5.595   2.465 -0.0723  0.2881 -0.6139
 3477TIP3   OH231921   6.857   2.604   0.427 -0.5950  0.2396  0.6291
 3477TIP3    H131922   6.823   2.664   0.362 -1.8284 -0.2470  0.8020
 3477TIP3    H231923   6.953   2.611   0.419 -0.7145  2.0335  0.5060
 3478TIP3   OH231924   6.752   4.961  14.968 -0.7701 -0.1010  0.0480
 3478TIP3    H131925   6.792   5.048  14.969 -0.5084 -0.1580 -1.5550
 3478TIP3    H231926   6.657   4.978  14.963 -0.7414  0.0872  0.1429
 3479TIP3   OH231927   2.590   3.005   2.024 -0.1443  0.2373 -0.1384
 3479TIP3    H131928   2.646   3.001   2.102 -1.8322  3.3691  1.4232
 3479TIP3    H231929   2.517   2.945   2.044 -0.2681  0.5712  0.4338
 3480TIP3   OH231930   3.679   3.622  14.061  0.0685 -0.5074 -1.0087
 3480TIP3    H131931   3.608   3.561  14.085  0.7802 -0.7601  0.6231
 3480TIP3    H231932   3.746   3.566  14.023  0.0722 -0.5158 -0.9898
 3481TIP3   OH231933   3.534   1.575  16.931 -0.0477 -0.1915  0.1661
 3481TIP3    H131934   3.439   1.569  16.940 -0.0048 -3.5017 -0.5841
 3481TIP3    H231935   3.548   1.609  16.843 -0.5205 -0.1988  0.0877
 3482TIP3   OH231936   4.944   6.795  14.509  0.2229  0.4368  0.5478
 3482TIP3    H131937   4.917   6.721  14.563 -1.7676  0.1006 -0.8341
 3482TIP3    H231938   5.004   6.758  14.445  1.0405  0.4816  1.2618
 3483TIP3   OH231939   3.101   5.427   2.482 -0.0352 -0.8732  0.1314
 3483TIP3    H131940   3.181   5.379   2.504 -0.5367 -1.6434  0.3344
 3483TIP3    H231941   3.032   5.361   2.486 -0.5777 -0.3959 -0.8167
 3484TIP3   OH231942   0.692   0.949  12.284 -0.3965  0.4653  0.6341
 3484TIP3    H131943   0.701   0.935  12.190  2.2130  2.0386  0.5704
 3484TIP3    H231944   0.662   1.039  12.293  0.4412  0.6921  1.3049
 3485TIP3   OH231945   3.587   6.588  16.538 -0.5284  0.4063  0.2339
 3485TIP3    H131946   3.646   6.652  16.578  1.4211  0.5214 -2.5789
 3485TIP3    H231947   3.541   6.636  16.469 -1.1164 -0.5924 -0.0967
 3486TIP3   OH231948   6.749   4.607  15.476 -0.1764 -0.3941 -0.2537
 3486TIP3    H131949   6.747   4.514  15.501  0.6365  0.2097  2.4720
 3486TIP3    H231950   6.680   4.616  15.411 -2.9840 -2.2239  2.2066
 3487TIP3   OH231951   3.763   6.368  11.596  0.1697  0.4272 -0.0588
 3487TIP3    H131952   3.832   6.432  11.610 -0.2279  0.7408  0.5146
 3487TIP3    H231953   3.788   6.292  11.649 -0.7550  1.1801  1.5542
 3488TIP3   OH231954   3.120   3.547  15.341  0.0206  0.8641 -0.2704
 3488TIP3    H131955   3.099   3.457  15.366  0.0534  0.4252 -1.7151
 3488TIP3    H231956   3.176   3.579  15.412  0.3336 -0.3789  0.0774
 3489TIP3   OH231957   3.952   0.479  13.698  0.3407 -0.4304  0.2583
 3489TIP3    H131958   3.961   0.393  13.740  0.1882  0.1921  1.6100
 3489TIP3    H231959   3.971   0.542  13.767  0.7682  0.6374 -0.7940
 3490TIP3   OH231960   1.178   6.343  15.824  0.3870  0.6563 -0.3655
 3490TIP3    H131961   1.203   6.255  15.851  0.9557  1.4858  2.1301
 3490TIP3    H231962   1.135   6.331  15.740  0.0961 -2.0451  0.0728
 3491TIP3   OH231963   5.679   5.170  13.142 -0.8523 -0.6525  0.7849
 3491TIP3    H131964   5.695   5.186  13.049 -2.3584 -0.6560  0.4929
 3491TIP3    H231965   5.629   5.089  13.144 -2.3072  0.2210  1.4346
 3492TIP3   OH231966   3.787   3.435  12.053 -0.3383 -0.7709  0.3671
 3492TIP3    H131967   3.704   3.461  12.094  0.1038  0.4495  0.5358
 3492TIP3    H231968   3.839   3.515  12.052 -0.1492 -0.8356 -2.1775
 3493TIP3   OH231969   4.831   6.085  14.900  0.4005 -1.1363  0.6164
 3493TIP3    H131970   4.908   6.030  14.891 -0.1554 -1.9777  0.9078
 3493TIP3    H231971   4.861   6.161  14.951  0.7600 -2.0147  1.7500
 3494TIP3   OH231972   4.400   4.219  12.838 -0.0631 -0.0789 -0.3778
 3494TIP3    H131973   4.479   4.252  12.881  0.4753 -0.9000 -0.7067
 3494TIP3    H231974   4.432   4.149  12.780 -1.1429 -1.1315  0.2605
 3495TIP3   OH231975   4.169   4.200   1.746  0.2314 -0.0243  0.0665
 3495TIP3    H131976   4.151   4.107   1.731  0.9390 -0.4337  1.5766
 3495TIP3    H231977   4.258   4.213   1.713 -0.9941  0.9435 -3.2032
 3496TIP3   OH231978   5.490   6.867  15.551  0.5359 -0.1704 -0.2588
 3496TIP3    H131979   5.482   6.830  15.463 -2.2680  0.5857 -0.4398
 3496TIP3    H231980   5.399   6.886  15.577  1.3938  1.0038  2.2051
 3497TIP3   OH231981   3.151   3.259   2.369  0.2953 -0.0793  0.0023
 3497TIP3    H131982   3.224   3.207   2.337 -0.1820 -1.2535  0.7563
 3497TIP3    H231983   3.151   3.338   2.314  3.0156  0.6690  0.9488
 3498TIP3   OH231984   1.730   2.814   4.412 -0.1716 -0.0050  0.2123
 3498TIP3    H131985   1.702   2.842   4.499 -0.7563 -0.0716  0.0487
 3498TIP3    H231986   1.805   2.870   4.391  0.2085 -0.2481  0.9189
 3499TIP3   OH231987   6.118   0.931  11.837  0.2765  0.3634  0.1462
 3499TIP3    H131988   6.106   0.941  11.743 -0.5776  0.1049  0.2158
 3499TIP3    H231989   6.186   0.994  11.860  0.3124  0.6030 -0.6006
 3500TIP3   OH231990   4.268   0.505  14.813 -0.0708 -0.1434  0.5610
 3500TIP3    H131991   4.247   0.413  14.792  0.3645 -0.3302  0.9334
 3500TIP3    H231992   4.182   0.547  14.820 -0.2475 -0.1130 -1.3551
 3501TIP3   OH231993   0.991   5.069  10.995 -0.3692 -0.0435 -0.2539
 3501TIP3    H131994   1.002   4.978  11.020  3.3932  0.3548  0.0526
 3501TIP3    H231995   0.975   5.066  10.900  0.5259 -1.0191 -0.3867
 3502TIP3   OH231996   3.324   1.477  11.023 -0.0699 -0.1983  0.3408
 3502TIP3    H131997   3.232   1.452  11.008 -0.0488  1.2123 -3.0277
 3502TIP3    H231998   3.372   1.394  11.018 -0.7223 -0.5482 -3.4903
 3503TIP3   OH231999   1.561   2.405  15.746  0.0207 -0.1162 -0.1687
 3503TIP3    H132000   1.575   2.330  15.687 -1.9870 -0.0666 -0.7849
 3503TIP3    H232001   1.537   2.365  15.829  0.3765 -0.1497 -0.0778
 3504TIP3   OH232002   5.546   0.206   0.895 -0.2705 -0.0825 -0.6066
 3504TIP3    H132003   5.498   0.149   0.835 -2.4215  2.5067 -1.5628
 3504TIP3    H232004   5.626   0.158   0.915 -1.4621 -2.9351 -2.1108
 3505TIP3   OH232005   3.248   3.427   0.054 -0.2303  0.1654  0.3404
 3505TIP3    H132006   3.283   3.491   0.116 -0.3706  0.8861 -0.2962
 3505TIP3    H232007   3.166   3.466   0.024 -0.0434 -0.0483 -0.4713
 3506TIP3   OH232008   1.975   2.094   0.777 -0.2293  0.0072  0.1856
 3506TIP3    H132009   2.039   2.030   0.811  1.6031  1.2811 -0.6858
 3506TIP3    H232010   1.947   2.056   0.693 -0.7224 -0.6158  0.6235
 3507TIP3   OH232011   4.886   5.989   1.050  0.0990  0.5722 -0.2618
 3507TIP3    H132012   4.942   6.058   1.015  0.6720 -0.5214 -1.6096
 3507TIP3    H232013   4.845   6.028   1.128 -0.0840  2.6136 -1.3097
 3508TIP3   OH232014   0.030   3.237   1.143 -0.7745  0.0162 -0.2838
 3508TIP3    H132015  -0.057   3.277   1.144 -0.6442  0.3015  0.7266
 3508TIP3    H232016   0.031   3.181   1.221 -0.5378 -1.0544 -1.0351
 3509TIP3   OH232017   4.726   4.342  16.467 -0.1028  0.1337 -0.1541
 3509TIP3    H132018   4.763   4.370  16.550  2.0672  0.1337 -1.0642
 3509TIP3    H232019   4.730   4.246  16.470 -3.2434 -0.0704  1.0728
 3510TIP3   OH232020   6.217   0.818   1.647  0.0956  0.4260  0.4842
 3510TIP3    H132021   6.294   0.772   1.614 -0.4321 -1.0958  1.2995
 3510TIP3    H232022   6.169   0.844   1.568  0.6275 -0.0277  0.0058
 3511TIP3   OH232023   4.402   4.835  13.424  0.1604  0.3135 -0.5699
 3511TIP3    H132024   4.327   4.891  13.445 -0.2054  0.1885 -1.5112
 3511TIP3    H232025   4.443   4.818  13.509 -0.9487  0.2899 -0.0142
 3512TIP3   OH232026   0.769   4.638  12.936 -0.0739  0.0021  0.1332
 3512TIP3    H132027   0.779   4.611  13.028  0.0050  0.5972  0.3048
 3512TIP3    H232028   0.842   4.698  12.921 -1.9882  2.6980  0.7424
 3513TIP3   OH232029   5.702   5.927   3.340 -0.6604 -0.4808 -0.0440
 3513TIP3    H132030   5.710   5.993   3.409  0.8586 -0.1935 -0.4453
 3513TIP3    H232031   5.713   5.843   3.385 -0.5068 -0.3390  0.1852
 3514TIP3   OH232032   2.396   5.458  15.250  0.1975  0.3991 -0.0283
 3514TIP3    H132033   2.397   5.450  15.346 -1.2620 -0.7213 -0.0794
 3514TIP3    H232034   2.467   5.519  15.231 -0.3011  1.6796  1.8708
 3515TIP3   OH232035   5.310   1.524  16.623 -0.1008 -0.2327  0.3436
 3515TIP3    H132036   5.272   1.593  16.569  1.7518  0.3749 -0.2387
 3515TIP3    H232037   5.248   1.514  16.695 -0.8863  1.3582 -0.0596
 3516TIP3   OH232038   2.293   6.157  12.844 -0.5352  0.0527 -0.7819
 3516TIP3    H132039   2.296   6.118  12.932  0.4078 -0.0724 -0.8622
 3516TIP3    H232040   2.340   6.240  12.853 -1.6135  0.6842 -0.8633
 3517TIP3   OH232041   3.297   0.636   5.560  0.1679 -0.3252  0.5627
 3517TIP3    H132042   3.252   0.718   5.539  0.1025 -0.4345  0.2681
 3517TIP3    H232043   3.321   0.645   5.652  2.5760  1.1993 -0.1179
 3518TIP3   OH232044   2.749   4.084  15.581  0.5192  0.2618 -0.4837
 3518TIP3    H132045   2.708   4.003  15.611  1.4814 -0.4772 -1.1168
 3518TIP3    H232046   2.841   4.061  15.567  1.0538  1.7504  0.3789
 3519TIP3   OH232047   3.665   4.143   0.542  0.3946  0.5628 -0.0756
 3519TIP3    H132048   3.646   4.055   0.509  0.6735  0.1976  0.7280
 3519TIP3    H232049   3.579   4.179   0.565  0.1992  0.8128 -1.1544
 3520TIP3   OH232050   4.501   3.162   4.289 -0.0997  0.3045 -0.1260
 3520TIP3    H132051   4.415   3.194   4.260 -0.2974  0.5436  0.6904
 3520TIP3    H232052   4.500   3.174   4.385  0.7839  0.1713 -0.0905
 3521TIP3   OH232053   0.416   3.238   1.318 -0.1983  0.5352  0.3284
 3521TIP3    H132054   0.412   3.144   1.332  0.8780  0.4334  0.0621
 3521TIP3    H232055   0.411   3.249   1.223 -0.1845  0.7297  0.3481
 3522TIP3   OH232056   2.601   0.729   1.036  0.0967 -0.1578 -0.2842
 3522TIP3    H132057   2.637   0.805   1.082 -0.3337 -0.4989  0.6502
 3522TIP3    H232058   2.601   0.754   0.944  1.2197  0.4569 -0.1377
 3523TIP3   OH232059   1.438   0.562   2.197  0.0667  0.1774 -0.5543
 3523TIP3    H132060   1.517   0.607   2.169  0.6178 -1.0001 -0.9544
 3523TIP3    H232061   1.462   0.522   2.281 -0.2318  0.1431 -0.4848
 3524TIP3   OH232062   1.410   1.094   3.057 -0.4514  0.1640  0.4393
 3524TIP3    H132063   1.419   1.169   3.116 -0.6886  1.2171 -0.8258
 3524TIP3    H232064   1.366   1.027   3.110 -0.6433  1.0685  1.4617
 3525TIP3   OH232065   0.756   4.410   2.518 -0.1388 -0.8854 -0.2277
 3525TIP3    H132066   0.669   4.375   2.535 -0.4872 -0.0492 -0.2191
 3525TIP3    H232067   0.815   4.336   2.530 -0.5551 -0.8588  2.5411
 3526TIP3   OH232068   3.811   1.341   1.747 -0.1855  0.2865 -0.2793
 3526TIP3    H132069   3.906   1.337   1.756 -0.1861 -1.0991 -0.7376
 3526TIP3    H232070   3.779   1.360   1.835  0.4357 -0.7849  0.1866
 3527TIP3   OH232071   0.989   3.337   5.968  0.0958 -0.2892 -0.2203
 3527TIP3    H132072   0.989   3.351   6.062  1.1019 -1.4212 -0.0142
 3527TIP3    H232073   1.075   3.298   5.950  0.1329  0.4077 -1.6887
 3528TIP3   OH232074   2.246   4.297   3.020 -0.0716 -0.7021 -0.2313
 3528TIP3    H132075   2.190   4.369   2.992  0.6150  0.2844  0.8190
 3528TIP3    H232076   2.230   4.289   3.114  1.5844 -0.3295  0.1198
 3529TIP3   OH232077   6.428   2.273   2.371 -0.4186  0.2387 -0.3640
 3529TIP3    H132078   6.371   2.349   2.368 -0.2725  0.3676  0.0327
 3529TIP3    H232079   6.376   2.202   2.334 -0.7039  0.4364 -0.3447
 3530TIP3   OH232080   6.046   2.486   3.880 -0.2553 -0.0719 -0.4402
 3530TIP3    H132081   6.099   2.565   3.894 -0.7060  0.3131 -0.8862
 3530TIP3    H232082   6.088   2.419   3.934 -0.4635  0.7245  0.7442
 3531TIP3   OH232083   3.895   1.290  14.753 -0.1622  0.4286 -0.4966
 3531TIP3    H132084   3.865   1.205  14.720 -1.5268  0.6533  0.1046
 3531TIP3    H232085   3.839   1.354  14.710  0.9821  1.0653 -1.0857
 3532TIP3   OH232086   4.683   1.403  15.165 -0.5895  0.1732  0.2903
 3532TIP3    H132087   4.620   1.407  15.093  1.9541 -2.4119 -2.3103
 3532TIP3    H232088   4.757   1.456  15.136  0.7172 -1.3607  0.6549
 3533TIP3   OH232089   0.783   0.842  14.392 -0.9522  0.5541 -0.0089
 3533TIP3    H132090   0.879   0.840  14.392 -0.9518 -1.1250  0.6861
 3533TIP3    H232091   0.760   0.892  14.470 -0.5950 -1.5114  1.4944
 3534TIP3   OH232092   4.252   4.144  15.514  0.0747 -0.4736 -0.3591
 3534TIP3    H132093   4.305   4.156  15.593 -0.5642 -0.0887  0.0263
 3534TIP3    H232094   4.301   4.189  15.445  0.5569 -0.6656 -0.1473
 3535TIP3   OH232095   1.752   1.908  13.664 -0.1324  0.2990  0.6729
 3535TIP3    H132096   1.802   1.877  13.740 -0.4697 -3.0539 -0.3149
 3535TIP3    H232097   1.678   1.847  13.657  0.0514  0.2640 -2.4976
 3536TIP3   OH232098   2.079   4.630  11.990  0.0122 -0.5125  0.4826
 3536TIP3    H132099   2.004   4.626  12.048  0.0312 -2.8616  0.4526
 3536TIP3    H232100   2.107   4.722  11.991 -2.4241  0.2764  0.9964
 3537TIP3   OH232101   4.990   4.581  14.340 -0.0710  0.9534 -0.2926
 3537TIP3    H132102   4.936   4.544  14.410  1.4176 -0.5475  0.1299
 3537TIP3    H232103   4.933   4.583  14.264 -1.0330  0.4120  0.3905
 3538TIP3   OH232104   6.650   2.758  13.122 -0.1182  0.1551  0.3094
 3538TIP3    H132105   6.641   2.673  13.080 -0.0915 -0.9688  2.4366
 3538TIP3    H232106   6.648   2.739  13.216 -0.5677  2.5515  0.8630
 3539TIP3   OH232107   1.154   1.770  15.125 -0.4300 -0.0341  0.2297
 3539TIP3    H132108   1.206   1.790  15.203  2.8495 -0.6030 -1.6384
 3539TIP3    H232109   1.113   1.686  15.145  1.4619 -0.8566  0.9099
 3540TIP3   OH232110   4.718   1.627   3.774 -0.0997 -0.1335  0.6357
 3540TIP3    H132111   4.652   1.559   3.788  1.3149 -2.1776 -1.8158
 3540TIP3    H232112   4.671   1.696   3.725 -0.9150 -0.5724  0.7856
 3541TIP3   OH232113   3.893   0.519   3.233 -0.0695  1.1841 -0.7016
 3541TIP3    H132114   3.942   0.490   3.309 -0.3808 -0.8417 -1.2239
 3541TIP3    H232115   3.947   0.590   3.196  0.2187  2.0152  1.1834
 3542TIP3   OH232116   6.867   3.005  12.681 -0.0099  0.0950 -0.2790
 3542TIP3    H132117   6.835   2.941  12.617  0.1589  0.1640 -0.4317
 3542TIP3    H232118   6.958   2.980  12.698 -0.8782 -1.8420  2.2750
 3543TIP3   OH232119   1.918   1.828  14.563 -0.3980  0.0224  0.4989
 3543TIP3    H132120   1.943   1.820  14.655 -0.2162  2.2953  0.6906
 3543TIP3    H232121   1.827   1.858  14.565 -0.2697  0.4705 -0.0501
 3544TIP3   OH232122   4.309   3.116  15.358  0.0224  0.1931 -0.4926
 3544TIP3    H132123   4.293   3.041  15.301  1.0165  0.2505 -0.8748
 3544TIP3    H232124   4.228   3.167  15.354 -0.6003 -0.7551 -0.3694
 3545TIP3   OH232125   5.431   6.881   4.557 -0.1507  0.0412  0.4381
 3545TIP3    H132126   5.456   6.937   4.631 -0.3816  0.5912  0.1102
 3545TIP3    H232127   5.454   6.793   4.585  0.3592  0.3137  0.9135
 3546TIP3   OH232128   2.390   1.025  14.453 -0.1317 -0.0848  0.2532
 3546TIP3    H132129   2.418   0.986  14.536 -1.3311 -0.0354  0.6990
 3546TIP3    H232130   2.398   0.954  14.390 -0.4545 -0.4974  0.6722
 3547TIP3   OH232131   3.340   6.155  10.127  0.5068  0.0842  0.2887
 3547TIP3    H132132   3.418   6.126  10.080  2.4781  1.8623  2.2766
 3547TIP3    H232133   3.365   6.239  10.166 -2.7315  1.2294  0.2377
 3548TIP3   OH232134   0.627   3.067  12.221  0.0329 -0.5344  0.3603
 3548TIP3    H132135   0.543   3.022  12.208  0.4303 -0.6492 -2.3061
 3548TIP3    H232136   0.692   2.996  12.222  0.2043 -0.3879  1.7312
 3549TIP3   OH232137   4.942   5.277   1.913  0.0797 -0.0857 -0.1655
 3549TIP3    H132138   4.902   5.315   1.834  0.3657 -0.1380 -0.3365
 3549TIP3    H232139   4.988   5.350   1.954  0.2941 -0.1554 -0.2800
 3550TIP3   OH232140   5.051   1.732   4.804  0.0063  0.1172  0.5909
 3550TIP3    H132141   5.142   1.726   4.774 -0.2957  0.3188 -0.3979
 3550TIP3    H232142   5.058   1.764   4.894  0.9746 -1.4045  1.0924
 3551TIP3   OH232143   4.349   3.528   0.930 -0.2544 -0.4679 -0.4820
 3551TIP3    H132144   4.387   3.463   0.872  0.9892 -0.3484  0.1738
 3551TIP3    H232145   4.262   3.493   0.953 -1.4752  0.2111 -3.6010
 3552TIP3   OH232146   1.865   2.908  13.644 -0.2023 -0.5967 -0.0584
 3552TIP3    H132147   1.946   2.858  13.651  1.1144  1.3495 -0.6352
 3552TIP3    H232148   1.798   2.850  13.682  1.7104 -1.5921  2.0464
 3553TIP3   OH232149   4.361   1.965  11.123 -0.6243 -0.1621  0.5365
 3553TIP3    H132150   4.277   1.979  11.079 -0.5697  0.4947  0.6249
 3553TIP3    H232151   4.353   1.878  11.163 -1.8143  0.4538  1.7259
 3554TIP3   OH232152   5.237   4.093   2.358  0.6248 -0.2123  0.5647
 3554TIP3    H132153   5.148   4.119   2.335  0.9174  0.3251  0.0102
 3554TIP3    H232154   5.283   4.175   2.371  1.0290 -0.4905  0.8955
 3555TIP3   OH232155   0.744   3.214  11.358 -0.1321 -0.0648 -0.2338
 3555TIP3    H132156   0.770   3.126  11.385  0.1414  0.0411 -0.1457
 3555TIP3    H232157   0.737   3.263  11.440 -1.1114 -0.2167 -0.2115
 3556TIP3   OH232158   5.594   3.130  13.419 -0.9566  0.2518  0.1755
 3556TIP3    H132159   5.526   3.074  13.456 -0.5253  0.1657  0.8399
 3556TIP3    H232160   5.631   3.080  13.347 -1.0047 -0.0572  0.3668
 3557TIP3   OH232161   6.729   0.077   6.197  0.0595  0.1688 -0.1041
 3557TIP3    H132162   6.819   0.069   6.229  0.9083  0.1839 -2.2948
 3557TIP3    H232163   6.713   0.172   6.196 -0.1482  0.1489  0.6609
 3558TIP3   OH232164   1.883   4.164  10.234  0.3791 -0.2914 -0.6172
 3558TIP3    H132165   1.846   4.224  10.299 -0.2869 -0.8066 -0.5049
 3558TIP3    H232166   1.807   4.131  10.186  0.7024 -1.1934 -0.5394
 3559TIP3   OH232167   3.629   4.146   3.192 -0.4090 -0.4996 -0.2662
 3559TIP3    H132168   3.621   4.139   3.287 -1.0758  0.2651 -0.2511
 3559TIP3    H232169   3.670   4.232   3.178 -1.5490 -0.0084 -0.7044
 3560TIP3   OH232170   1.044   1.735   3.647  0.0674  0.4964 -0.0766
 3560TIP3    H132171   1.055   1.738   3.742  0.8217 -1.6358 -0.0647
 3560TIP3    H232172   1.040   1.827   3.621 -1.1125  1.1325  2.1087
 3561TIP3   OH232173   5.169   0.261  12.009  0.0833  0.8087 -0.5306
 3561TIP3    H132174   5.223   0.242  12.086  0.8675  0.1963 -1.2127
 3561TIP3    H232175   5.099   0.195  12.012  0.0228  0.8848 -0.2596
 3562TIP3   OH232176   1.052   0.976  14.945  0.2780 -0.1122 -0.2289
 3562TIP3    H132177   1.015   0.996  14.859  0.8756  1.2721 -0.1850
 3562TIP3    H232178   1.043   1.057  14.995  2.2100 -0.0829  0.1765
 3563TIP3   OH232179   1.055   0.636  11.257 -0.1545 -0.0087 -0.3631
 3563TIP3    H132180   0.983   0.652  11.318  0.5381 -2.4261  1.2257
 3563TIP3    H232181   1.133   0.634  11.312  0.6379 -1.2632 -1.4753
 3564TIP3   OH232182   5.691   0.700  16.685 -0.3212  0.2666 -0.3259
 3564TIP3    H132183   5.616   0.641  16.675 -0.2319  0.0806  0.0817
 3564TIP3    H232184   5.728   0.678  16.770  1.3169 -0.9722 -1.2870
 3565TIP3   OH232185   5.649   5.302  14.151 -0.1416  0.2372 -0.0369
 3565TIP3    H132186   5.662   5.235  14.083 -2.1563 -0.1467 -0.1052
 3565TIP3    H232187   5.581   5.359  14.115 -0.7695  0.4076  1.3734
 3566TIP3   OH232188   1.835   5.028   0.336 -0.0518  0.0809 -0.2127
 3566TIP3    H132189   1.901   5.009   0.403  0.9786 -0.2178 -1.2859
 3566TIP3    H232190   1.772   5.085   0.380 -0.7245 -2.0109  1.7404
 3567TIP3   OH232191   5.396   6.763  11.165  0.3536  0.2524  0.0905
 3567TIP3    H132192   5.353   6.740  11.083  1.2409  0.6294 -0.4960
 3567TIP3    H232193   5.366   6.851  11.185  2.5407  1.4717 -1.5428
 3568TIP3   OH232194   1.271   3.748   4.090  0.2536 -0.6279 -0.0911
 3568TIP3    H132195   1.179   3.742   4.064  0.3822 -0.3902 -0.6134
 3568TIP3    H232196   1.320   3.713   4.015  0.6418  0.3865 -0.3326
 3569TIP3   OH232197   2.948   3.571   4.633 -0.3655 -0.3081  0.5228
 3569TIP3    H132198   2.945   3.578   4.729 -1.6593 -0.4270  0.5060
 3569TIP3    H232199   2.894   3.495   4.613 -0.8604  0.2533 -0.3526
 3570TIP3   OH232200   4.024   0.548   4.663  0.1554  0.2036  0.5738
 3570TIP3    H132201   3.996   0.568   4.752  1.4313  2.0032  0.6231
 3570TIP3    H232202   4.119   0.539   4.669  0.2047 -0.2022 -0.5307
 3571TIP3   OH232203   4.718   6.141   3.284 -0.4420  0.2518  0.2093
 3571TIP3    H132204   4.704   6.054   3.247  0.2538  0.2928 -0.1603
 3571TIP3    H232205   4.641   6.156   3.341 -1.7482  0.3689 -1.5065
 3572TIP3   OH232206   6.194   6.781  13.256 -0.7828  0.7008  0.1249
 3572TIP3    H132207   6.099   6.791  13.252 -0.8261 -0.0050 -1.6069
 3572TIP3    H232208   6.227   6.849  13.197 -0.3792 -0.5584 -1.1656
 3573TIP3   OH232209   0.245   4.618   2.082 -0.4057  0.2344 -0.0485
 3573TIP3    H132210   0.220   4.525   2.080 -0.7191  0.3275 -0.7245
 3573TIP3    H232211   0.314   4.623   2.148 -0.8971 -0.3532  0.5127
 3574TIP3   OH232212   0.851   0.960   2.742 -0.6721  0.0266  0.4673
 3574TIP3    H132213   0.796   0.882   2.743  0.2611 -0.6894 -0.7600
 3574TIP3    H232214   0.880   0.970   2.833  0.7595 -2.2684  0.3631
 3575TIP3   OH232215   0.591   4.362   0.786  0.0284 -0.5012 -0.1870
 3575TIP3    H132216   0.520   4.346   0.724  0.0424  0.8303 -0.5687
 3575TIP3    H232217   0.547   4.381   0.869 -0.1436  1.6867 -0.7374
 3576TIP3   OH232218   5.919   5.492  13.616 -0.4197  0.3070 -0.0671
 3576TIP3    H132219   5.909   5.476  13.710  0.1949 -0.0927 -0.0628
 3576TIP3    H232220   5.972   5.418  13.585 -1.2733  0.0029 -0.8706
 3577TIP3   OH232221   5.491   2.761  14.558  0.4144  0.7291 -0.2008
 3577TIP3    H132222   5.489   2.854  14.534  1.8879  0.8246 -0.0048
 3577TIP3    H232223   5.485   2.761  14.654 -1.7352  0.4933 -0.2702
 3578TIP3   OH232224   4.833   1.741   4.260  0.2102  0.1943 -0.3448
 3578TIP3    H132225   4.804   1.729   4.351  3.7578 -0.1372  0.9163
 3578TIP3    H232226   4.901   1.676   4.248  2.3542  2.5432 -1.9806
 3579TIP3   OH232227   5.544   1.609   4.216 -0.0962 -0.0038 -0.5502
 3579TIP3    H132228   5.505   1.556   4.285 -1.8993 -2.0897 -2.9949
 3579TIP3    H232229   5.581   1.685   4.262 -0.3752 -1.6956  2.7390
 3580TIP3   OH232230   0.842   3.935   0.465 -0.8219 -0.3377  0.1539
 3580TIP3    H132231   0.922   3.884   0.456 -1.4706 -1.2538 -0.5948
 3580TIP3    H232232   0.821   3.930   0.558 -0.1237 -0.2553  0.3227
 3581TIP3   OH232233   5.247   1.810  14.865  0.0711 -0.4711  0.1552
 3581TIP3    H132234   5.292   1.734  14.828  0.2152  0.4025 -1.5484
 3581TIP3    H232235   5.157   1.801  14.836 -0.0557 -0.3178  0.4946
 3582TIP3   OH232236   2.187   0.313   0.828  0.4835  0.1013 -0.4657
 3582TIP3    H132237   2.194   0.227   0.869  1.3232 -0.0267 -0.8444
 3582TIP3    H232238   2.231   0.303   0.743  1.2606  1.0955 -0.2055
 3583TIP3   OH232239   0.433   4.704   2.332 -0.3131 -0.3278  0.4928
 3583TIP3    H132240   0.374   4.741   2.397  1.3277  0.7647  1.4477
 3583TIP3    H232241   0.489   4.644   2.382  1.0840  0.6614  0.1677
 3584TIP3   OH232242   2.293   4.664   5.033 -0.0599 -0.1121  0.2365
 3584TIP3    H132243   2.210   4.682   4.988  0.5364  1.2565 -0.3665
 3584TIP3    H232244   2.356   4.647   4.963  0.4786  0.2305  0.6309
 3585TIP3   OH232245   3.523   4.113   4.349  0.2109  0.1343  0.4756
 3585TIP3    H132246   3.454   4.064   4.392  0.6994 -0.8701  0.1456
 3585TIP3    H232247   3.529   4.075   4.261  0.6171  0.7647  0.2227
 3586TIP3   OH232248   0.075   0.656   1.301 -0.4218  0.1548 -0.0154
 3586TIP3    H132249   0.153   0.667   1.356 -0.8781 -0.3142  0.7511
 3586TIP3    H232250   0.054   0.744   1.270 -0.0442  0.3963  0.4146
 3587TIP3   OH232251   1.068   4.977   0.838 -0.0313  0.3224  0.5663
 3587TIP3    H132252   1.108   5.043   0.781 -0.0650 -0.7644 -0.7702
 3587TIP3    H232253   1.131   4.965   0.909  0.7120  0.6554 -0.0182
 3588TIP3   OH232254   5.353   2.221  16.751  0.2493  0.6485 -0.4538
 3588TIP3    H132255   5.334   2.287  16.685 -2.2207 -0.9925 -1.5282
 3588TIP3    H232256   5.375   2.271  16.829  0.1498  2.6888 -1.6569
 3589TIP3   OH232257   6.639   3.681   2.462 -0.3020 -0.0166 -0.0847
 3589TIP3    H132258   6.617   3.735   2.538  0.7711 -2.0684  1.7925
 3589TIP3    H232259   6.562   3.626   2.448  0.1176 -0.8114  0.6362
 3590TIP3   OH232260   6.219   4.480   2.486 -0.0119 -0.0140 -0.1712
 3590TIP3    H132261   6.235   4.551   2.547  1.2844 -1.0366  0.7565
 3590TIP3    H232262   6.153   4.425   2.529  1.7359 -1.3629  0.9657
 3591TIP3   OH232263   6.408   3.717  14.008 -0.4929  0.1220 -0.6017
 3591TIP3    H132264   6.434   3.765  13.930 -0.0436 -1.2124 -1.3007
 3591TIP3    H232265   6.319   3.689  13.991 -1.0200  1.2771  0.1127
 3592TIP3   OH232266   6.375   6.729   2.780  0.0289 -0.0949 -0.4543
 3592TIP3    H132267   6.311   6.678   2.829 -1.8025  2.2888 -0.1929
 3592TIP3    H232268   6.392   6.806   2.835  0.4479  1.0320 -2.0685
 3593TIP3   OH232269   0.703   3.964   5.234  0.0027 -0.3895  0.3991
 3593TIP3    H132270   0.697   3.924   5.321 -2.2723  0.9802  0.9430
 3593TIP3    H232271   0.739   4.051   5.251 -2.0504  0.5370  0.2577
 3594TIP3   OH232272   5.683   1.212  16.080  0.4804  0.2021 -0.6822
 3594TIP3    H132273   5.662   1.135  16.132  1.5238  1.1599  1.2442
 3594TIP3    H232274   5.627   1.204  16.002 -0.2536 -1.8863 -0.0140
 3595TIP3   OH232275   5.191   0.628   4.273 -0.2984 -0.0040  0.2371
 3595TIP3    H132276   5.147   0.698   4.320 -0.0317 -0.6410  1.4707
 3595TIP3    H232277   5.122   0.565   4.252 -0.4968  0.4934 -0.6674
 3596TIP3   OH232278   1.941   1.698   5.612  0.4409  0.2713 -0.0205
 3596TIP3    H132279   1.989   1.774   5.645 -0.2757 -0.0195  1.8003
 3596TIP3    H232280   1.895   1.663   5.689 -2.3629  0.2866 -1.5710
 3597TIP3   OH232281   5.174   6.781   4.479 -0.7718  0.1595 -0.2266
 3597TIP3    H132282   5.154   6.709   4.540 -0.6506  2.3983  2.6921
 3597TIP3    H232283   5.268   6.795   4.489 -1.0896  1.8912  0.7623
 3598TIP3   OH232284   5.376   5.768   1.791  0.2306  0.2402  0.6305
 3598TIP3    H132285   5.394   5.770   1.885 -0.9360  0.4801  0.8658
 3598TIP3    H232286   5.463   5.774   1.750  0.6891  1.4235  1.6822
 3599TIP3   OH232287   4.371   5.404  15.141 -0.0881 -0.2880  0.1719
 3599TIP3    H132288   4.343   5.488  15.103  0.7158  0.3530  0.9395
 3599TIP3    H232289   4.290   5.365  15.173 -0.7880 -0.8362 -2.0904
 3600TIP3   OH232290   5.741   6.739   3.738 -0.3535 -0.2915 -0.3367
 3600TIP3    H132291   5.784   6.825   3.739 -1.1049  0.1058  0.7502
 3600TIP3    H232292   5.650   6.759   3.714 -1.1366 -0.4186  2.2604
 3601TIP3   OH232293   1.687   4.457   2.813 -0.0542 -0.5444  0.4479
 3601TIP3    H132294   1.733   4.434   2.733 -1.5916  0.3800 -0.7460
 3601TIP3    H232295   1.614   4.396   2.817  0.2944 -0.9202  1.4424
 3602TIP3   OH232296   3.934   1.513   1.330  0.1977 -0.4330 -0.4489
 3602TIP3    H132297   4.027   1.490   1.336  0.3565  0.4922  1.0385
 3602TIP3    H232298   3.889   1.447   1.383  0.2542  0.4011  0.6605
 3603TIP3   OH232299   2.473   2.038   3.456  0.3779  0.8903  0.0643
 3603TIP3    H132300   2.467   2.008   3.547  0.3069 -0.8923 -0.5047
 3603TIP3    H232301   2.538   2.108   3.459  0.2813  0.9583  1.4999
 3604TIP3   OH232302   3.836   4.102  11.853  0.4272  0.0794  0.0053
 3604TIP3    H132303   3.876   4.167  11.795 -0.5376  0.1971 -0.5558
 3604TIP3    H232304   3.845   4.019  11.806  1.3111 -0.1475  0.5471
 3605TIP3   OH232305   0.178   2.975   1.591  0.3558  0.0836  0.2697
 3605TIP3    H132306   0.262   2.943   1.623  0.8123  0.9458 -0.0306
 3605TIP3    H232307   0.181   3.069   1.606 -1.1899 -0.0324  1.6745
 3606TIP3   OH232308   3.703   6.176  13.111 -0.6775  0.5804  0.2310
 3606TIP3    H132309   3.798   6.180  13.098 -0.7118  0.5552 -0.0247
 3606TIP3    H232310   3.675   6.267  13.104 -0.6653  0.5963  0.3754
 3607TIP3   OH232311   1.913   2.706  11.778  0.1574  0.2516  0.4965
 3607TIP3    H132312   1.913   2.792  11.819  0.0241  0.0289  0.9792
 3607TIP3    H232313   2.004   2.678  11.780  0.5890  1.3073 -1.6971
 3608TIP3   OH232314   3.487   2.701   0.777 -0.5600  0.4187 -0.2251
 3608TIP3    H132315   3.413   2.740   0.732 -0.2856  2.3320  0.8705
 3608TIP3    H232316   3.563   2.749   0.745  0.1017 -0.7522 -0.4893
 3609TIP3   OH232317   5.784   2.156  16.111 -0.1301  0.6779  0.6210
 3609TIP3    H132318   5.740   2.158  16.196  0.9111 -0.3731  1.2027
 3609TIP3    H232319   5.755   2.074  16.071  0.1020  0.7244  0.3554
 3610TIP3   OH232320   4.425   6.058  13.910  0.0600  0.5023 -1.2525
 3610TIP3    H132321   4.363   6.031  13.842  0.4083  0.5655 -1.5988
 3610TIP3    H232322   4.457   5.976  13.948 -2.0736  0.4524  0.6483
 3611TIP3   OH232323   6.233   1.315   6.278 -0.1027  0.1267 -0.0552
 3611TIP3    H132324   6.169   1.259   6.234 -1.9297  1.2293  1.0988
 3611TIP3    H232325   6.213   1.305   6.371  2.4068 -0.6342  0.4955
 3612TIP3   OH232326   2.033   4.281  15.180  0.3757 -0.7301  0.2463
 3612TIP3    H132327   2.119   4.307  15.216  1.0462 -1.0844 -1.0471
 3612TIP3    H232328   2.011   4.201  15.228  0.7243 -0.5948  0.6474
 3613TIP3   OH232329   6.583   2.273   3.867  0.2434 -0.8418 -0.1312
 3613TIP3    H132330   6.614   2.211   3.933 -1.1208 -0.3350  1.0560
 3613TIP3    H232331   6.600   2.230   3.783  1.5678 -1.7234  0.5572
 3614TIP3   OH232332   3.848   1.963   2.312 -0.3986  0.3292  0.1695
 3614TIP3    H132333   3.850   2.010   2.229  1.6127  1.1389  0.6257
 3614TIP3    H232334   3.804   2.023   2.372 -1.5029 -0.0970 -0.1913
 3615TIP3   OH232335   4.912   3.518  15.482 -0.2601 -0.3591 -0.1996
 3615TIP3    H132336   4.858   3.439  15.494  1.4828 -1.4404  0.9747
 3615TIP3    H232337   4.955   3.531  15.566  0.9975  0.7000 -0.9639
 3616TIP3   OH232338   5.607   6.721   1.533 -0.3909 -0.2393  0.3609
 3616TIP3    H132339   5.635   6.664   1.605 -1.8908 -1.5040 -0.0121
 3616TIP3    H232340   5.520   6.689   1.509 -0.5271  1.0803 -1.0711
 3617TIP3   OH232341   6.314   2.343  16.033 -0.4361  0.2228  0.5474
 3617TIP3    H132342   6.339   2.367  16.122  0.0865 -0.9297  0.7167
 3617TIP3    H232343   6.261   2.264  16.043  0.1573 -0.2839 -0.1973
 3618TIP3   OH232344   1.654   1.493  13.603  0.2637  0.5026 -0.2551
 3618TIP3    H132345   1.715   1.422  13.580  0.9535  1.0465 -0.1356
 3618TIP3    H232346   1.707   1.573  13.597 -0.4332  0.9836 -0.1075
 3619TIP3   OH232347   1.065   4.186   6.144  0.4260 -0.4208  0.4143
 3619TIP3    H132348   1.021   4.163   6.226 -0.7746  1.0430  0.2217
 3619TIP3    H232349   1.080   4.280   6.150  1.0807 -0.4375 -0.6995
 3620TIP3   OH232350   4.207   3.361  14.149 -0.1533 -0.4908 -0.2561
 3620TIP3    H132351   4.181   3.423  14.081 -1.5196 -0.0029  0.6576
 3620TIP3    H232352   4.299   3.382  14.167 -0.0426 -0.0326 -1.3076
 3621TIP3   OH232353   1.358   3.634  14.948 -0.1419  0.5772 -0.2491
 3621TIP3    H132354   1.431   3.690  14.921  0.6886  0.1682  1.0264
 3621TIP3    H232355   1.357   3.642  15.044 -2.1146  0.9699 -0.2654
 3622TIP3   OH232356   5.675   2.237  13.672 -0.7747  0.5239 -0.0564
 3622TIP3    H132357   5.683   2.167  13.607 -0.8975  1.6427 -1.3396
 3622TIP3    H232358   5.632   2.197  13.747 -0.4073 -0.8775 -0.5666
 3623TIP3   OH232359   2.806   6.649  12.339 -0.0802  0.0157 -0.6411
 3623TIP3    H132360   2.805   6.554  12.345  0.1320  0.0594  0.1038
 3623TIP3    H232361   2.723   6.671  12.297 -0.9948 -0.3813  0.9099
 3624TIP3   OH232362   6.821   3.555  15.945  0.3292  0.2599  0.0114
 3624TIP3    H132363   6.750   3.513  15.897  0.8132 -2.7324  1.7065
 3624TIP3    H232364   6.885   3.485  15.959  2.4312  2.2146  0.8183
 3625TIP3   OH232365   4.379   2.498  16.479  0.3967  0.6965  0.7072
 3625TIP3    H132366   4.300   2.545  16.454 -1.6363 -2.0976  1.3930
 3625TIP3    H232367   4.412   2.461  16.396 -0.3207  0.0331  0.7121
 3626TIP3   OH232368   0.571   6.133   3.860 -0.1705  0.1378 -0.5527
 3626TIP3    H132369   0.524   6.149   3.942  2.2794  1.2597  0.7431
 3626TIP3    H232370   0.503   6.110   3.797 -2.1377 -0.8559  1.8001
 3627TIP3   OH232371   2.178   6.093  16.142  0.1697 -0.2503  0.4098
 3627TIP3    H132372   2.199   6.087  16.235  2.5440 -1.8203 -0.1438
 3627TIP3    H232373   2.262   6.091  16.098 -0.9333 -0.4133 -1.8394
 3628TIP3   OH232374   6.016   3.364   3.049 -0.1697 -0.5931  0.2726
 3628TIP3    H132375   5.932   3.321   3.062  0.1973 -1.0098  1.4396
 3628TIP3    H232376   6.080   3.293   3.057  0.3915  0.0084  1.3652
 3629TIP3   OH232377   2.578   5.520  11.224 -0.2224 -0.3347 -0.1221
 3629TIP3    H132378   2.563   5.491  11.134 -2.1256  1.1145 -0.3402
 3629TIP3    H232379   2.612   5.443  11.269  1.9437 -0.7966 -2.3164
 3630TIP3   OH232380   1.971   0.907   4.522 -0.0709 -0.0823 -0.2600
 3630TIP3    H132381   1.975   0.930   4.429 -3.9711  2.0064 -0.1035
 3630TIP3    H232382   2.007   0.984   4.567  1.0827 -0.7760  0.0581
 3631TIP3   OH232383   1.715   4.696   2.630 -0.6620 -0.4598  0.0595
 3631TIP3    H132384   1.760   4.674   2.712  0.4341 -0.5508 -0.5541
 3631TIP3    H232385   1.778   4.748   2.580 -1.0490 -0.9893 -1.0217
 3632TIP3   OH232386   0.551   1.097  16.868  0.2768  0.4112  0.3732
 3632TIP3    H132387   0.621   1.107  16.933  1.0863 -2.5257  0.0980
 3632TIP3    H232388   0.476   1.066  16.919  0.9129 -1.8976 -0.0054
 3633TIP3   OH232389   3.599   4.976  13.210  0.9031 -1.0782  0.0965
 3633TIP3    H132390   3.592   4.894  13.260  0.0502 -1.4730 -0.6427
 3633TIP3    H232391   3.509   5.005  13.199  1.2660  1.3926  2.5905
 3634TIP3   OH232392   6.768   5.562  11.328  0.0542 -0.7666  0.6704
 3634TIP3    H132393   6.720   5.641  11.356 -0.6063 -0.1189 -2.0521
 3634TIP3    H232394   6.858   5.591  11.318 -0.1645 -0.3522 -0.1992
 3635TIP3   OH232395   4.401   0.345  12.127 -0.4908  0.4685  0.5612
 3635TIP3    H132396   4.387   0.435  12.097 -2.2964 -0.2506 -0.9776
 3635TIP3    H232397   4.314   0.305  12.123  0.4373 -1.6557  0.1856
 3636TIP3   OH232398   6.454   4.565  13.030  0.0069 -0.4471 -0.2847
 3636TIP3    H132399   6.429   4.474  13.014 -1.3586 -0.2268  0.4835
 3636TIP3    H232400   6.508   4.588  12.955 -0.5238 -1.5605 -1.0385
 3637TIP3   OH232401   1.484   2.978   5.241 -0.0092 -0.0819 -0.4479
 3637TIP3    H132402   1.522   2.895   5.269  0.2575  0.4648  0.8936
 3637TIP3    H232403   1.545   3.045   5.274 -1.2827  0.7389  0.3273
 3638TIP3   OH232404   0.201   4.594  10.958 -0.0472  0.1281  0.4920
 3638TIP3    H132405   0.221   4.594  11.051  0.3664 -0.7966  0.4089
 3638TIP3    H232406   0.157   4.678  10.943 -1.2754 -0.2582  1.7644
 3639TIP3   OH232407   4.118   3.490  10.849 -0.1862  0.0297  0.4729
 3639TIP3    H132408   4.174   3.467  10.775 -0.0362  1.6575  0.0414
 3639TIP3    H232409   4.101   3.407  10.893  2.3418 -0.5830  0.4791
 3640TIP3   OH232410   6.529   5.314  16.919  0.3973 -0.4016  0.3587
 3640TIP3    H132411   6.451   5.367  16.936 -0.1725 -0.3427 -2.0775
 3640TIP3    H232412   6.496   5.224  16.918  0.1027 -0.3148 -1.6211
 3641TIP3   OH232413   2.549   1.549  11.107 -0.6582  0.0886 -0.0836
 3641TIP3    H132414   2.634   1.591  11.094  0.0471 -1.5392 -1.0133
 3641TIP3    H232415   2.510   1.597  11.180  1.7443 -0.1153  1.4488
 3642TIP3   OH232416   6.133   1.491   0.161 -0.4875 -0.0673  0.0246
 3642TIP3    H132417   6.210   1.514   0.109 -1.0166  2.6228  0.2766
 3642TIP3    H232418   6.170   1.459   0.244  0.4863  2.8622  0.8431
 3643TIP3   OH232419   5.190   0.984   3.845  0.0261  0.2387  0.2834
 3643TIP3    H132420   5.134   0.978   3.768  1.4234  0.1815 -0.7408
 3643TIP3    H232421   5.181   0.898   3.888 -0.4957  0.1586  0.0219
 3644TIP3   OH232422   4.167   0.460   4.147 -0.2211  0.0802  0.2320
 3644TIP3    H132423   4.154   0.402   4.071  1.7180  1.6805 -1.4317
 3644TIP3    H232424   4.180   0.400   4.220 -4.4237 -1.5553 -0.1057
 3645TIP3   OH232425   4.034   3.704   4.303 -0.5025 -0.2882  0.4630
 3645TIP3    H132426   4.078   3.719   4.387  1.2008 -1.0801 -0.2328
 3645TIP3    H232427   4.086   3.754   4.240 -1.5643  0.0298 -0.1749
 3646TIP3   OH232428   1.263   0.765   2.270 -0.5281  0.4416  0.6012
 3646TIP3    H132429   1.324   0.696   2.242 -2.3925 -1.1101  0.1561
 3646TIP3    H232430   1.183   0.748   2.220 -2.1324  0.9559  2.8600
 3647TIP3   OH232431   6.532   4.150  15.977 -0.1223 -0.5357 -0.0507
 3647TIP3    H132432   6.449   4.115  16.010 -0.1117 -0.0483  0.5147
 3647TIP3    H232433   6.512   4.239  15.949  0.3435 -0.1597  0.7571
 3648TIP3   OH232434   3.955   1.737   3.149 -0.4799 -0.3402  0.4459
 3648TIP3    H132435   3.898   1.769   3.080  0.5401  1.8043  0.5435
 3648TIP3    H232436   4.031   1.701   3.104 -0.9671 -1.3648  0.3990
 3649TIP3   OH232437   3.204   3.472   3.728  0.5529 -0.7253 -0.1757
 3649TIP3    H132438   3.183   3.513   3.643  2.3390  1.0829  0.1922
 3649TIP3    H232439   3.209   3.379   3.708 -1.1570 -0.5815 -1.5943
 3650TIP3   OH232440   0.804   5.492   5.141  0.0058 -0.2362 -0.2824
 3650TIP3    H132441   0.767   5.476   5.227 -0.7178  1.5505 -0.2253
 3650TIP3    H232442   0.796   5.408   5.095 -1.8615 -0.5593  0.5589
 3651TIP3   OH232443   0.486   4.504  16.443 -0.7609  0.2752  0.0891
 3651TIP3    H132444   0.439   4.467  16.518 -0.7586 -0.9005 -0.4792
 3651TIP3    H232445   0.510   4.429  16.389  1.4874  0.8472  0.1689
 3652TIP3   OH232446   6.173   2.729  11.821  0.1281 -0.1205  0.0102
 3652TIP3    H132447   6.085   2.768  11.825  0.1331 -0.1857  0.7746
 3652TIP3    H232448   6.203   2.750  11.733 -1.4617 -1.8698 -1.0448
 3653TIP3   OH232449   5.139   1.715  11.175 -0.0837  0.6123  0.4408
 3653TIP3    H132450   5.049   1.682  11.170  0.6466 -1.2939 -1.7181
 3653TIP3    H232451   5.176   1.671  11.252 -0.8506  1.0857  1.0970
 3654TIP3   OH232452   5.603   5.748  12.182 -0.1968 -0.0776 -0.2032
 3654TIP3    H132453   5.618   5.655  12.167 -1.0285 -0.7995  2.7766
 3654TIP3    H232454   5.537   5.773  12.118  0.2670 -1.4286 -1.2527
 3655TIP3   OH232455   3.467   3.014  10.710 -0.8477 -0.5081  0.6387
 3655TIP3    H132456   3.408   2.939  10.723  0.0999 -1.7959 -1.7521
 3655TIP3    H232457   3.547   2.989  10.757 -0.1475 -1.5870 -1.0206
 3656TIP3   OH232458   3.946   0.905   6.015 -0.0917  0.0190 -0.1303
 3656TIP3    H132459   3.890   0.978   6.039  1.1852  0.6851  0.9435
 3656TIP3    H232460   3.900   0.828   6.048 -0.7334  0.4650  0.0457
 3657TIP3   OH232461   0.953   6.455   1.903 -0.4869  0.5406  0.2519
 3657TIP3    H132462   0.913   6.513   1.838  1.8268  0.9899 -0.9048
 3657TIP3    H232463   0.974   6.513   1.977  1.1371  1.1022 -0.5955
 3658TIP3   OH232464   1.496   4.298  11.322 -0.8050 -0.0278 -0.2605
 3658TIP3    H132465   1.424   4.319  11.263  1.2500  0.7293 -2.7170
 3658TIP3    H232466   1.554   4.374  11.316  0.1709 -0.5567  1.7174
 3659TIP3   OH232467   1.601   4.516   3.068  0.1808 -0.6210 -0.0462
 3659TIP3    H132468   1.667   4.515   2.999  0.0682 -1.9067 -0.1585
 3659TIP3    H232469   1.649   4.489   3.147  0.1408  0.0714  0.2181
 3660TIP3   OH232470   3.321   4.107   1.970 -0.2241  0.1204 -0.0004
 3660TIP3    H132471   3.238   4.152   1.956 -0.0981 -0.0446 -1.4076
 3660TIP3    H232472   3.388   4.173   1.956 -0.0717  0.6561  2.6384
 3661TIP3   OH232473   0.104   1.314   2.914  0.5702 -0.6784 -0.1161
 3661TIP3    H132474   0.077   1.400   2.946  0.4509 -0.2567 -1.3049
 3661TIP3    H232475   0.037   1.254   2.947  0.2539 -0.2030  0.1146
 3662TIP3   OH232476   6.438   1.383  11.534  0.8037 -0.3536 -0.0879
 3662TIP3    H132477   6.482   1.443  11.594 -0.3158 -0.7689  1.1970
 3662TIP3    H232478   6.347   1.414  11.531  1.2825  1.2832 -3.6898
 3663TIP3   OH232479   3.872   0.578   1.778  0.5526  0.6325 -0.4832
 3663TIP3    H132480   3.839   0.661   1.742 -0.0408  1.5981  2.0539
 3663TIP3    H232481   3.945   0.604   1.834  1.3060 -0.7647 -0.7819
 3664TIP3   OH232482   2.708   5.933   0.672 -0.2838  0.8303 -0.5203
 3664TIP3    H132483   2.730   5.857   0.618 -2.0155  0.4508 -0.7457
 3664TIP3    H232484   2.613   5.931   0.679 -0.1742  0.9579  2.4464
 3665TIP3   OH232485   0.761   5.023  16.677 -0.4053 -0.2368  0.0524
 3665TIP3    H132486   0.697   5.093  16.664 -0.3859  0.1401  1.6767
 3665TIP3    H232487   0.819   5.057  16.746  1.6118 -0.5218 -1.4199
 3666TIP3   OH232488   1.576   3.237  14.527 -0.2174  0.4792 -0.2932
 3666TIP3    H132489   1.605   3.292  14.454  1.6329 -0.3724 -0.2621
 3666TIP3    H232490   1.657   3.210  14.570 -0.9424 -3.1626 -0.9349
 3667TIP3   OH232491   0.066   2.502   5.028 -0.2741  0.3052 -0.0390
 3667TIP3    H132492  -0.007   2.552   4.992 -0.5181 -0.8706 -1.2783
 3667TIP3    H232493   0.026   2.428   5.072  0.1506 -1.1024 -1.9145
 3668TIP3   OH232494   2.987   5.746  13.988 -0.4733 -0.3031 -0.4042
 3668TIP3    H132495   2.971   5.733  14.082 -0.1191 -1.1073 -0.4496
 3668TIP3    H232496   3.067   5.799  13.985  0.0170 -1.0297 -0.2636
 3669TIP3   OH232497   3.204   2.691   3.772 -0.3770 -0.4468  0.2978
 3669TIP3    H132498   3.249   2.776   3.771 -0.3312 -0.4246  1.6831
 3669TIP3    H232499   3.131   2.702   3.712 -1.3020  1.1249  1.6051
 3670TIP3   OH232500   1.578   6.355  11.546  0.2707  0.0006 -0.5200
 3670TIP3    H132501   1.665   6.317  11.557 -0.0678 -1.3993 -2.0813
 3670TIP3    H232502   1.518   6.280  11.556 -0.5787  0.4902 -1.6687
 3671TIP3   OH232503   3.365   6.396   2.284  0.4243 -0.5954  0.3567
 3671TIP3    H132504   3.288   6.392   2.341  1.7791  0.2840  2.3598
 3671TIP3    H232505   3.376   6.306   2.252 -3.2243 -0.2047 -2.6811
 3672TIP3   OH232506   1.176   2.496  15.669  0.3019 -1.1321  0.3561
 3672TIP3    H132507   1.248   2.557  15.683 -0.3902 -0.5225  1.4449
 3672TIP3    H232508   1.167   2.450  15.753 -1.1379 -0.5327  0.5721
 3673TIP3   OH232509   5.075   5.300   2.635 -0.5415  0.1413 -0.4025
 3673TIP3    H132510   5.094   5.333   2.722 -1.2759 -1.3075  0.3487
 3673TIP3    H232511   5.010   5.360   2.599 -2.0764 -0.5652  1.0443
 3674TIP3   OH232512   2.814   2.272   2.284 -0.2087 -0.1290 -0.4545
 3674TIP3    H132513   2.804   2.289   2.378 -0.0431 -1.8382 -0.1018
 3674TIP3    H232514   2.881   2.204   2.279  1.3699  1.4241 -1.9587
 3675TIP3   OH232515   0.457   2.347   0.394 -0.1874 -0.4884  0.2588
 3675TIP3    H132516   0.515   2.375   0.464 -2.1246  0.4456  1.5884
 3675TIP3    H232517   0.430   2.258   0.420  0.9369 -1.1019 -0.5902
 3676TIP3   OH232518   1.014   1.490   1.785  0.2319 -0.0705  0.0095
 3676TIP3    H132519   1.077   1.491   1.712 -0.0178  0.5183 -0.1964
 3676TIP3    H232520   0.936   1.448   1.748 -0.4499  1.6179 -0.5294
 3677TIP3   OH232521   4.725   2.296  10.841  0.3503  0.2676 -0.6414
 3677TIP3    H132522   4.805   2.318  10.889  0.0538  1.8890 -0.8333
 3677TIP3    H232523   4.752   2.228  10.779  0.8445 -1.5663  1.4522
 3678TIP3   OH232524   6.637   3.220   5.488  0.4764  0.1776  0.0096
 3678TIP3    H132525   6.589   3.167   5.424 -1.5615  2.6415 -0.7175
 3678TIP3    H232526   6.612   3.184   5.573 -1.9725  0.6693 -0.3986
 3679TIP3   OH232527   3.687   1.639   4.619 -0.5514 -0.8692 -0.2133
 3679TIP3    H132528   3.767   1.682   4.591 -1.2708 -0.2639 -1.4341
 3679TIP3    H232529   3.619   1.706   4.610 -1.5815 -2.0382 -1.4850
 3680TIP3   OH232530   2.753   4.791  14.578 -0.3975 -0.3808 -0.4679
 3680TIP3    H132531   2.701   4.711  14.569 -0.2293 -0.3768 -1.6262
 3680TIP3    H232532   2.843   4.763  14.563 -0.4917  0.2673 -2.5628
 3681TIP3   OH232533   2.477   4.169   6.313  0.2963 -0.0876 -0.4547
 3681TIP3    H132534   2.568   4.149   6.335 -0.4304 -2.6124  0.5746
 3681TIP3    H232535   2.438   4.084   6.294 -2.3818  0.6768  1.2292
 3682TIP3   OH232536   4.929   6.337   0.212  0.5836 -0.5871 -0.9589
 3682TIP3    H132537   4.849   6.347   0.161  0.9488  0.5783 -1.3521
 3682TIP3    H232538   4.903   6.361   0.302  0.2916 -1.0969 -0.9074
 3683TIP3   OH232539   2.341   1.371  15.940 -0.2088 -0.0218 -0.2719
 3683TIP3    H132540   2.262   1.425  15.940 -0.0768  0.1965  1.0568
 3683TIP3    H232541   2.308   1.281  15.932 -0.6283  0.0407  0.6405
 3684TIP3   OH232542   4.758   0.130   3.264 -0.0893 -0.0060  0.1529
 3684TIP3    H132543   4.770   0.124   3.169 -0.0671 -1.3273  0.2279
 3684TIP3    H232544   4.829   0.187   3.293  0.1446  0.0882 -0.5728
 3685TIP3   OH232545   4.664   5.849  11.082 -0.9728  0.0344  0.1493
 3685TIP3    H132546   4.754   5.847  11.051 -0.4812 -2.3924  1.4645
 3685TIP3    H232547   4.650   5.940  11.110  0.4034  0.8970 -1.7401
 3686TIP3   OH232548   2.919   3.228   0.425  0.0612  0.0563 -0.0723
 3686TIP3    H132549   2.903   3.219   0.519 -0.3644  0.0326 -0.1464
 3686TIP3    H232550   3.005   3.270   0.420 -0.4174  1.0989  0.3374
 3687TIP3   OH232551   3.077   5.727  16.739  0.0910  0.0634  0.0331
 3687TIP3    H132552   3.039   5.806  16.777 -0.8448  0.1180 -0.9880
 3687TIP3    H232553   3.171   5.746  16.733 -0.0430  0.8553  0.3409
 3688TIP3   OH232554   3.575   6.147  11.817 -0.3731  0.7312 -0.1448
 3688TIP3    H132555   3.603   6.059  11.793 -1.3941 -0.2237  1.9223
 3688TIP3    H232556   3.545   6.186  11.734 -0.1382 -0.9315 -1.0567
 3689TIP3   OH232557   3.176   4.671  11.716 -0.2956  0.1593 -0.4321
 3689TIP3    H132558   3.263   4.701  11.693  0.3190 -2.2042 -1.4791
 3689TIP3    H232559   3.143   4.626  11.638 -2.1467  0.3329  0.1795
 3690TIP3   OH232560   3.239   3.428  10.995  0.5712 -0.4645 -0.1430
 3690TIP3    H132561   3.303   3.493  10.968 -0.4768  0.4801 -0.4099
 3690TIP3    H232562   3.238   3.364  10.923  0.9581 -0.3058 -0.2907
 3691TIP3   OH232563   5.918   6.112  12.330 -0.1934 -0.3051  0.1366
 3691TIP3    H132564   5.829   6.146  12.340 -0.0333  0.2790 -0.4057
 3691TIP3    H232565   5.910   6.045  12.262 -0.0855  0.2742 -0.4535
 3692TIP3   OH232566   1.479   2.930  15.235 -0.7753 -0.1623  0.6299
 3692TIP3    H132567   1.449   2.890  15.154  1.0794 -1.2180  0.3992
 3692TIP3    H232568   1.476   2.859  15.299 -0.4386  0.1588  1.0068
 3693TIP3   OH232569   3.809   2.780  15.217 -0.8723 -0.2909 -0.0725
 3693TIP3    H132570   3.799   2.749  15.307 -1.4223 -1.4521 -0.5012
 3693TIP3    H232571   3.894   2.746  15.189 -1.0379 -0.5870 -0.2256
 3694TIP3   OH232572   4.973   4.568   0.517 -0.6249 -0.3330 -0.1384
 3694TIP3    H132573   5.010   4.650   0.548  1.1780 -1.0704 -0.2607
 3694TIP3    H232574   5.001   4.503   0.581 -1.4772 -0.9800 -0.4036
 3695TIP3   OH232575   5.644   5.155  15.792 -0.5359  0.0724  0.2810
 3695TIP3    H132576   5.576   5.217  15.819  0.6796  2.7662 -2.3040
 3695TIP3    H232577   5.724   5.187  15.833 -0.1025 -0.6101 -0.0122
 3696TIP3   OH232578   4.198   3.585   3.134 -0.0196  0.2929 -0.0316
 3696TIP3    H132579   4.241   3.540   3.061 -0.0580 -1.2659  0.8662
 3696TIP3    H232580   4.142   3.650   3.092 -0.3827 -0.8696 -1.4406
 3697TIP3   OH232581   3.848   4.786  14.044 -0.1218 -0.4107  0.0899
 3697TIP3    H132582   3.862   4.880  14.053 -0.4254 -0.4603  1.2412
 3697TIP3    H232583   3.897   4.761  13.965 -2.2383  1.1585 -1.8571
 3698TIP3   OH232584   1.627   1.116   4.331 -0.3180 -0.1256  0.4182
 3698TIP3    H132585   1.599   1.208   4.327 -0.2357 -0.1179 -0.0150
 3698TIP3    H232586   1.546   1.068   4.351 -0.3816  0.0267  0.5370
 3699TIP3   OH232587   2.869   6.153   0.643 -0.2400 -0.3618  0.4157
 3699TIP3    H132588   2.819   6.182   0.567  0.4102 -0.7717 -0.1790
 3699TIP3    H232589   2.822   6.076   0.676 -1.9764  1.2798  2.0029
 3700TIP3   OH232590   5.047   2.955  16.187  0.3746 -0.0163  0.0912
 3700TIP3    H132591   5.050   2.879  16.129 -0.1287  0.1021 -0.0966
 3700TIP3    H232592   4.957   2.956  16.221  0.6178 -0.0013  0.7618
 3701TIP3   OH232593   1.137   3.227   3.441 -0.3417 -0.3088 -0.7565
 3701TIP3    H132594   1.163   3.281   3.366 -1.2578  0.8503 -0.2697
 3701TIP3    H232595   1.169   3.275   3.517  0.4754 -1.4178 -0.3778
 3702TIP3   OH232596   2.006   0.891  12.280  0.1832 -0.1574  0.1609
 3702TIP3    H132597   1.961   0.857  12.202  1.3426  0.6632 -0.9022
 3702TIP3    H232598   2.092   0.847  12.279 -0.1014 -0.7986  1.4869
 3703TIP3   OH232599   6.844   2.169   1.004  0.2063 -0.4407  0.5012
 3703TIP3    H132600   6.893   2.230   0.948 -0.9115  2.3901  2.3787
 3703TIP3    H232601   6.824   2.095   0.947  1.8379  0.8208 -1.8887
 3704TIP3   OH232602   5.393   2.140   2.511 -0.0317 -0.5219  0.4037
 3704TIP3    H132603   5.368   2.209   2.449 -0.7598 -0.5377  0.6739
 3704TIP3    H232604   5.456   2.086   2.463 -0.0530 -0.1228 -0.0779
 3705TIP3   OH232605   6.255   2.598   3.650 -0.2426  0.8679  0.5121
 3705TIP3    H132606   6.169   2.632   3.625 -1.5676 -2.4943 -0.1120
 3705TIP3    H232607   6.283   2.546   3.575  2.3978  1.8155  0.7307
 3706TIP3   OH232608   0.760   3.586  12.221 -0.5368  0.4059  0.1130
 3706TIP3    H132609   0.720   3.500  12.223  1.5086 -0.6057  1.2138
 3706TIP3    H232610   0.783   3.604  12.312  1.6284  0.7768 -0.4473
 3707TIP3   OH232611   0.691   0.291   3.497 -0.8880 -0.0038  0.2484
 3707TIP3    H132612   0.757   0.297   3.566  0.1244 -1.8198 -0.5066
 3707TIP3    H232613   0.699   0.375   3.450  0.1956  0.2169  0.7755
 3708TIP3   OH232614   1.369   6.727  12.927 -0.2067  0.7503 -0.3296
 3708TIP3    H132615   1.455   6.713  12.967  0.3443 -1.5030 -2.1233
 3708TIP3    H232616   1.308   6.727  13.001  0.8633 -2.1943  0.6975
 3709TIP3   OH232617   2.479   2.035  12.517 -0.6813 -0.4014  0.5192
 3709TIP3    H132618   2.394   2.003  12.490 -0.7161  0.6204 -0.6876
 3709TIP3    H232619   2.530   1.957  12.538 -1.1327 -1.1885 -1.1615
 3710TIP3   OH232620   4.867   5.446   3.437  0.0907  0.1929 -0.0028
 3710TIP3    H132621   4.843   5.371   3.491  0.5010  0.8914  1.1998
 3710TIP3    H232622   4.804   5.514   3.461 -0.6238  0.0858 -1.4881
 3711TIP3   OH232623   3.179   1.717  16.105  0.3141 -0.1797 -0.6413
 3711TIP3    H132624   3.113   1.658  16.144 -1.1511  0.6662 -1.7143
 3711TIP3    H232625   3.260   1.695  16.150 -0.3854 -2.2967 -0.2607
 3712TIP3   OH232626   6.444   0.804  10.551 -0.2332  0.1128 -0.5396
 3712TIP3    H132627   6.498   0.805  10.630  0.6462  0.3933 -1.1290
 3712TIP3    H232628   6.430   0.897  10.530 -0.6593  0.0407 -0.5806
 3713TIP3   OH232629   3.061   4.229  16.606  0.4064  0.1045 -0.1588
 3713TIP3    H132630   3.138   4.179  16.577  1.7135  0.6652  2.0798
 3713TIP3    H232631   3.088   4.320  16.601  1.0451  0.2396  3.2638
 3714TIP3   OH232632   2.951   1.541  14.105 -0.0948  0.0288  0.5002
 3714TIP3    H132633   2.939   1.634  14.089 -0.0571  0.0014  0.3128
 3714TIP3    H232634   2.901   1.524  14.185  0.7238  0.4074  1.1032
 3715TIP3   OH232635   5.887   5.024  10.682  0.1649 -0.3765 -0.2011
 3715TIP3    H132636   5.908   4.938  10.645  1.5942 -0.2216  0.2115
 3715TIP3    H232637   5.971   5.063  10.702 -0.3839  1.6306 -1.4663
 3716TIP3   OH232638   5.514   2.586  15.875  0.1663 -0.3185 -0.3700
 3716TIP3    H132639   5.576   2.657  15.891  1.3638 -1.8035  2.3502
 3716TIP3    H232640   5.565   2.518  15.832 -0.2281 -0.5923 -0.4131
 3717TIP3   OH232641   6.006   4.629   5.049  0.2115  0.4164 -0.5057
 3717TIP3    H132642   6.029   4.713   5.010  3.2512 -1.0728 -2.2661
 3717TIP3    H232643   6.008   4.644   5.144 -1.3682  2.7138 -0.7652
 3718TIP3   OH232644   0.221   3.751   4.636  0.4847  0.0567 -0.2823
 3718TIP3    H132645   0.277   3.747   4.558  0.6817  0.5767 -0.1741
 3718TIP3    H232646   0.281   3.770   4.708  0.2399  0.0982 -0.0860
 3719TIP3   OH232647   3.489   6.057   3.835 -0.4783 -0.5136 -0.4548
 3719TIP3    H132648   3.458   6.073   3.746  0.3105  1.4188 -0.4197
 3719TIP3    H232649   3.558   6.122   3.849 -0.4119 -0.9405  1.4802
 3720TIP3   OH232650   4.715   4.430   3.647 -0.3758 -0.2973 -0.5741
 3720TIP3    H132651   4.715   4.463   3.737 -0.2821 -1.1972 -0.2372
 3720TIP3    H232652   4.807   4.435   3.619 -0.0054 -2.2137  0.2146
 3721TIP3   OH232653   5.501   3.340   2.030 -0.3782 -0.4173  0.1713
 3721TIP3    H132654   5.506   3.267   1.969 -0.5861  0.5243 -0.9969
 3721TIP3    H232655   5.584   3.337   2.077 -0.0807 -0.9649 -0.3727
 3722TIP3   OH232656   2.199   6.444  11.215  0.5254  0.1705 -0.4053
 3722TIP3    H132657   2.217   6.537  11.225  1.3475 -0.0411  0.2377
 3722TIP3    H232658   2.266   6.413  11.154  0.8155 -0.1605  0.0735
 3723TIP3   OH232659   5.832   2.828  14.102 -0.5512  0.1270 -0.3083
 3723TIP3    H132660   5.785   2.803  14.181 -0.9051  1.0493 -0.2185
 3723TIP3    H232661   5.776   2.893  14.060  0.5604  1.1224 -0.2807
 3724TIP3   OH232662   1.810   0.897  13.391 -0.0361  0.5455  0.1719
 3724TIP3    H132663   1.863   0.887  13.312  0.9040 -2.7212  1.0739
 3724TIP3    H232664   1.720   0.890  13.361  0.2756  0.1295 -0.6883
 3725TIP3   OH232665   1.860   5.930  13.218  0.2543 -0.1880 -0.4845
 3725TIP3    H132666   1.914   5.863  13.259 -0.1274 -1.1252 -1.4601
 3725TIP3    H232667   1.917   5.969  13.151  0.9056  1.3986  0.9137
 3726TIP3   OH232668   0.672   5.092   3.147 -0.0914  0.2099 -0.1659
 3726TIP3    H132669   0.604   5.041   3.192  0.6538 -0.3867  0.3308
 3726TIP3    H232670   0.751   5.077   3.200  0.5897  0.2910 -1.1308
 3727TIP3   OH232671   0.080   6.556   1.421  0.5324  0.5032 -0.3543
 3727TIP3    H132672  -0.008   6.589   1.401  0.1712 -0.4995 -0.4843
 3727TIP3    H232673   0.065   6.472   1.465  1.4183 -0.6334 -2.1010
 3728TIP3   OH232674   0.251   3.060  15.884 -0.0572  0.6098 -0.3098
 3728TIP3    H132675   0.289   3.114  15.814  0.3871 -0.7645 -1.1672
 3728TIP3    H232676   0.304   3.081  15.961  0.5239  0.9411 -0.7851
 3729TIP3   OH232677   3.382   3.579  15.911 -0.0500  0.7765 -0.1973
 3729TIP3    H132678   3.410   3.656  15.961  1.6025 -0.1711  0.4309
 3729TIP3    H232679   3.461   3.551  15.865 -0.7706 -0.2153 -0.8656
 3730TIP3   OH232680   3.337   2.186   1.895 -0.8803  0.5776 -0.4177
 3730TIP3    H132681   3.377   2.218   1.815 -1.5089  1.4736 -0.3873
 3730TIP3    H232682   3.408   2.144   1.942  0.0012  1.9698 -0.4476
 3731TIP3   OH232683   5.885   4.054   2.788  0.1714  0.1300 -0.2566
 3731TIP3    H132684   5.827   4.131   2.787  0.8295  0.6805 -2.6000
 3731TIP3    H232685   5.912   4.044   2.697  2.6987 -0.9224  0.5336
 3732TIP3   OH232686   1.969   0.650  15.345  0.1800 -0.0488 -0.2786
 3732TIP3    H132687   2.019   0.730  15.331  0.3661 -0.4905 -2.4708
 3732TIP3    H232688   2.011   0.585  15.290  0.8125 -2.0747  2.3965
 3733TIP3   OH232689   3.204   1.626   2.962  0.2668 -0.5516 -0.3050
 3733TIP3    H132690   3.273   1.564   2.990  1.4009  0.9407  0.3347
 3733TIP3    H232691   3.216   1.702   3.018 -0.7923  0.4611 -1.3984
 3734TIP3   OH232692   1.381   3.791  12.664 -0.2945 -0.2180 -0.2908
 3734TIP3    H132693   1.391   3.785  12.759  1.4657  0.7219 -0.3615
 3734TIP3    H232694   1.369   3.701  12.635 -0.4546 -0.5578  0.7748
 3735TIP3   OH232695   5.551   6.353  11.017 -0.0523 -0.1852  0.2765
 3735TIP3    H132696   5.562   6.307  10.934 -0.3660  1.3255 -0.6531
 3735TIP3    H232697   5.489   6.423  10.997 -2.1473 -1.2750  2.4064
 3736TIP3   OH232698   3.748   1.045  10.596  0.2989 -0.4604 -0.5869
 3736TIP3    H132699   3.825   1.101  10.611 -0.9680  1.0674  0.6626
 3736TIP3    H232700   3.689   1.100  10.545 -0.0057 -1.6023 -1.4943
 3737TIP3   OH232701   1.962   2.424   1.139  0.1649 -0.2075 -0.7933
 3737TIP3    H132702   2.042   2.456   1.098  0.0049  0.0307 -0.9180
 3737TIP3    H232703   1.919   2.371   1.072 -1.3140  2.1202 -1.8072
 3738TIP3   OH232704   4.713   3.512   0.971  0.1481  0.0248  0.3383
 3738TIP3    H132705   4.732   3.430   1.017 -1.3608 -0.6780 -0.2276
 3738TIP3    H232706   4.680   3.485   0.886 -3.3028  1.0294  1.1860
 3739TIP3   OH232707   4.424   6.422  10.776  0.5368 -0.2506  0.0211
 3739TIP3    H132708   4.384   6.473  10.706  1.0969  1.1759  0.7096
 3739TIP3    H232709   4.509   6.396  10.742 -0.0173 -1.3557 -0.5866
 3740TIP3   OH232710   4.417   3.355   0.738 -0.1497  0.2257  0.0357
 3740TIP3    H132711   4.418   3.335   0.645 -1.1584 -1.5307  0.3530
 3740TIP3    H232712   4.349   3.298   0.774 -0.9266  2.0224  1.6134
 3741TIP3   OH232713   1.489   2.838  12.232 -0.5681  0.0066 -0.3422
 3741TIP3    H132714   1.467   2.859  12.141  0.7039 -0.4461 -0.7687
 3741TIP3    H232715   1.560   2.898  12.255  0.0765 -0.8225 -0.1185
 3742TIP3   OH232716   4.434   6.157   5.496 -0.2715  0.8021  0.0651
 3742TIP3    H132717   4.446   6.073   5.452  0.7673  0.8293  0.2731
 3742TIP3    H232718   4.460   6.222   5.430 -1.1705  0.9773 -0.1297
 3743TIP3   OH232719   6.633   0.029  16.064 -0.4192 -0.1759  0.1716
 3743TIP3    H132720   6.628   0.077  15.981  0.2886  1.5811  1.0892
 3743TIP3    H232721   6.695  -0.042  16.047 -0.7348 -0.2102 -0.9579
 3744TIP3   OH232722   2.385   4.332   4.732 -0.8115  0.7745  0.2362
 3744TIP3    H132723   2.409   4.242   4.755 -1.7841  0.5638  0.4683
 3744TIP3    H232724   2.297   4.343   4.769 -1.3082  1.3326 -1.0806
 3745TIP3   OH232725   3.269   5.102  11.125 -0.1989  0.1053  0.1139
 3745TIP3    H132726   3.265   5.133  11.034 -1.0443  0.1617  0.1573
 3745TIP3    H232727   3.177   5.083  11.148 -0.3227  2.3146  1.7201
 3746TIP3   OH232728   4.126   2.184  12.886  0.0439 -0.3324 -0.0512
 3746TIP3    H132729   4.038   2.206  12.914  0.8067  2.3217  0.5002
 3746TIP3    H232730   4.138   2.231  12.803  0.7057 -1.2379 -0.4913
 3747TIP3   OH232731   2.109   1.540   4.387 -0.2181 -0.9213 -0.8305
 3747TIP3    H132732   2.115   1.533   4.482 -4.0104 -1.2768 -0.4633
 3747TIP3    H232733   2.108   1.449   4.356 -1.4727 -0.8875 -0.9255
 3748TIP3   OH232734   0.874   4.962   3.308 -0.1686 -0.4794 -0.3516
 3748TIP3    H132735   0.945   4.907   3.274  0.1072  0.2852 -1.0368
 3748TIP3    H232736   0.856   4.926   3.395 -0.2815 -1.9224 -0.9383
 3749TIP3   OH232737   2.325   1.989  13.701  0.3171  0.1703  0.4777
 3749TIP3    H132738   2.357   1.966  13.788  0.6677 -0.5362  0.1690
 3749TIP3    H232739   2.367   1.926  13.642 -2.0012 -1.1381  0.1033
 3750TIP3   OH232740   3.519   1.612   6.194 -0.4339  0.3801 -0.1595
 3750TIP3    H132741   3.603   1.573   6.216  0.1104  0.4230 -1.9862
 3750TIP3    H232742   3.504   1.588   6.102 -2.1251  0.8829 -0.0543
 3751TIP3   OH232743   3.543   0.283  16.398 -0.2798  0.1141 -0.3109
 3751TIP3    H132744   3.498   0.324  16.324 -0.7198  0.6001  0.2205
 3751TIP3    H232745   3.500   0.319  16.475  0.1521 -0.4198  0.1848
 3752TIP3   OH232746   3.996   2.549  16.817  0.8414 -0.0279 -0.2910
 3752TIP3    H132747   4.091   2.539  16.822  0.9177  0.5137 -0.5318
 3752TIP3    H232748   3.969   2.489  16.748  0.8963 -0.8120  0.3511
 3753TIP3   OH232749   6.504   4.135  13.168 -0.0596 -0.3395  0.5520
 3753TIP3    H132750   6.479   4.191  13.242  1.2301  0.4374  0.4351
 3753TIP3    H232751   6.536   4.196  13.102  2.1726 -1.2350  0.7313
 3754TIP3   OH232752   5.675   1.784   0.639 -0.1611 -0.0799  0.4915
 3754TIP3    H132753   5.709   1.828   0.561  0.9080  1.0279  1.5338
 3754TIP3    H232754   5.592   1.745   0.610 -0.1839  0.9697 -0.9881
 3755TIP3   OH232755   1.460   4.712  10.879 -0.3021  0.4232  0.4568
 3755TIP3    H132756   1.473   4.617  10.887  2.0865  0.4999 -1.4715
 3755TIP3    H232757   1.548   4.747  10.869 -1.3105  2.4869 -2.1660
 3756TIP3   OH232758   5.792   1.541  15.877  0.7787  0.3150  0.8201
 3756TIP3    H132759   5.840   1.458  15.888  1.6103  0.5932 -0.4566
 3756TIP3    H232760   5.798   1.559  15.783 -0.9042  0.9451  0.8096
 3757TIP3   OH232761   5.509   4.177  11.986  0.1174  0.5030 -0.3242
 3757TIP3    H132762   5.506   4.215  11.899 -0.0412  2.1046  0.3515
 3757TIP3    H232763   5.584   4.219  12.028  0.7433 -0.9063  0.0427
 3758TIP3   OH232764   0.187   4.448  13.666 -0.2106  0.2572  0.5112
 3758TIP3    H132765   0.109   4.399  13.691 -0.2751  1.0393  1.9869
 3758TIP3    H232766   0.154   4.517  13.608 -0.1429 -1.2400 -1.4176
 3759TIP3   OH232767   6.168   0.845   3.559  0.2178  0.3332 -0.6804
 3759TIP3    H132768   6.086   0.796   3.560 -0.4627  1.2638  2.5171
 3759TIP3    H232769   6.178   0.875   3.469 -1.2633 -2.4069 -1.8846
 3760TIP3   OH232770   5.428   6.009   0.130  0.4172 -0.2816 -0.4376
 3760TIP3    H132771   5.410   6.022   0.037 -0.8652 -0.1494 -0.1897
 3760TIP3    H232772   5.354   5.956   0.161  1.1722 -0.8923  0.3710
 3761TIP3   OH232773   1.289   0.308  13.677  0.1901 -0.5125  0.2126
 3761TIP3    H132774   1.266   0.394  13.713 -0.1055 -0.1158 -0.8840
 3761TIP3    H232775   1.205   0.263  13.666 -0.2365  0.8493 -3.5763
 3762TIP3   OH232776   2.899   2.517  14.490  0.1050 -0.2456 -0.3020
 3762TIP3    H132777   2.883   2.466  14.410  0.1124  0.4670 -0.7643
 3762TIP3    H232778   2.817   2.563  14.506  0.2525 -0.0338 -0.1520
 3763TIP3   OH232779   6.603   2.073  15.118  0.7351  0.0914  0.0437
 3763TIP3    H132780   6.634   1.985  15.097  1.1284 -0.0223  1.0318
 3763TIP3    H232781   6.511   2.061  15.142  0.6177  0.0457 -0.4203
 3764TIP3   OH232782   1.194   3.397  14.979  0.4840 -0.0213 -0.0332
 3764TIP3    H132783   1.260   3.328  14.978  0.6205  0.0506  1.6602
 3764TIP3    H232784   1.244   3.478  14.970  0.5029 -0.0385 -0.0843
 3765TIP3   OH232785   3.822   1.048   4.204  0.3339 -0.1933 -0.4746
 3765TIP3    H132786   3.733   1.064   4.170  0.2492  0.9707  0.2347
 3765TIP3    H232787   3.813   1.059   4.298  1.5258  1.5193 -0.5143
 3766TIP3   OH232788   1.597   1.971   4.078  0.0655 -0.0963  0.4381
 3766TIP3    H132789   1.505   1.985   4.057  0.2847 -0.3102 -0.7668
 3766TIP3    H232790   1.614   2.029   4.152 -0.4440  1.8189 -0.8471
 3767TIP3   OH232791   0.963   6.003   5.028  0.7996 -0.3637  0.2400
 3767TIP3    H132792   0.934   6.076   5.082 -2.8400 -1.0066 -0.5812
 3767TIP3    H232793   0.970   6.039   4.940  1.1990 -0.5376  0.1972
 3768TIP3   OH232794   5.658   5.802   1.683  0.1760 -0.2322 -0.6150
 3768TIP3    H132795   5.658   5.717   1.638  2.1008  0.8061 -2.7720
 3768TIP3    H232796   5.678   5.866   1.614 -1.4346  2.0630  0.8884
 3769TIP3   OH232797   4.823   0.186   6.507 -0.6544  0.2616 -0.4148
 3769TIP3    H132798   4.758   0.257   6.511  0.6153  1.5279 -1.1455
 3769TIP3    H232799   4.820   0.157   6.416  1.6157  2.1808 -1.1880
 3770TIP3   OH232800   3.421   6.836  12.946  0.0767  0.1765  0.0135
 3770TIP3    H132801   3.327   6.826  12.929 -0.3949  0.2480  2.2421
 3770TIP3    H232802   3.436   6.931  12.942  0.1245  0.1427 -0.6488
 3771TIP3   OH232803   2.393   2.319  13.245  0.1828 -0.9937 -0.1923
 3771TIP3    H132804   2.387   2.294  13.337  0.2659 -0.2614  0.0167
 3771TIP3    H232805   2.483   2.349  13.234 -0.6251  1.8641  0.2683
 3772TIP3   OH232806   2.463   5.836  13.686  0.6847 -0.6733 -0.0133
 3772TIP3    H132807   2.459   5.767  13.620 -0.8797 -1.2996  0.6818
 3772TIP3    H232808   2.509   5.796  13.760  1.8374 -0.1928 -0.4547
 3773TIP3   OH232809   5.188   1.743   4.321 -0.2379 -0.3682 -0.1566
 3773TIP3    H132810   5.252   1.785   4.378 -0.1787 -0.4497 -0.1626
 3773TIP3    H232811   5.161   1.664   4.368  0.0308 -0.5897 -0.3696
 3774TIP3   OH232812   6.292   1.218   5.615  0.6118 -0.0559  0.0873
 3774TIP3    H132813   6.314   1.248   5.526  0.9165 -0.9193 -0.1365
 3774TIP3    H232814   6.208   1.259   5.634  0.4820  0.0336 -0.6565
 3775TIP3   OH232815   4.410   5.281  12.430 -0.5966 -0.2394  0.4851
 3775TIP3    H132816   4.469   5.339  12.478 -0.0803 -1.3515  1.2636
 3775TIP3    H232817   4.388   5.328  12.350 -0.3785  1.0992  1.1925
 3776TIP3   OH232818   4.629   4.900  12.278 -0.0702  0.1732 -0.2275
 3776TIP3    H132819   4.691   4.919  12.207  2.4855 -2.0185  1.2094
 3776TIP3    H232820   4.551   4.868  12.233  0.4887  1.2692 -2.1020
 3777TIP3   OH232821   4.121   5.788  13.600  0.3810  0.0886 -0.0318
 3777TIP3    H132822   4.061   5.755  13.533  0.0671 -0.2540  0.4122
 3777TIP3    H232823   4.089   5.875  13.621  0.0082 -0.1118  0.2369
 3778TIP3   OH232824   1.840   5.846   5.683 -0.1168 -0.0509  0.6559
 3778TIP3    H132825   1.913   5.788   5.702  0.6573  1.0757  1.2430
 3778TIP3    H232826   1.818   5.828   5.591  1.8700  0.6014 -0.0082
 3779TIP3   OH232827   2.691   0.674   2.271 -0.3054 -0.1481  0.4834
 3779TIP3    H132828   2.661   0.688   2.361 -0.2366 -2.4639  0.9236
 3779TIP3    H232829   2.641   0.738   2.219 -0.2834  1.2854  2.1349
 3780TIP3   OH232830   2.184   2.421  11.465  0.2033 -0.2676  0.1606
 3780TIP3    H132831   2.276   2.422  11.439  0.0486 -0.1324 -0.3993
 3780TIP3    H232832   2.136   2.422  11.382 -0.3247  1.4366  0.4490
 3781TIP3   OH232833   1.013   6.299   0.101 -0.0352  0.4086  0.8194
 3781TIP3    H132834   0.998   6.375   0.157 -0.1391  0.3641  0.8517
 3781TIP3    H232835   1.108   6.284   0.105  0.2070  1.4417 -0.3598
 3782TIP3   OH232836   5.418   1.026  10.838  0.0570 -0.2607 -0.2142
 3782TIP3    H132837   5.507   0.995  10.820  0.0042 -0.6493  0.1777
 3782TIP3    H232838   5.361   0.959  10.800 -0.0563 -1.1418  1.4375
 3783TIP3   OH232839   0.715   5.073  14.032 -0.7988  0.0646 -0.5161
 3783TIP3    H132840   0.770   5.028  14.096 -1.8017 -1.6771 -0.8233
 3783TIP3    H232841   0.631   5.084  14.077 -1.2666 -0.4577 -1.2523
 3784TIP3   OH232842   0.343   1.022   0.060  0.7547  0.4107  0.0162
 3784TIP3    H132843   0.268   0.971   0.093 -0.4939  0.6339 -2.2326
 3784TIP3    H232844   0.384   1.059   0.138 -0.8332 -0.6228  1.4049
 3785TIP3   OH232845   1.876   3.826   0.180  0.0715  0.0364  0.6451
 3785TIP3    H132846   1.787   3.797   0.161 -0.7715  0.3668  3.6832
 3785TIP3    H232847   1.901   3.878   0.103 -2.6516  0.6324  0.0538
 3786TIP3   OH232848   0.642   4.387   4.587  0.6021 -0.1741  0.2638
 3786TIP3    H132849   0.606   4.447   4.652  0.2217 -0.2970  0.1701
 3786TIP3    H232850   0.700   4.441   4.533  1.0002 -0.0967  0.7720
 3787TIP3   OH232851   3.105   6.622   2.369 -0.0808  0.4440 -0.0639
 3787TIP3    H132852   3.118   6.531   2.397  1.1232  1.0230  1.4424
 3787TIP3    H232853   3.091   6.616   2.274  1.2746 -1.2189 -0.2216
 3788TIP3   OH232854   4.390   2.407  16.730 -0.2154  0.1663 -0.3503
 3788TIP3    H132855   4.355   2.321  16.710 -1.4068  0.6844 -0.5797
 3788TIP3    H232856   4.398   2.451  16.646 -0.1368  0.4653 -0.1906
 3789TIP3   OH232857   1.259   3.617   3.033  0.6786  0.4677 -0.2766
 3789TIP3    H132858   1.298   3.684   3.090  0.5886 -0.0785  0.4439
 3789TIP3    H232859   1.331   3.586   2.979  1.4506 -1.0406  1.5220
 3790TIP3   OH232860   6.254   5.287   1.197  0.1918  0.1137  0.8492
 3790TIP3    H132861   6.237   5.203   1.239  1.5503 -1.0176 -0.7170
 3790TIP3    H232862   6.329   5.323   1.244 -1.6642  1.5689  2.9212
 3791TIP3   OH232863   3.201   5.655   3.593  0.0160 -0.2331  0.0426
 3791TIP3    H132864   3.170   5.683   3.680 -4.1342 -1.8135 -0.7235
 3791TIP3    H232865   3.246   5.573   3.610 -0.3198 -0.2824  0.7736
 3792TIP3   OH232866   1.853   0.131  16.948 -0.5946 -0.6984  0.0941
 3792TIP3    H132867   1.856   0.197  17.017 -1.3463 -1.9497  1.3774
 3792TIP3    H232868   1.923   0.069  16.971 -0.3541 -0.7357 -0.7008
 3793TIP3   OH232869   1.102   2.155   1.873 -0.0956  0.1982  0.4517
 3793TIP3    H132870   1.015   2.117   1.889  1.3588 -3.4490  0.6638
 3793TIP3    H232871   1.125   2.126   1.785  1.1473  0.5796  0.6288
 3794TIP3   OH232872   3.914   6.567  10.218 -0.5202  0.1492  0.3850
 3794TIP3    H132873   3.962   6.586  10.137 -2.0130  0.3010 -0.5011
 3794TIP3    H232874   3.970   6.601  10.288  1.1345 -0.6101 -0.5033
 3795TIP3   OH232875   4.907   6.223  13.202 -0.6315 -0.0854 -0.2937
 3795TIP3    H132876   4.881   6.295  13.144 -1.1361 -0.5897 -0.7072
 3795TIP3    H232877   4.978   6.180  13.154  0.0782  0.4806  0.2234
 3796TIP3   OH232878   5.522   4.896   2.728 -0.0511  0.1677 -0.0695
 3796TIP3    H132879   5.514   4.808   2.692 -0.4586 -0.7424  2.0719
 3796TIP3    H232880   5.433   4.920   2.754  0.0193  1.3133 -0.8330
 3797TIP3   OH232881   5.844   6.201  14.151  0.4960 -0.0392 -0.1347
 3797TIP3    H132882   5.924   6.170  14.193  1.0054 -0.6296 -1.4621
 3797TIP3    H232883   5.843   6.156  14.066 -0.5498  0.9831 -0.6898
 3798TIP3   OH232884   1.443   5.153   1.930 -0.2363 -0.5970 -0.4269
 3798TIP3    H132885   1.439   5.088   2.000 -1.2514  0.9616  1.0468
 3798TIP3    H232886   1.392   5.227   1.963  0.2772  0.6836 -2.3241
 3799TIP3   OH232887   5.186   2.852  12.365  0.1000  0.1952  0.0651
 3799TIP3    H132888   5.133   2.910  12.311  0.5717  0.9636  0.4051
 3799TIP3    H232889   5.276   2.885  12.355  0.6279 -1.4317 -0.9545
 3800TIP3   OH232890   0.898   4.892  14.163 -0.0068 -0.7734 -0.3060
 3800TIP3    H132891   0.944   4.814  14.132 -1.2533 -1.1420 -1.3138
 3800TIP3    H232892   0.812   4.861  14.189  0.2748 -0.0948  1.5890
 3801TIP3   OH232893   5.477   1.856  11.940  0.7883  0.4117 -0.2871
 3801TIP3    H132894   5.399   1.821  11.983  0.3006  0.6207 -0.9900
 3801TIP3    H232895   5.447   1.936  11.897  1.7231  1.2955  0.6549
 3802TIP3   OH232896   3.977   3.429   0.239 -0.4427 -0.3936  0.7485
 3802TIP3    H132897   4.070   3.416   0.253 -0.1473 -0.0072 -0.7164
 3802TIP3    H232898   3.942   3.450   0.326  0.6612 -1.4306  1.4668
 3803TIP3   OH232899   3.146   1.235  12.206  0.1775 -0.1274 -0.1675
 3803TIP3    H132900   3.151   1.142  12.228  0.7658 -0.0551  0.0269
 3803TIP3    H232901   3.235   1.267  12.220 -0.5120  0.9719  1.9905
 3804TIP3   OH232902   5.895   0.788   5.371 -1.0341  0.1158 -0.3621
 3804TIP3    H132903   5.885   0.710   5.425 -1.4496  0.4480  0.0428
 3804TIP3    H232904   5.839   0.772   5.295 -1.1154  0.0200 -0.2809
 3805TIP3   OH232905   1.978   5.592  15.968 -0.5705 -0.3662 -0.2053
 3805TIP3    H132906   1.992   5.517  16.026  0.4130 -0.3973 -0.4671
 3805TIP3    H232907   2.003   5.668  16.021 -2.2727 -0.1216  0.3151
 3806TIP3   OH232908   0.365   5.481   0.052 -0.2223  0.1239  0.4727
 3806TIP3    H132909   0.385   5.423  -0.020 -0.7324  0.8077 -0.2342
 3806TIP3    H232910   0.292   5.535   0.021 -0.8165  0.0719  1.6878
 3807TIP3   OH232911   6.294   5.697  14.233 -0.1849 -0.2786 -0.5419
 3807TIP3    H132912   6.226   5.649  14.280  0.0981 -0.0793  0.0876
 3807TIP3    H232913   6.255   5.783  14.215  0.1260  0.0850  0.4371
 3808TIP3   OH232914   1.046   4.435  13.798  0.6326 -0.1176 -0.5209
 3808TIP3    H132915   1.065   4.341  13.787 -0.5160 -0.3521 -0.6197
 3808TIP3    H232916   0.995   4.458  13.720 -0.4418  0.2010  0.2585
 3809TIP3   OH232917   1.942   6.503   3.594  0.0753  0.4152  0.7886
 3809TIP3    H132918   1.863   6.541   3.632  0.1796  0.4248  0.9963
 3809TIP3    H232919   2.013   6.557   3.627  0.4184 -1.0135  2.5397
 3810TIP3   OH232920   4.465   5.021   2.629  0.6154 -0.4161 -0.7006
 3810TIP3    H132921   4.536   5.075   2.594  0.6460  0.4733  0.6674
 3810TIP3    H232922   4.388   5.049   2.579  0.4861  1.4822  0.4367
 3811TIP3   OH232923   3.727   5.502   3.292 -0.0533  0.1289 -0.5946
 3811TIP3    H132924   3.781   5.581   3.288  0.1674 -0.0485 -1.1809
 3811TIP3    H232925   3.701   5.495   3.384 -0.6885  1.2906 -0.6725
 3812TIP3   OH232926   1.374   1.877   0.721  0.2437 -0.5215 -0.3061
 3812TIP3    H132927   1.461   1.864   0.684  0.3676 -0.7183  0.0476
 3812TIP3    H232928   1.313   1.853   0.651  0.4635  0.8578 -1.0015
 3813TIP3   OH232929   2.737   0.326  13.294  0.5054  0.3139 -0.0197
 3813TIP3    H132930   2.781   0.256  13.343  0.1651 -0.6168 -1.0236
 3813TIP3    H232931   2.653   0.337  13.339  0.6696  0.2727  0.3027
 3814TIP3   OH232932   5.347   5.919  14.359 -0.3521  0.1505 -0.1264
 3814TIP3    H132933   5.434   5.907  14.323  0.0130 -0.5783  0.9355
 3814TIP3    H232934   5.287   5.898  14.287  0.3458 -0.7507 -0.4641
 3815TIP3   OH232935   6.667   5.671  10.474 -0.0346  0.1625  0.3179
 3815TIP3    H132936   6.615   5.751  10.482 -1.1071 -0.3549 -1.1037
 3815TIP3    H232937   6.604   5.602  10.455  0.9152 -0.9774  1.1087
 3816TIP3   OH232938   2.929   3.648  14.218 -0.0482  0.7820  0.3906
 3816TIP3    H132939   2.906   3.557  14.237  0.3302  0.6738  0.3407
 3816TIP3    H232940   2.869   3.675  14.149  0.6613  0.1717 -0.4883
 3817TIP3   OH232941   1.330   2.994   2.825 -0.0941 -0.2054 -0.2153
 3817TIP3    H132942   1.321   2.901   2.842 -1.5107 -0.0589 -0.0246
 3817TIP3    H232943   1.370   3.030   2.904  1.2555 -0.7613 -0.6282
 3818TIP3   OH232944   3.465   2.526  13.278 -0.1706 -0.4855  0.3994
 3818TIP3    H132945   3.507   2.554  13.360  2.4918  0.1010 -1.0588
 3818TIP3    H232946   3.519   2.455  13.246  1.9634  2.4068 -3.2220
 3819TIP3   OH232947   2.086   2.519   2.858  0.0989 -0.0229 -0.8546
 3819TIP3    H132948   2.126   2.492   2.776  1.1188  0.9286 -0.7075
 3819TIP3    H232949   2.109   2.612   2.866  0.6433 -0.2665  0.8462
 3820TIP3   OH232950   6.603   0.520  11.900 -0.2952  0.3503  0.1233
 3820TIP3    H132951   6.673   0.502  11.837  0.1323  0.4011  0.5857
 3820TIP3    H232952   6.523   0.513  11.848  0.0061 -0.4086 -0.2530
 3821TIP3   OH232953   2.901   5.957  16.546 -0.3456  0.1907 -0.2478
 3821TIP3    H132954   2.916   5.866  16.520  0.1962  0.1637  0.1526
 3821TIP3    H232955   2.816   5.978  16.509  0.1797 -0.0015 -1.6602
 3822TIP3   OH232956   1.434   4.661   0.685  0.1099 -0.7441  0.2529
 3822TIP3    H132957   1.423   4.756   0.692 -1.1329 -0.7724 -1.0191
 3822TIP3    H232958   1.372   4.625   0.748 -1.8282 -0.7440 -1.5759
 3823TIP3   OH232959   6.591   6.163  15.979 -0.1574 -0.1621  0.6843
 3823TIP3    H132960   6.663   6.105  16.003  0.9816  0.2971 -1.4418
 3823TIP3    H232961   6.632   6.250  15.973 -1.1726  0.3302  0.7249
 3824TIP3   OH232962   6.040   3.641  10.716  0.8454  0.5493  0.0562
 3824TIP3    H132963   5.957   3.684  10.737  1.1622  1.7920 -1.0815
 3824TIP3    H232964   6.106   3.697  10.756  1.2065  0.3151 -0.2108
 3825TIP3   OH232965   4.438   4.085   0.049 -0.0097  0.0870  0.5318
 3825TIP3    H132966   4.459   4.141  -0.026  0.4696 -0.6570  0.1023
 3825TIP3    H232967   4.498   4.011   0.041 -0.2937 -0.2411  1.3770
 3826TIP3   OH232968   5.860   6.422  16.492 -0.2362 -0.3486  0.3528
 3826TIP3    H132969   5.857   6.518  16.487 -0.2275 -0.1966  2.5072
 3826TIP3    H232970   5.786   6.393  16.439 -1.2971  0.9332  1.0946
 3827TIP3   OH232971   5.838   1.363  13.805 -0.7051  0.0645  0.1473
 3827TIP3    H132972   5.911   1.367  13.867 -0.0665  0.0897 -0.5974
 3827TIP3    H232973   5.814   1.270  13.803 -0.9167  0.1037  0.6379
 3828TIP3   OH232974   2.117   6.424  10.630 -0.8915 -0.4533 -0.2147
 3828TIP3    H132975   2.071   6.492  10.579 -1.3793 -1.1524 -0.7260
 3828TIP3    H232976   2.156   6.472  10.703  0.8180  0.7942 -1.8534
 3829TIP3   OH232977   2.892   2.131  12.968 -0.1892 -0.4156  0.1372
 3829TIP3    H132978   2.853   2.082  12.895  2.6059 -0.3803 -1.5068
 3829TIP3    H232979   2.897   2.067  13.039  1.1222 -1.8689 -1.1794
 3830TIP3   OH232980   0.807   1.504  11.467  0.1363 -0.1575 -0.6741
 3830TIP3    H132981   0.753   1.524  11.390  2.7577  0.1948 -2.5602
 3830TIP3    H232982   0.842   1.416  11.449  1.4495  0.2672 -0.3431
 3831TIP3   OH232983   2.316   3.320   4.896 -0.1162  0.3657  0.1932
 3831TIP3    H132984   2.349   3.307   4.985 -1.0922 -0.8162  0.4147
 3831TIP3    H232985   2.222   3.303   4.903  0.0883 -2.0416 -1.4660
 3832TIP3   OH232986   2.610   3.874   0.190 -0.1891 -0.0733  0.5872
 3832TIP3    H132987   2.570   3.802   0.238  0.7604  0.1116  1.7394
 3832TIP3    H232988   2.605   3.849   0.098 -3.3358  0.1747  0.6006
 3833TIP3   OH232989   3.014   2.702  12.834  0.0348  0.9673  0.3592
 3833TIP3    H132990   3.072   2.650  12.779 -0.2143  0.7140  0.3344
 3833TIP3    H232991   2.943   2.643  12.857  0.5269  0.8168  1.6024
 3834TIP3   OH232992   0.546   4.317  16.168  0.3194  0.0649 -0.3624
 3834TIP3    H132993   0.614   4.375  16.202  0.2943  0.6709 -1.3127
 3834TIP3    H232994   0.592   4.258  16.108 -0.0278  0.7144 -1.2909
 3835TIP3   OH232995   3.358   5.142   1.585  0.6916  0.0442  0.5075
 3835TIP3    H132996   3.327   5.051   1.578  5.0013 -1.6657  0.5036
 3835TIP3    H232997   3.329   5.183   1.503 -3.8203 -0.2198  1.6797
 3836TIP3   OH232998   1.409   4.102  13.636  0.3864  0.1768  0.5082
 3836TIP3    H132999   1.494   4.147  13.642  0.7383 -0.2035 -1.2878
 3836TIP3    H233000   1.431   4.013  13.609 -0.6295  0.2824 -0.7241
 3837TIP3   OH233001   4.139   6.850  15.888  0.1037 -0.8766 -0.3252
 3837TIP3    H133002   4.055   6.845  15.933  0.6970  2.5802  1.5254
 3837TIP3    H233003   4.122   6.904  15.811  0.5810 -0.0844  0.1061
 3838TIP3   OH233004   5.998   1.965   2.018  0.5546 -0.0173 -0.3539
 3838TIP3    H133005   5.949   2.044   2.043  1.8570  0.5882  0.3457
 3838TIP3    H233006   6.082   1.997   1.985  1.2984 -1.1217  0.3859
 3839TIP3   OH233007   2.524   0.986   0.998  0.7270  0.1893  0.6848
 3839TIP3    H133008   2.467   1.037   0.940  0.4014  0.4953  1.2630
 3839TIP3    H233009   2.546   1.047   1.069  0.7799 -0.3079  1.1008
 3840TIP3   OH233010   5.243   0.770   0.332  0.4190  0.3265  0.0900
 3840TIP3    H133011   5.326   0.801   0.368  0.6404  1.6371 -1.4593
 3840TIP3    H233012   5.265   0.688   0.288  1.2870  1.4939 -1.7530
 3841TIP3   OH233013   0.433   2.754  12.942 -0.2033 -0.0002  0.2004
 3841TIP3    H133014   0.390   2.826  12.988  2.0631  0.3549  1.9207
 3841TIP3    H233015   0.414   2.677  12.996  1.6492  0.2506  1.2906
 3842TIP3   OH233016   2.836   0.436   4.970  0.0662 -0.3938 -0.1093
 3842TIP3    H133017   2.742   0.449   4.960 -0.0516  0.6007  1.8694
 3842TIP3    H233018   2.846   0.395   5.056  1.5588  1.7982  0.8594
 3843TIP3   OH233019   6.721   2.621  13.683  0.3718 -0.5691  0.1679
 3843TIP3    H133020   6.645   2.607  13.739 -0.0220 -0.5182 -0.3408
 3843TIP3    H233021   6.777   2.682  13.732 -1.0549  1.3405 -0.4783
 3844TIP3   OH233022   0.316   1.988   4.434 -0.4659  0.4419  0.3857
 3844TIP3    H133023   0.306   2.065   4.488  1.0328 -0.1689  1.5893
 3844TIP3    H233024   0.410   1.976   4.425 -0.6703 -0.9515 -0.2062
 3845TIP3   OH233025   1.060   4.389   5.733 -0.2493 -0.2152  0.3070
 3845TIP3    H133026   1.102   4.309   5.703  0.9692  0.3622  0.4173
 3845TIP3    H233027   0.977   4.360   5.772 -0.3864 -1.2882 -0.7282
 3846TIP3   OH233028   1.522   5.225  16.835 -0.3165 -0.2523 -0.0326
 3846TIP3    H133029   1.558   5.198  16.751  0.5528  1.2649 -0.1820
 3846TIP3    H233030   1.447   5.280  16.813 -0.3632 -0.2206  0.1974
 3847TIP3   OH233031   6.653   6.256  16.481  0.4753 -0.0888 -0.3434
 3847TIP3    H133032   6.740   6.236  16.447  0.1638 -1.4335 -0.4295
 3847TIP3    H233033   6.647   6.351  16.480  2.4905  0.0995  1.0563
 3848TIP3   OH233034   4.158   2.512   4.839  0.1897  0.4269 -0.7305
 3848TIP3    H133035   4.166   2.576   4.910  1.1047  0.2993 -0.7060
 3848TIP3    H233036   4.112   2.438   4.878  1.3477  0.0504 -0.0553
 3849TIP3   OH233037   0.515   0.558  12.411 -0.2615  0.0034  0.2149
 3849TIP3    H133038   0.561   0.476  12.391 -0.5515 -0.1141  0.0175
 3849TIP3    H233039   0.451   0.567  12.340  0.0535  0.6227  0.0027
 3850TIP3   OH233040   3.123   1.493   3.489  0.0162  0.0514  0.0974
 3850TIP3    H133041   3.159   1.582   3.494  0.0883 -0.0343  1.4128
 3850TIP3    H233042   3.053   1.491   3.554  0.6234 -1.1135  0.7493
 3851TIP3   OH233043   5.067   6.243  12.898 -0.2553 -0.4596 -0.3670
 3851TIP3    H133044   4.994   6.298  12.869 -0.5575 -0.7061 -0.0739
 3851TIP3    H233045   5.091   6.192  12.820  0.0407  0.0932 -0.6465
 3852TIP3   OH233046   4.118   3.177   4.842 -0.6490  0.7729  0.6804
 3852TIP3    H133047   4.079   3.152   4.759 -0.3740 -0.4508  0.8898
 3852TIP3    H233048   4.201   3.218   4.818  0.0935 -0.8433  0.3661
 3853TIP3   OH233049   5.651   1.706   0.927 -0.0641 -0.0293 -0.4724
 3853TIP3    H133050   5.655   1.610   0.925  0.3667 -0.0018 -1.1717
 3853TIP3    H233051   5.665   1.733   0.836 -0.6520  0.6860 -0.3608
 3854TIP3   OH233052   2.376   1.839   5.061 -0.1526 -0.3998 -0.2782
 3854TIP3    H133053   2.461   1.881   5.075 -0.3710  0.4097 -1.2699
 3854TIP3    H233054   2.359   1.791   5.143  0.0291  1.5801  0.9750
 3855TIP3   OH233055   6.719   0.763  14.463  0.5538  0.8392 -0.2814
 3855TIP3    H133056   6.685   0.836  14.411  0.3718  0.2626 -1.0025
 3855TIP3    H233057   6.814   0.770  14.454  0.5275  0.8266 -0.5874
 3856TIP3   OH233058   4.858   4.147   5.409  0.3018 -0.3614  0.2802
 3856TIP3    H133059   4.917   4.219   5.429  1.7253 -0.3375 -3.2322
 3856TIP3    H233060   4.785   4.188   5.362 -0.3210 -0.8878  0.7783
 3857TIP3   OH233061   4.687   3.682  15.286 -0.3001 -0.2044 -0.1291
 3857TIP3    H133062   4.644   3.765  15.264  0.1595  0.2706  0.7365
 3857TIP3    H233063   4.623   3.615  15.260 -1.1197  0.4507  0.1580
 3858TIP3   OH233064   3.654   2.141  14.748  0.1938 -0.0695  0.5524
 3858TIP3    H133065   3.710   2.212  14.715  0.0597 -0.5888 -0.8758
 3858TIP3    H233066   3.566   2.176  14.741  0.2030  0.0453  0.9783
 3859TIP3   OH233067   4.974   2.621   1.262 -0.1559 -0.3147  0.0641
 3859TIP3    H133068   5.026   2.616   1.342  0.8946 -3.4871 -0.6764
 3859TIP3    H233069   4.943   2.712   1.259  1.7528  0.5477  2.7660
 3860TIP3   OH233070   3.098   6.756  14.154  0.5601 -0.0898 -0.0023
 3860TIP3    H133071   3.116   6.850  14.149 -1.9949  0.5209  0.7003
 3860TIP3    H233072   3.147   6.726  14.231  1.0491  0.7303  0.0203
 3861TIP3   OH233073   5.429   3.056  11.507  0.1116  0.4390  0.1302
 3861TIP3    H133074   5.509   3.043  11.559 -1.1018 -0.1677  1.9306
 3861TIP3    H233075   5.404   2.968  11.479 -1.4190  0.1998  1.9997
 3862TIP3   OH233076   5.779   0.262   2.062 -0.0580  0.0533 -0.0796
 3862TIP3    H133077   5.778   0.215   2.145 -2.1338  1.9266  1.0583
 3862TIP3    H233078   5.755   0.196   1.997  0.5159 -1.2006  0.9182
 3863TIP3   OH233079   5.272   5.587   2.756 -0.2501  0.4305  0.2700
 3863TIP3    H133080   5.319   5.610   2.835 -1.8544 -1.4180  1.8783
 3863TIP3    H233081   5.185   5.625   2.768 -0.4788  0.2441 -0.6780
 3864TIP3   OH233082   4.809   4.600   1.513  1.0116  0.3597  0.2996
 3864TIP3    H133083   4.804   4.690   1.546  0.1128  0.3826  0.1036
 3864TIP3    H233084   4.719   4.570   1.510  1.4013 -1.1361  1.9144
 3865TIP3   OH233085   0.059   4.796   6.119  0.4721 -0.3181  0.2105
 3865TIP3    H133086   0.138   4.842   6.148 -0.7731  1.6173  0.6402
 3865TIP3    H233087   0.037   4.738   6.192  1.1463 -0.4529  0.3189
 3866TIP3   OH233088   6.556   6.387   4.178 -0.1219 -0.1808 -0.1279
 3866TIP3    H133089   6.580   6.294   4.186 -0.8435 -0.3003  0.8306
 3866TIP3    H233090   6.515   6.394   4.092 -0.0484 -0.7396 -0.2154
 3867TIP3   OH233091   0.470   1.681  13.197  0.3935  0.1005  0.3457
 3867TIP3    H133092   0.447   1.606  13.253  0.5885 -0.3560 -0.1721
 3867TIP3    H233093   0.386   1.722  13.176 -0.0491 -1.5557 -1.5379
 3868TIP3   OH233094   3.407   1.907   6.014 -0.3258 -0.1840 -0.0483
 3868TIP3    H133095   3.441   1.831   5.966  2.2210  1.0715 -0.4396
 3868TIP3    H233096   3.433   1.890   6.105 -0.7440 -0.2886  0.0516
 3869TIP3   OH233097   1.930   3.137  10.493  0.8783 -0.1084  0.0442
 3869TIP3    H133098   2.014   3.115  10.452  1.0930  0.2296  0.2959
 3869TIP3    H233099   1.887   3.195  10.429  0.6152 -0.6816 -0.3071
 3870TIP3   OH233100   3.835   1.780  14.384  0.0393 -0.0571 -0.5597
 3870TIP3    H133101   3.831   1.829  14.467 -0.6412  0.5715 -0.9527
 3870TIP3    H233102   3.907   1.718  14.396  0.8096  0.9330  0.0136
 3871TIP3   OH233103   5.955   0.706  16.656 -0.3960  0.4386 -0.0054
 3871TIP3    H133104   5.978   0.645  16.586 -2.1615 -0.2823  0.0018
 3871TIP3    H233105   5.860   0.710  16.655 -0.4120  1.4111  1.5321
 3872TIP3   OH233106   3.099   4.181   4.207  0.6987 -0.0698  0.2740
 3872TIP3    H133107   3.120   4.226   4.125 -1.5252  1.7370  0.5819
 3872TIP3    H233108   3.006   4.160   4.198  0.5431 -0.2880  2.1399
 3873TIP3   OH233109   0.506   1.799   2.864  0.2840 -0.8161 -0.5413
 3873TIP3    H133110   0.483   1.768   2.776 -1.3504 -0.6329 -0.2024
 3873TIP3    H233111   0.558   1.878   2.848 -1.4760  0.2399 -1.3697
 3874TIP3   OH233112   6.682   2.442  14.604  0.0108  0.3843  0.9064
 3874TIP3    H133113   6.655   2.442  14.512  1.3797  0.2751  0.4910
 3874TIP3    H233114   6.763   2.492  14.605 -1.1119  2.3234  2.4266
 3875TIP3   OH233115   1.697   2.517  11.168  0.1989  0.0939 -0.0245
 3875TIP3    H133116   1.776   2.514  11.115 -0.3342  0.8349 -0.8995
 3875TIP3    H233117   1.681   2.427  11.195  2.0667  0.1070  1.2880
 3876TIP3   OH233118   5.482   6.148  11.356  0.0749  0.0939  0.0743
 3876TIP3    H133119   5.412   6.196  11.313  0.6369  0.3542 -0.5690
 3876TIP3    H233120   5.455   6.056  11.351 -0.7753  0.2913  0.8819
 3877TIP3   OH233121   5.022   1.959   2.095  0.1434 -0.4778  0.3014
 3877TIP3    H133122   5.021   1.996   2.007 -0.4120  0.1684  0.5741
 3877TIP3    H233123   5.098   1.999   2.137  0.3589 -0.7219  0.1540
 3878TIP3   OH233124   4.687   0.813  14.279  0.3123 -0.6733  0.3177
 3878TIP3    H133125   4.700   0.720  14.260  1.1067 -0.8030  1.4074
 3878TIP3    H233126   4.594   0.820  14.301 -0.1240 -0.9040 -1.3583
 3879TIP3   OH233127   3.548   2.435  14.444  0.6478  0.0520  0.6093
 3879TIP3    H133128   3.508   2.516  14.474 -2.7149 -1.9920  2.1670
 3879TIP3    H233129   3.494   2.407  14.370  0.9742 -1.3856  0.8850
 3880TIP3   OH233130   2.896   0.367   2.825 -0.2055 -0.0135 -0.3512
 3880TIP3    H133131   2.974   0.406   2.784  1.0730 -0.3646  1.6138
 3880TIP3    H233132   2.905   0.273   2.808  0.2644 -0.1463  0.5609
 3881TIP3   OH233133   3.676   4.598   5.871  0.4687  0.4712  0.1250
 3881TIP3    H133134   3.616   4.543   5.820 -0.6066  0.4003  1.4187
 3881TIP3    H233135   3.761   4.554   5.864  0.7163  1.2046 -2.7231
 3882TIP3   OH233136   6.362   2.061  15.886  0.1822 -0.7527 -0.2393
 3882TIP3    H133137   6.290   2.112  15.849  0.3020 -0.3178  0.1092
 3882TIP3    H233138   6.339   1.970  15.868 -1.1839 -0.7252  1.1177
 3883TIP3   OH233139   2.238   5.596  11.042  0.0822 -0.0234 -0.3827
 3883TIP3    H133140   2.307   5.634  10.987 -0.6961  1.7915 -0.2070
 3883TIP3    H233141   2.226   5.507  11.009  1.2051  0.2701 -1.6421
 3884TIP3   OH233142   2.413   2.316   1.243  0.2932  0.1330 -0.1920
 3884TIP3    H133143   2.435   2.261   1.168  0.4945 -0.3673  0.2297
 3884TIP3    H233144   2.491   2.369   1.258  1.4891 -1.9486  1.5799
 3885TIP3   OH233145   2.762   2.537   1.836 -0.7345 -0.0954 -0.6087
 3885TIP3    H133146   2.762   2.448   1.873 -1.3193 -1.2879 -3.2135
 3885TIP3    H233147   2.850   2.570   1.853  0.0123 -1.8141 -0.8763
 3886TIP3   OH233148   1.877   0.578  12.524 -0.5758 -0.0542  0.5935
 3886TIP3    H133149   1.945   0.614  12.467  0.7139 -2.0299  0.7746
 3886TIP3    H233150   1.922   0.562  12.608 -0.0723 -4.7914 -0.3252
 3887TIP3   OH233151   5.952   4.704   4.011 -0.0112  0.2300 -0.0702
 3887TIP3    H133152   5.980   4.750   4.090 -1.3905  0.6973  0.1642
 3887TIP3    H233153   5.886   4.642   4.040 -0.5141  0.3867 -0.8323
 3888TIP3   OH233154   3.924   5.224   0.457 -0.0496  0.1389 -0.6100
 3888TIP3    H133155   3.872   5.233   0.377 -2.2546  1.2065  0.8737
 3888TIP3    H233156   3.966   5.138   0.448 -1.2014 -0.2994 -2.3569
 3889TIP3   OH233157   1.555   5.620  11.969  0.6244  0.1961 -0.2209
 3889TIP3    H133158   1.489   5.647  12.033 -0.7381 -0.0271 -1.4981
 3889TIP3    H233159   1.518   5.542  11.927  2.8099 -1.4708  0.7424
 3890TIP3   OH233160   3.568   2.311   4.901  0.0530 -0.1032 -0.0004
 3890TIP3    H133161   3.624   2.372   4.853 -0.1441  1.4754  1.6475
 3890TIP3    H233162   3.497   2.291   4.841 -0.1540  1.7422 -0.4377
 3891TIP3   OH233163   3.853   4.431  16.702  0.2957 -0.2949  0.3266
 3891TIP3    H133164   3.861   4.526  16.693  1.7474 -0.4923 -0.6153
 3891TIP3    H233165   3.853   4.417  16.797 -0.5071  0.6770  0.4892
 3892TIP3   OH233166   0.790   5.863   5.770 -0.3025 -0.2440 -0.3067
 3892TIP3    H133167   0.820   5.830   5.855  2.9232 -0.0567 -1.2514
 3892TIP3    H233168   0.833   5.807   5.706 -0.3333  1.3867 -1.8307
 3893TIP3   OH233169   5.311   0.888  13.342  0.3260 -1.1006  0.2208
 3893TIP3    H133170   5.360   0.816  13.302  0.0324 -0.5280 -1.2252
 3893TIP3    H233171   5.275   0.850  13.423  1.5057 -2.0880  0.3181
 3894TIP3   OH233172   4.132   4.089  16.484 -0.5357 -0.2628  0.0571
 3894TIP3    H133173   4.199   4.033  16.524 -1.5757 -0.8804  1.0200
 3894TIP3    H233174   4.107   4.150  16.553  0.4812  1.3702 -0.9405
 3895TIP3   OH233175   5.324   2.422  12.636  0.1054 -0.4775  0.3693
 3895TIP3    H133176   5.284   2.446  12.553 -1.5681 -2.1445  0.6211
 3895TIP3    H233177   5.274   2.346  12.666 -0.1806  0.7646  3.5022
 3896TIP3   OH233178   3.028   4.386   5.944  0.9165 -0.2658  0.5556
 3896TIP3    H133179   3.103   4.381   6.003  1.7019  1.2530 -0.2471
 3896TIP3    H233180   2.968   4.448   5.987  1.0786  0.1355  0.2102
 3897TIP3   OH233181   1.690   0.752  13.929  0.1848 -0.2818  0.1312
 3897TIP3    H133182   1.633   0.706  13.867  1.4104 -0.8998 -0.5683
 3897TIP3    H233183   1.777   0.715  13.914  1.0352  1.5584  0.2363
 3898TIP3   OH233184   3.162   0.176   4.803  0.3859 -0.3906  0.4421
 3898TIP3    H133185   3.228   0.203   4.868 -0.7645  1.8235  0.7841
 3898TIP3    H233186   3.161   0.247   4.740  1.7364 -2.6458 -2.3464
 3899TIP3   OH233187   0.057   5.470   6.492 -0.0724 -0.1239  0.4594
 3899TIP3    H133188   0.124   5.429   6.438  0.7189 -1.1224  2.1218
 3899TIP3    H233189   0.104   5.536   6.543 -1.2898  3.0014 -2.0901
 3900TIP3   OH233190   3.332   2.609   4.025 -0.0440  0.0744 -0.3432
 3900TIP3    H133191   3.357   2.517   4.014 -0.5133 -0.0917 -0.0832
 3900TIP3    H233192   3.239   2.611   4.002 -0.3448  0.2454  0.8172
 3901TIP3   OH233193   3.044   3.232   4.715  0.5451  0.4558  0.3912
 3901TIP3    H133194   3.111   3.299   4.727 -0.2308  1.3899 -0.3578
 3901TIP3    H233195   2.968   3.280   4.680 -0.3913 -0.6286  0.8750
 3902TIP3   OH233196   2.602   3.116   5.657  0.2111  0.1520  0.0282
 3902TIP3    H133197   2.540   3.188   5.668  0.2849  0.2426 -0.1398
 3902TIP3    H233198   2.655   3.117   5.736  2.2400  2.2451 -1.2169
 3903TIP3   OH233199   4.584   5.381  14.546 -0.6705 -0.1104  0.7893
 3903TIP3    H133200   4.527   5.457  14.533 -0.4338 -0.0377  0.1010
 3903TIP3    H233201   4.672   5.417  14.548 -0.4720 -0.4531 -0.6319
 3904TIP3   OH233202   6.267   0.210   3.853  0.2447  0.4529 -0.6087
 3904TIP3    H133203   6.305   0.243   3.772  0.0027  1.1319 -0.4517
 3904TIP3    H233204   6.196   0.271   3.873  0.7505  0.7020  0.4952
 3905TIP3   OH233205   0.678   3.820  13.175 -0.4324 -0.2049 -0.1224
 3905TIP3    H133206   0.663   3.822  13.269 -0.1746  0.7423 -0.0977
 3905TIP3    H233207   0.731   3.897  13.157  1.8608 -1.7806 -0.6604
 3906TIP3   OH233208   4.526   6.492  12.333  0.0554 -0.3525  0.1740
 3906TIP3    H133209   4.434   6.486  12.308 -0.3628  1.0445  1.2445
 3906TIP3    H233210   4.549   6.405  12.364 -1.1206 -0.5312  0.5717
 3907TIP3   OH233211   0.660   5.972  12.781  0.3684  0.1282  0.6203
 3907TIP3    H133212   0.565   5.964  12.776  0.2977  1.2139 -0.0378
 3907TIP3    H233213   0.675   6.057  12.822  1.0374  0.7015 -0.7373
 3908TIP3   OH233214   5.361   2.823  13.766 -0.0416  0.3116 -0.3720
 3908TIP3    H133215   5.356   2.727  13.765  0.6534  0.2697 -0.8709
 3908TIP3    H233216   5.345   2.847  13.857 -1.3761 -0.2018 -0.4535
 3909TIP3   OH233217   4.844   2.118   0.490 -0.3441  0.3223  0.0485
 3909TIP3    H133218   4.756   2.083   0.505 -0.2129 -0.4575 -0.8698
 3909TIP3    H233219   4.853   2.190   0.553 -1.5838  0.3284  0.2358
 3910TIP3   OH233220   4.278   2.524   1.371 -0.0851 -0.4237 -0.2111
 3910TIP3    H133221   4.193   2.558   1.400 -0.2653 -1.7730  0.9504
 3910TIP3    H233222   4.290   2.561   1.283 -1.1259  1.0494  0.2281
 3911TIP3   OH233223   5.390   6.616   2.867 -0.2512  0.4749 -0.0091
 3911TIP3    H133224   5.467   6.670   2.847  0.2112  0.0040  0.4526
 3911TIP3    H233225   5.371   6.635   2.958 -2.2268  2.4644 -0.7496
 3912TIP3   OH233226   2.667   0.028  10.619  0.0617 -0.0204 -0.6488
 3912TIP3    H133227   2.588   0.016  10.671  0.0366  1.8884 -0.1382
 3912TIP3    H233228   2.735  -0.019  10.668 -1.0332 -3.3843 -2.1355
 3913TIP3   OH233229   0.627   0.662   0.746  0.1886  0.4839  0.5984
 3913TIP3    H133230   0.596   0.726   0.810  0.7373  1.5324 -0.1639
 3913TIP3    H233231   0.605   0.700   0.661 -0.5170 -0.8836  0.1386
 3914TIP3   OH233232   1.304   1.509  14.981 -0.1514 -0.0543  0.0543
 3914TIP3    H133233   1.313   1.599  15.013  0.1565  0.1655 -0.6442
 3914TIP3    H233234   1.239   1.514  14.911 -0.4231 -0.4452  0.2730
 3915TIP3   OH233235   4.693   5.396   0.033  0.5517  0.2843  0.5488
 3915TIP3    H133236   4.672   5.353   0.116  0.5544  1.7676  1.3510
 3915TIP3    H233237   4.785   5.377   0.018  0.9175  1.1256  1.6075
 3916TIP3   OH233238   5.815   4.697   0.131 -0.4223 -0.1900 -0.4024
 3916TIP3    H133239   5.854   4.780   0.159  1.3478 -1.2747  0.5507
 3916TIP3    H233240   5.742   4.683   0.192  1.2528 -0.8345  1.5945
 3917TIP3   OH233241   2.750   5.353  15.374  0.3626  0.0324  0.8330
 3917TIP3    H133242   2.814   5.313  15.433 -0.4174  1.9839  3.1862
 3917TIP3    H233243   2.801   5.411  15.318  0.8910 -0.2267  1.0410
 3918TIP3   OH233244   2.184   1.004  12.489 -0.4951  0.0572  0.4992
 3918TIP3    H133245   2.096   0.989  12.455 -0.2024 -0.5527 -0.0185
 3918TIP3    H233246   2.241   0.989  12.414  0.2561 -2.5335  1.4793
 3919TIP3   OH233247   1.675   5.620  14.808  0.2801 -0.5456  0.2731
 3919TIP3    H133248   1.583   5.632  14.830  0.5371  0.7893  0.7304
 3919TIP3    H233249   1.711   5.569  14.880 -0.0600 -0.8884  0.1988
 3920TIP3   OH233250   0.273   5.579  15.658  0.0175  0.3191  0.1214
 3920TIP3    H133251   0.364   5.601  15.674 -0.3494  0.4327  2.4223
 3920TIP3    H233252   0.275   5.521  15.582  1.8624  1.1435 -0.5274
 3921TIP3   OH233253   2.127   6.288   1.107 -0.2088  0.4982  0.6310
 3921TIP3    H133254   2.215   6.257   1.127  0.1701  0.2730 -1.2255
 3921TIP3    H233255   2.130   6.382   1.128 -0.0999  0.1794  2.2341
 3922TIP3   OH233256   3.772   0.309   5.432 -0.3845  0.2511 -0.6223
 3922TIP3    H133257   3.844   0.253   5.462 -1.7637 -0.8226  0.8623
 3922TIP3    H233258   3.700   0.248   5.415 -1.3797  1.4231 -0.7726
 3923TIP3   OH233259   6.869   5.860  11.887  0.7697  0.1573 -0.2698
 3923TIP3    H133260   6.962   5.864  11.910  0.7217 -0.7265  0.1252
 3923TIP3    H233261   6.824   5.899  11.962  0.7197 -1.1009  0.3716
 3924TIP3   OH233262   4.253   6.148  14.743 -0.0341  0.7144 -0.2552
 3924TIP3    H133263   4.274   6.055  14.750 -0.2390  0.6170 -0.8563
 3924TIP3    H233264   4.158   6.152  14.742 -0.0517  0.7760 -1.8355
 3925TIP3   OH233265   1.271   4.207  13.412  0.2278  0.2038  0.0682
 3925TIP3    H133266   1.290   4.149  13.338 -2.5711  1.1239 -1.5247
 3925TIP3    H233267   1.325   4.173  13.483  2.2573 -1.3952 -2.0643
 3926TIP3   OH233268   0.589   0.264  12.167  0.2876  0.6156  0.6715
 3926TIP3    H133269   0.500   0.285  12.195  0.3175  1.0761  0.4331
 3926TIP3    H233270   0.583   0.176  12.130  0.0519  0.4079  1.2059
 3927TIP3   OH233271   3.911   1.666  12.376  0.4087  0.1957 -0.0874
 3927TIP3    H133272   3.833   1.705  12.415 -0.2291 -0.6494 -0.4737
 3927TIP3    H233273   3.971   1.653  12.450  1.6286  3.9574 -0.2299
 3928TIP3   OH233274   4.731   2.691  15.176  0.0738  0.4703  0.4372
 3928TIP3    H133275   4.778   2.756  15.229 -2.3620  1.8922  0.9944
 3928TIP3    H233276   4.726   2.613  15.233  1.0200  0.5626  0.6690
 3929TIP3   OH233277   2.781   2.584   4.764  0.0437  0.0779  0.1822
 3929TIP3    H133278   2.687   2.575   4.784 -0.0060  1.3446  0.5694
 3929TIP3    H233279   2.786   2.664   4.711  0.9645  0.2588  0.5417
 3930TIP3   OH233280   4.253   5.504  14.185 -0.8326 -0.0757  0.8588
 3930TIP3    H133281   4.224   5.448  14.114 -0.4196  0.3468  0.3505
 3930TIP3    H233282   4.225   5.459  14.265 -0.9415 -0.7466  0.4439
 3931TIP3   OH233283   2.205   5.299   1.696  0.2421 -0.2403 -0.4030
 3931TIP3    H133284   2.152   5.326   1.771  1.9125 -0.4171  0.9039
 3931TIP3    H233285   2.142   5.280   1.627 -1.4904 -1.8358  1.5024
 3932TIP3   OH233286   1.011   0.450  13.336 -0.4504 -0.3414 -0.4434
 3932TIP3    H133287   1.053   0.528  13.373 -0.1293 -1.0412  0.6907
 3932TIP3    H233288   0.918   0.461  13.357 -0.4261 -0.1997 -0.4073
 3933TIP3   OH233289   4.408   0.294   0.053 -0.6241  0.1680  0.5858
 3933TIP3    H133290   4.410   0.240   0.132 -0.0433 -1.7472 -0.6766
 3933TIP3    H233291   4.316   0.297   0.027 -0.6260 -0.4882  0.5067
 3934TIP3   OH233292   0.076   3.606  14.829  0.3342 -0.3099  0.5264
 3934TIP3    H133293   0.009   3.622  14.762  1.0317 -2.4187 -0.7809
 3934TIP3    H233294   0.149   3.662  14.804 -1.0825  2.6361  2.4251
 3935TIP3   OH233295   5.862   3.560  12.821  0.2819  0.3677 -0.8465
 3935TIP3    H133296   5.771   3.584  12.803 -0.2140 -0.6543  0.1641
 3935TIP3    H233297   5.897   3.534  12.736 -1.4585 -2.6618 -0.7689
 3936TIP3   OH233298   1.036   0.797  12.447  0.7288  0.0920 -0.1823
 3936TIP3    H133299   0.970   0.774  12.381  0.3662 -0.2092  0.2741
 3936TIP3    H233300   1.007   0.751  12.526  0.7499  1.0252  0.3829
 3937TIP3   OH233301   2.169   3.479   2.966 -0.2069  0.6911 -0.1359
 3937TIP3    H133302   2.222   3.557   2.951 -0.9394  1.3715  0.6978
 3937TIP3    H233303   2.095   3.488   2.906 -0.2028  0.5558 -0.1612
 3938TIP3   OH233304   2.320   6.807   2.986  0.5422 -0.1818 -0.1061
 3938TIP3    H133305   2.235   6.764   2.987  0.1218  0.5656 -1.3795
 3938TIP3    H233306   2.323   6.856   3.068 -0.3754  0.0293 -0.1926
 3939TIP3   OH233307   3.319   1.513  12.666 -0.2763 -0.3051 -0.0030
 3939TIP3    H133308   3.336   1.457  12.590 -1.8898 -1.4840  0.4563
 3939TIP3    H233309   3.380   1.481  12.733  1.6208  1.1604 -0.9057
 3940TIP3   OH233310   0.887   1.212   4.312  0.1511  0.3281  0.2854
 3940TIP3    H133311   0.833   1.141   4.277  0.7351 -0.3067  0.6221
 3940TIP3    H233312   0.933   1.172   4.386  2.6352  0.2039 -1.1965
 3941TIP3   OH233313   5.210   2.192   5.119  0.0132  0.4391  0.5138
 3941TIP3    H133314   5.286   2.179   5.062 -0.6256  1.7173 -0.6877
 3941TIP3    H233315   5.219   2.124   5.186 -0.1718 -2.3874 -2.0861
 3942TIP3   OH233316   2.404   2.500  13.680 -0.6078 -0.5176 -0.1930
 3942TIP3    H133317   2.414   2.582  13.631  0.4764 -0.9229 -0.7051
 3942TIP3    H233318   2.472   2.505  13.748 -1.0440 -0.6679  0.2612
 3943TIP3   OH233319   3.978   3.050   6.233  0.0610  0.1484  0.0003
 3943TIP3    H133320   3.898   3.010   6.199 -0.1326 -0.2442  0.8937
 3943TIP3    H233321   4.014   2.984   6.293 -0.6095  1.5264  2.0185
 3944TIP3   OH233322   4.976   3.435  16.578 -0.2073  0.0753 -0.5068
 3944TIP3    H133323   4.919   3.491  16.631  0.2926 -0.2890  0.4286
 3944TIP3    H233324   5.036   3.395  16.641  0.9804  0.3238 -1.4470
 3945TIP3   OH233325   2.118   4.244  12.137 -0.1858 -0.2339 -0.5469
 3945TIP3    H133326   2.127   4.246  12.233  1.4546 -1.3308 -0.6474
 3945TIP3    H233327   2.047   4.306  12.119 -1.2891 -0.8164  1.4499
 3946TIP3   OH233328   0.185   6.221   3.677  0.4460  0.5354  0.5189
 3946TIP3    H133329   0.165   6.307   3.641 -0.7757  0.6597  1.4182
 3946TIP3    H233330   0.108   6.168   3.655  1.2820 -0.3997 -0.2221
 3947TIP3   OH233331   0.011   5.380  16.230 -0.1971 -0.2006  0.1612
 3947TIP3    H133332   0.091   5.415  16.268 -0.2000 -0.3378  0.3003
 3947TIP3    H233333  -0.047   5.366  16.305  0.4970 -2.3256  0.3899
 3948TIP3   OH233334   1.980   4.491   0.908 -0.3126 -0.0419  0.4003
 3948TIP3    H133335   1.954   4.408   0.871 -0.3176  0.0517  0.1951
 3948TIP3    H233336   1.938   4.493   0.994 -0.2836 -0.2653  0.4204
 3949TIP3   OH233337   2.510   5.060  13.046 -0.3734 -0.5073 -0.0549
 3949TIP3    H133338   2.519   5.004  12.968 -0.3729 -0.2255 -0.2590
 3949TIP3    H233339   2.445   5.126  13.020 -0.9036 -0.8252  0.4219
 3950TIP3   OH233340   5.500   1.025  15.102  0.6076 -0.3161  0.0734
 3950TIP3    H133341   5.498   1.102  15.046 -0.1367  0.1485  0.7129
 3950TIP3    H233342   5.582   1.033  15.151  0.9194 -0.3626 -0.4301
 3951TIP3   OH233343   0.972   1.115  10.481  0.9082  0.1823  0.6909
 3951TIP3    H133344   0.900   1.074  10.528  1.5485  0.1426  1.6727
 3951TIP3    H233345   0.930   1.180  10.424  0.1645  1.2154  2.3151
 3952TIP3   OH233346   4.321   3.047   5.955 -0.6272 -0.0859  0.1664
 3952TIP3    H133347   4.300   2.973   6.012 -0.8326  0.9232  1.4470
 3952TIP3    H233348   4.237   3.091   5.941 -0.2206  0.9737  0.9842
 3953TIP3   OH233349   1.900   1.555   3.881  0.0712  0.3681 -1.0158
 3953TIP3    H133350   1.983   1.508   3.891  0.1583  0.8198  0.6559
 3953TIP3    H233351   1.922   1.647   3.896 -0.6006  0.5991 -1.3742
 3954TIP3   OH233352   6.521   1.564   2.830  0.1207 -0.3399  0.4523
 3954TIP3    H133353   6.430   1.556   2.857  0.4172  0.2177  1.7062
 3954TIP3    H233354   6.536   1.659   2.825  1.0584 -0.3659  1.9409
 3955TIP3   OH233355   2.255   3.908   3.139  0.2338 -0.0345 -0.1537
 3955TIP3    H133356   2.236   3.984   3.194 -0.3754 -0.6865  0.5701
 3955TIP3    H233357   2.256   3.943   3.050  1.9781  1.1753  0.2844
 3956TIP3   OH233358   3.130   0.381   2.651 -0.5757 -0.3699  0.0051
 3956TIP3    H133359   3.129   0.475   2.636 -2.4601 -0.0379  1.7305
 3956TIP3    H233360   3.218   0.362   2.683  0.2991  0.5005 -1.7671
 3957TIP3   OH233361   6.108   6.169  11.758  0.1251 -0.4389 -0.0036
 3957TIP3    H133362   6.169   6.103  11.725 -0.5529 -0.7677 -0.6201
 3957TIP3    H233363   6.022   6.138  11.730 -0.2038  0.7216 -0.3185
 3958TIP3   OH233364   1.457   2.690  14.331 -0.0793 -0.3669 -0.3143
 3958TIP3    H133365   1.496   2.703  14.244 -0.1679  1.5326 -0.0953
 3958TIP3    H233366   1.400   2.765  14.344 -2.0805 -1.9150  0.3607
 3959TIP3   OH233367   2.936   0.473   3.891  0.3225  0.0866  0.0044
 3959TIP3    H133368   2.863   0.438   3.941  0.1199  1.1918  0.5042
 3959TIP3    H233369   2.995   0.509   3.957  1.9898 -1.9416 -0.2780
 3960TIP3   OH233370   3.163   2.264  15.160 -0.2966  0.2234  0.1048
 3960TIP3    H133371   3.153   2.207  15.084  0.6188 -0.0129  0.1593
 3960TIP3    H233372   3.113   2.220  15.229 -0.3735 -0.0255 -0.1067
 3961TIP3   OH233373   6.263   2.854   4.463  0.5193  0.8020 -0.4542
 3961TIP3    H133374   6.179   2.861   4.417  0.2598  0.8509  0.0170
 3961TIP3    H233375   6.241   2.873   4.555  1.4241  3.0946 -0.6518
 3962TIP3   OH233376   5.071   1.405  14.624  0.2313 -0.2110 -0.0312
 3962TIP3    H133377   5.095   1.474  14.562  2.1726  0.2806  1.1784
 3962TIP3    H233378   5.060   1.327  14.569  1.3284  0.3396 -1.0773
 3963TIP3   OH233379   0.005   4.886  12.095 -0.3696  0.0990  0.0114
 3963TIP3    H133380  -0.067   4.824  12.110 -0.7182  0.6716  0.7657
 3963TIP3    H233381  -0.028   4.969  12.129 -0.1448  0.8538 -1.5399
 3964TIP3   OH233382   3.340   5.485  15.048  0.0126 -0.8676 -0.7530
 3964TIP3    H133383   3.416   5.502  15.105 -0.6365  2.6507 -0.6885
 3964TIP3    H233384   3.271   5.460  15.109  0.2250 -0.5462 -0.3668
 3965TIP3   OH233385   3.379   2.784  16.614 -0.4856 -0.7841 -0.2444
 3965TIP3    H133386   3.293   2.740  16.608 -0.4767 -0.7994 -0.2605
 3965TIP3    H233387   3.415   2.779  16.526 -0.1238 -1.4797 -0.0678
 3966TIP3   OH233388   5.887   1.496  14.746  0.1712 -0.2449  0.3533
 3966TIP3    H133389   5.843   1.572  14.707 -0.7600 -1.8224 -1.9058
 3966TIP3    H233390   5.977   1.502  14.714  0.2940  0.2925  0.7888
 3967TIP3   OH233391   3.900   1.231  15.479  0.5134 -0.0687 -0.3757
 3967TIP3    H133392   3.830   1.294  15.497  0.4399  0.5219 -2.4841
 3967TIP3    H233393   3.854   1.148  15.469  0.1238  0.2320 -1.2757
 3968TIP3   OH233394   0.478   3.783   0.655 -0.3492 -0.8979  0.6880
 3968TIP3    H133395   0.471   3.862   0.602 -0.8033 -1.3359  0.0828
 3968TIP3    H233396   0.558   3.740   0.624 -0.6862 -1.2213  0.2596
 3969TIP3   OH233397   2.688   2.345   4.636  0.3197 -0.6207  0.1676
 3969TIP3    H133398   2.721   2.412   4.696 -0.8443 -0.8174  1.0602
 3969TIP3    H233399   2.611   2.385   4.596  0.0654 -1.1410  0.1255
 3970TIP3   OH233400   0.713   3.621   1.265 -0.1571 -0.1863  0.6870
 3970TIP3    H133401   0.721   3.543   1.320  2.6179 -0.7274 -0.3076
 3970TIP3    H233402   0.653   3.596   1.196  2.9753 -2.7586 -1.4153
 3971TIP3   OH233403   2.396   2.013  11.893 -0.4024 -0.8202 -0.4149
 3971TIP3    H133404   2.337   2.007  11.969  2.6850  2.2527  2.6361
 3971TIP3    H233405   2.377   2.098  11.855 -0.6637 -1.5689 -2.0192
 3972TIP3   OH233406   4.968   1.833  11.800 -0.0116 -0.0706 -0.6204
 3972TIP3    H133407   4.921   1.879  11.869 -0.4943 -0.9696 -0.3285
 3972TIP3    H233408   5.040   1.891  11.777  1.3519 -0.5637  2.0107
 3973TIP3   OH233409   2.826   2.957   3.377 -0.9412 -0.0615 -0.4773
 3973TIP3    H133410   2.897   2.978   3.315  1.7872 -1.9141  1.7565
 3973TIP3    H233411   2.784   2.880   3.340  0.0047 -0.5501 -0.5779
 3974TIP3   OH233412   5.736   0.464   2.744  0.5292  0.3080 -0.3213
 3974TIP3    H133413   5.685   0.536   2.705  0.0208 -0.0464 -0.3236
 3974TIP3    H233414   5.780   0.423   2.669  0.0799  0.0408 -0.4438
 3975TIP3   OH233415   0.088   6.532  11.135 -0.2588  0.1107 -0.3171
 3975TIP3    H133416   0.178   6.562  11.145 -0.2357  1.2105 -3.0133
 3975TIP3    H233417   0.095   6.440  11.112  0.1122 -0.0148  0.2726
 3976TIP3   OH233418   3.455   0.534   3.415 -0.4157  0.8600  0.1835
 3976TIP3    H133419   3.409   0.607   3.456 -1.4608  1.8425 -2.5067
 3976TIP3    H233420   3.462   0.559   3.322 -0.9564 -2.4743 -0.8926
 3977TIP3   OH233421   3.088   6.153  10.382  0.8484  0.6216  0.4439
 3977TIP3    H133422   3.116   6.089  10.315  0.9964 -0.1570  1.2325
 3977TIP3    H233423   3.130   6.235  10.355  1.9509  0.0232  0.2744
 3978TIP3   OH233424   2.311   1.726   0.417  0.1841 -0.0024 -0.0536
 3978TIP3    H133425   2.315   1.630   0.418  2.1833  0.0185 -0.1519
 3978TIP3    H233426   2.307   1.749   0.324  3.7255 -0.0361 -0.3717
 3979TIP3   OH233427   2.206   6.538   1.170 -0.5770  0.4480 -0.2491
 3979TIP3    H133428   2.161   6.623   1.168 -1.1029  0.1649 -0.5467
 3979TIP3    H233429   2.299   6.561   1.174 -0.7474  1.0791  2.9653
 3980TIP3   OH233430   5.499   2.004   1.574 -0.2947 -0.5040  0.0325
 3980TIP3    H133431   5.417   2.021   1.527  0.4746  0.8609 -0.8830
 3980TIP3    H233432   5.472   1.963   1.656 -1.8708 -0.3311 -0.3710
 3981TIP3   OH233433   1.077   5.357   4.675 -0.1206 -0.1365  0.1278
 3981TIP3    H133434   1.173   5.366   4.682 -0.1689  0.1616  0.4521
 3981TIP3    H233435   1.057   5.282   4.731  0.1031 -1.2956 -1.2870
 3982TIP3   OH233436   0.569   0.902   0.867  0.5887 -0.5239  0.5607
 3982TIP3    H133437   0.588   0.996   0.865  1.1915 -0.6195  1.1959
 3982TIP3    H233438   0.499   0.894   0.931  2.3609 -0.7591  2.6087
 3983TIP3   OH233439   2.533   1.189  11.073  0.1102 -0.4029 -0.2020
 3983TIP3    H133440   2.605   1.142  11.115  2.2202 -0.5334 -3.5608
 3983TIP3    H233441   2.481   1.121  11.031 -0.1419 -0.1033 -0.3817
 3984TIP3   OH233442   5.062   1.886   5.322  0.4377 -0.6648  0.2293
 3984TIP3    H133443   5.127   1.940   5.367  0.4316 -0.7267  0.3115
 3984TIP3    H233444   5.072   1.799   5.360  0.1457 -0.6207  0.4088
 3985TIP3   OH233445   0.984   5.598  16.612  0.1965 -0.0106  0.0387
 3985TIP3    H133446   0.998   5.503  16.609 -0.0966 -0.0193 -1.2396
 3985TIP3    H233447   1.013   5.623  16.700  0.2090 -1.2917  0.4158
 3986TIP3   OH233448   5.039   4.010   0.576  0.3766  0.4382  0.3737
 3986TIP3    H133449   5.132   4.009   0.598  0.0794  0.2882  1.7350
 3986TIP3    H233450   5.032   4.066   0.499  1.4762  1.2143  0.8229
 3987TIP3   OH233451   0.408   5.066   2.276 -0.4789  0.2980 -0.3182
 3987TIP3    H133452   0.466   5.141   2.273  1.7637 -1.3261 -0.4418
 3987TIP3    H233453   0.371   5.060   2.188  1.0378  0.0561 -0.9818
 3988TIP3   OH233454   3.957   6.498  13.091 -0.1868 -0.4359 -0.0263
 3988TIP3    H133455   3.948   6.584  13.131 -1.0482 -0.8085  0.6289
 3988TIP3    H233456   3.947   6.514  12.997 -2.1414 -0.0019  0.2046
 3989TIP3   OH233457   3.024   2.512   1.538  0.0136 -0.1321  0.0768
 3989TIP3    H133458   3.096   2.523   1.600 -0.3538  1.1114  0.3048
 3989TIP3    H233459   3.004   2.600   1.508 -3.0308 -0.0960  1.8409
 3990TIP3   OH233460   2.265   2.843   5.652  0.2872  0.2938  0.1068
 3990TIP3    H133461   2.228   2.832   5.740 -1.2326  1.0152 -0.4255
 3990TIP3    H233462   2.247   2.760   5.608 -0.9918  0.7459 -0.2446
 3991TIP3   OH233463   5.773   2.691  16.634 -0.1788 -0.5209  0.0765
 3991TIP3    H133464   5.832   2.694  16.709 -0.5569  0.8012  0.3399
 3991TIP3    H233465   5.820   2.736  16.564 -1.8316  3.0303  1.0430
 3992TIP3   OH233466   0.149   6.517  11.511  0.2736  0.2808 -0.2685
 3992TIP3    H133467   0.085   6.583  11.484  0.7437 -0.1182 -2.5527
 3992TIP3    H233468   0.234   6.561  11.503  0.5075 -0.2060 -0.5095
 3993TIP3   OH233469   1.357   0.473  15.663  0.3200 -0.2583  0.2103
 3993TIP3    H133470   1.404   0.486  15.581  1.1418  1.4852  0.9266
 3993TIP3    H233471   1.414   0.509  15.730 -1.0290 -0.2094  1.3771
 3994TIP3   OH233472   6.585   6.757   0.698  0.3267  0.9591  0.0131
 3994TIP3    H133473   6.582   6.706   0.779  1.4575  1.4854  0.4124
 3994TIP3    H233474   6.605   6.693   0.630 -1.4542  0.3719 -0.0209
 3995TIP3   OH233475   2.412   5.151  13.848 -0.3314  0.5661 -0.3418
 3995TIP3    H133476   2.319   5.132  13.836 -0.6399  1.7947 -0.0815
 3995TIP3    H233477   2.432   5.124  13.937 -0.0530 -1.0535 -0.8599
 3996TIP3   OH233478   2.395   3.687   1.298 -0.1158 -0.2181 -0.0262
 3996TIP3    H133479   2.373   3.709   1.207  0.9456  1.9481  0.1575
 3996TIP3    H233480   2.467   3.625   1.290  0.0311  0.0232 -0.6915
 3997TIP3   OH233481   3.654   5.316   5.463  0.0913  0.0664  0.6253
 3997TIP3    H133482   3.617   5.388   5.513 -1.4894 -0.6135  0.5091
 3997TIP3    H233483   3.584   5.251   5.459  0.6833 -0.5258 -1.2029
 3998TIP3   OH233484   0.555   6.400   2.184 -0.4191 -0.3724 -0.7057
 3998TIP3    H133485   0.504   6.421   2.262 -0.0396  0.3358 -0.6366
 3998TIP3    H233486   0.513   6.323   2.148 -1.3480  0.0106 -0.4810
 3999TIP3   OH233487   6.120   1.592   1.094  0.3682  0.0790 -0.0574
 3999TIP3    H133488   6.112   1.578   1.188 -1.3058 -1.2951 -0.3486
 3999TIP3    H233489   6.084   1.679   1.079  2.8683  1.3713  0.7846
 4000TIP3   OH233490   6.310   2.586  13.015  0.1972 -0.2191 -0.0588
 4000TIP3    H133491   6.216   2.573  13.001  0.2174  0.0760 -0.5219
 4000TIP3    H233492   6.350   2.502  12.989  0.1418 -0.0112 -0.8510
 4001TIP3   OH233493   5.011   0.838   4.732  0.4686 -0.1296 -0.0420
 4001TIP3    H133494   4.922   0.819   4.701 -1.0347  1.1390  2.9983
 4001TIP3    H233495   5.030   0.767   4.793  0.5254  0.8304  1.0851
 4002TIP3   OH233496   1.891   2.344  13.430 -0.2458  0.4705  0.6779
 4002TIP3    H133497   1.955   2.322  13.362 -0.4674  2.8441 -0.4054
 4002TIP3    H233498   1.806   2.322  13.391 -0.3033  0.8067  0.6084
 4003TIP3   OH233499   4.706   3.242  14.109  0.5063 -0.2192 -0.0404
 4003TIP3    H133500   4.660   3.218  14.189  0.2503 -2.7654 -0.8868
 4003TIP3    H233501   4.713   3.338  14.114 -3.3961  0.1979  0.9342
 4004TIP3   OH233502   0.959   4.757   5.841 -0.2353 -0.2225 -0.0823
 4004TIP3    H133503   0.997   4.756   5.753 -2.1194 -1.6447 -0.9699
 4004TIP3    H233504   0.947   4.665   5.862  0.5489  0.0926  1.8672
 4005TIP3   OH233505   1.642   6.393  12.334 -0.2533 -0.9468  0.1752
 4005TIP3    H133506   1.625   6.352  12.249  0.0993 -1.4799  0.3526
 4005TIP3    H233507   1.715   6.453  12.317 -1.0662 -0.0397 -0.1834
 4006TIP3   OH233508   6.310   2.162   0.255  0.3756 -0.5613  0.5501
 4006TIP3    H133509   6.324   2.236   0.195 -1.4403  1.1071  2.0486
 4006TIP3    H233510   6.240   2.191   0.313 -2.2139 -4.4604 -0.2913
 4007TIP3   OH233511   3.327   5.658  16.042 -1.0148  0.2673 -0.0083
 4007TIP3    H133512   3.314   5.646  15.948 -1.2709  1.0212 -0.0704
 4007TIP3    H233513   3.420   5.676  16.051 -1.1433  1.0533 -0.2116
 4008TIP3   OH233514   0.925   0.822  16.934  0.3010  0.0667 -0.8374
 4008TIP3    H133515   0.850   0.771  16.903 -0.5960  1.2909 -0.7707
 4008TIP3    H233516   0.952   0.777  17.014 -0.2408 -0.5019 -0.9602
 4009TIP3   OH233517   5.694   0.619  14.072 -0.2955  0.1799  0.3202
 4009TIP3    H133518   5.661   0.678  14.004 -1.1104  1.6800  1.9223
 4009TIP3    H233519   5.744   0.676  14.131  0.9059 -1.1879  0.6743
 4010TIP3   OH233520   0.251   6.314  15.284  0.1380 -0.0609 -0.0489
 4010TIP3    H133521   0.318   6.380  15.301  1.3543 -0.6657 -2.0471
 4010TIP3    H233522   0.298   6.231  15.287 -0.8443 -0.6347 -0.0259
 4011TIP3   OH233523   6.805   4.531   1.327 -0.1306 -0.2009  0.4122
 4011TIP3    H133524   6.790   4.439   1.351  0.9908 -0.2805  0.8273
 4011TIP3    H233525   6.883   4.529   1.272 -0.7280  0.3885 -0.4805
 4012TIP3   OH233526   0.935   1.398  15.391  0.0411  0.3248 -0.3770
 4012TIP3    H133527   0.933   1.374  15.483  1.4986  0.3305 -0.3140
 4012TIP3    H233528   1.005   1.344  15.354 -0.1515  0.7209 -1.3492
 4013TIP3   OH233529   4.125   5.580   0.439 -0.5820  0.1270 -0.0281
 4013TIP3    H133530   4.102   5.660   0.392 -1.6919 -0.4015 -0.4064
 4013TIP3    H233531   4.041   5.536   0.455  0.0277 -1.1034 -0.0781
 4014TIP3   OH233532   6.371   4.673   2.862  0.3978  0.0815  0.0248
 4014TIP3    H133533   6.313   4.721   2.804  0.4955 -0.1982 -0.3035
 4014TIP3    H233534   6.456   4.717   2.853  0.4485 -0.0525 -0.1553
 4015TIP3   OH233535   0.170   3.458   5.552  0.0713 -0.2217  0.4988
 4015TIP3    H133536   0.128   3.394   5.494 -0.6193  0.9854 -0.3541
 4015TIP3    H233537   0.105   3.477   5.619  0.2460 -0.3162  0.7007
 4016TIP3   OH233538   4.633   6.787  11.911 -0.2795  0.0110  0.3032
 4016TIP3    H133539   4.613   6.706  11.957  0.0784 -0.3224 -0.1209
 4016TIP3    H233540   4.551   6.811  11.868 -0.2775 -0.3413  0.1026
 4017TIP3   OH233541   6.222   3.527  11.507  0.3022  0.3331  0.0015
 4017TIP3    H133542   6.207   3.502  11.416  0.8665 -0.9764  0.2546
 4017TIP3    H233543   6.289   3.467  11.538 -1.5525 -0.8644  1.9967
 4018TIP3   OH233544   5.721   1.032   5.295 -0.2660 -0.2723 -0.0341
 4018TIP3    H133545   5.795   0.973   5.285 -1.1055 -1.0875 -1.8056
 4018TIP3    H233546   5.657   0.981   5.345  0.0294  0.1499  0.8032
 4019TIP3   OH233547   3.419   0.712   3.197  0.0072  0.1762  0.1275
 4019TIP3    H133548   3.412   0.807   3.187 -2.0538 -0.0798 -1.9209
 4019TIP3    H233549   3.340   0.678   3.154  0.3224 -2.4501  1.4245
 4020TIP3   OH233550   1.779   3.300   5.962  0.7252 -0.0787  0.5001
 4020TIP3    H133551   1.785   3.257   5.877 -0.1441 -0.8813  0.8266
 4020TIP3    H233552   1.741   3.385   5.944 -0.4264 -0.6374  0.1798
 4021TIP3   OH233553   4.283   2.763  11.046 -0.1058  0.1475  0.1572
 4021TIP3    H133554   4.356   2.782  11.105 -1.5214  0.0983  2.0295
 4021TIP3    H233555   4.286   2.668  11.033  0.0955  0.1316  0.3250
 4022TIP3   OH233556   1.606   5.452   5.762 -0.6056  0.2453  0.1056
 4022TIP3    H133557   1.692   5.425   5.794 -0.1000 -0.7916 -1.9736
 4022TIP3    H233558   1.622   5.535   5.717 -0.6975  0.0813 -0.2307
 4023TIP3   OH233559   3.604   4.094  15.837  0.5387 -0.2303 -0.4357
 4023TIP3    H133560   3.647   4.086  15.751  0.0648 -1.9444 -0.5371
 4023TIP3    H233561   3.676   4.113  15.897  0.9124  0.7449 -1.1606
 4024TIP3   OH233562   2.196   2.139  15.469 -0.0472 -0.3417  0.0002
 4024TIP3    H133563   2.194   2.058  15.520  0.4336  0.2018  0.9005
 4024TIP3    H233564   2.104   2.154  15.445 -0.2638 -0.6537  0.6165
 4025TIP3   OH233565   1.605   5.705   4.775  0.0539  0.2930  0.3049
 4025TIP3    H133566   1.535   5.652   4.737 -1.2340  2.3168 -0.2857
 4025TIP3    H233567   1.560   5.770   4.829  1.6116  0.4081  1.5523
 4026TIP3   OH233568   1.534   4.104   0.767 -0.6457 -0.2240 -0.0096
 4026TIP3    H133569   1.586   4.034   0.728  0.4336  0.3098  0.4264
 4026TIP3    H233570   1.547   4.179   0.709 -0.5266  0.0532  0.3725
 4027TIP3   OH233571   6.807   1.163  15.651  0.2821 -0.1391  0.0232
 4027TIP3    H133572   6.840   1.077  15.629  1.8367 -0.0302  1.7134
 4027TIP3    H233573   6.845   1.222  15.585  2.0237 -0.2915  0.8415
 4028TIP3   OH233574   4.539   3.175  11.999  0.1943  0.3249 -0.5577
 4028TIP3    H133575   4.445   3.163  12.012 -0.0462  2.5409  0.1281
 4028TIP3    H233576   4.546   3.222  11.916  0.7784 -0.6688 -1.0834
 4029TIP3   OH233577   0.791   4.096   1.989 -0.3929 -0.0762 -0.0436
 4029TIP3    H133578   0.748   4.130   1.910  0.7362  1.0747 -0.1824
 4029TIP3    H233579   0.850   4.165   2.016 -0.1851 -0.7846  1.3826
 4030TIP3   OH233580   3.668   1.146   5.852  0.4970  0.0733 -0.1772
 4030TIP3    H133581   3.708   1.123   5.936  0.2754 -0.6896 -0.2719
 4030TIP3    H233582   3.574   1.149   5.869  0.5088  0.9000 -0.1810
 4031TIP3   OH233583   6.065   0.213   5.297  0.4273  0.2030  0.1552
 4031TIP3    H133584   6.113   0.224   5.215 -0.7807  1.1616 -0.4495
 4031TIP3    H233585   5.975   0.197   5.271 -0.2452  1.8406  1.2642
 4032TIP3   OH233586   0.971   0.797  11.951 -0.6353  0.4346  1.0493
 4032TIP3    H133587   0.986   0.890  11.969  0.4133  0.8777 -1.5759
 4032TIP3    H233588   1.055   0.765  11.919 -1.1655 -1.2697  1.2633
 4033TIP3   OH233589   4.404   5.907  16.690  0.0774  0.2314 -0.0026
 4033TIP3    H133590   4.380   5.899  16.598  0.9198 -2.0718 -0.1025
 4033TIP3    H233591   4.498   5.888  16.692 -0.0017 -0.1477  1.3650
 4034TIP3   OH233592   1.728   0.313   4.881 -0.2997  0.0169 -0.0129
 4034TIP3    H133593   1.787   0.277   4.814 -0.0095 -0.0374  0.2684
 4034TIP3    H233594   1.776   0.388   4.917  0.5240 -1.2442  1.6598
 4035TIP3   OH233595   3.530   6.383  10.790  0.0964  0.1440  0.2205
 4035TIP3    H133596   3.466   6.452  10.772  1.3937  1.3528  0.1329
 4035TIP3    H233597   3.593   6.423  10.849  0.4631 -1.2258  0.8071
 4036TIP3   OH233598   1.577   4.824  10.521 -0.6374  0.2265  0.6822
 4036TIP3    H133599   1.539   4.912  10.518 -3.2275 -0.8313  0.4438
 4036TIP3    H233600   1.598   4.810  10.614 -2.9518  0.0488  1.2253
 4037TIP3   OH233601   0.566   4.611   5.535 -0.2951 -0.1026  0.2032
 4037TIP3    H133602   0.550   4.706   5.534  1.1404  0.1913  1.3135
 4037TIP3    H233603   0.592   4.593   5.625  0.4677 -1.3792 -0.2556
 4038TIP3   OH233604   3.700   6.848   3.897  0.1600  0.1271 -0.1341
 4038TIP3    H133605   3.647   6.844   3.818  1.6548 -1.0349 -1.1318
 4038TIP3    H233606   3.644   6.890   3.962 -1.6480 -0.3008 -1.3641
 4039TIP3   OH233607   1.792   0.200  11.869  0.0243 -0.0002 -0.0170
 4039TIP3    H133608   1.741   0.280  11.871  0.6249  0.3781  1.1690
 4039TIP3    H233609   1.883   0.229  11.879  0.3047 -0.7835 -0.2062
 4040TIP3   OH233610   6.034   2.340   1.484 -0.1611  0.5973  0.0696
 4040TIP3    H133611   5.977   2.264   1.499  0.7468 -0.7659 -2.7262
 4040TIP3    H233612   6.003   2.405   1.547 -3.0280 -0.9862  0.4895
 4041TIP3   OH233613   0.487   3.527  16.104  0.2912  0.3085 -0.4653
 4041TIP3    H133614   0.396   3.541  16.131  0.4036  1.1726 -0.5018
 4041TIP3    H233615   0.530   3.490  16.181  0.9314  3.9870  1.1734
 4042TIP3   OH233616   1.560   3.366  12.613 -0.6410 -0.0749  0.8329
 4042TIP3    H133617   1.592   3.444  12.567  0.5063 -0.7971  0.3554
 4042TIP3    H233618   1.490   3.333  12.556 -0.6515  0.2124  0.6740
 4043TIP3   OH233619   0.829   5.562  11.461  0.4019 -0.1047 -0.1336
 4043TIP3    H133620   0.784   5.528  11.538  1.0312 -3.1281 -0.9727
 4043TIP3    H233621   0.920   5.570  11.488  0.0398  2.9402  0.5914
 4044TIP3   OH233622   3.545   3.356   0.280  0.0184 -0.0463 -0.3612
 4044TIP3    H133623   3.607   3.407   0.333 -1.0665  0.6558  0.2788
 4044TIP3    H233624   3.562   3.265   0.304 -1.1567  0.2823  2.1165
 4045TIP3   OH233625   1.478   6.555  15.027 -0.3324 -0.1667 -0.7760
 4045TIP3    H133626   1.457   6.496  14.955  0.0601 -1.9277  0.4929
 4045TIP3    H233627   1.395   6.565  15.075 -0.2741 -0.0751 -0.6937
 4046TIP3   OH233628   1.075   5.911   1.861  0.6191  0.4533  0.7992
 4046TIP3    H133629   1.067   5.941   1.952 -0.8308  0.2226  0.7666
 4046TIP3    H233630   1.006   5.958   1.815 -1.3501 -2.4031  0.6222
 4047TIP3   OH233631   6.317   0.419   2.047 -0.0758  0.4359  0.3279
 4047TIP3    H133632   6.367   0.363   2.107 -0.2278  0.7764  0.7710
 4047TIP3    H233633   6.229   0.380   2.046  0.7053 -1.5539 -2.1991
 4048TIP3   OH233634   5.075   3.612   3.997 -0.8174  0.2300 -0.2364
 4048TIP3    H133635   5.006   3.678   3.993 -0.5646  0.5021 -0.1447
 4048TIP3    H233636   5.032   3.531   3.971 -0.4949  0.9103 -3.2424
 4049TIP3   OH233637   2.273   1.504  14.711 -0.1798 -0.3269  0.7619
 4049TIP3    H133638   2.357   1.519  14.754 -1.0038  1.4413  1.8525
 4049TIP3    H233639   2.289   1.430  14.652  1.8495 -0.6955  1.7012
 4050TIP3   OH233640   4.780   2.628   4.045  0.3022  0.1049 -0.8999
 4050TIP3    H133641   4.775   2.648   4.139  0.9981  1.7140 -1.1704
 4050TIP3    H233642   4.871   2.603   4.030 -0.1148 -1.5372 -0.9366
 4051TIP3   OH233643   1.019   5.903  11.708  0.5577  0.1627  0.3596
 4051TIP3    H133644   1.071   5.929  11.784  0.3963  0.1029  0.4906
 4051TIP3    H233645   0.984   5.986  11.674  0.3652  0.1559  0.5429
 4052TIP3   OH233646   2.346   1.784  10.266 -0.4849  0.6631 -0.1184
 4052TIP3    H133647   2.428   1.778  10.314  0.3104  0.9421 -1.3828
 4052TIP3    H233648   2.282   1.812  10.331  0.8138  2.3066  0.5239
 4053TIP3   OH233649   4.103   0.721  11.336 -0.8962 -0.6735 -0.1345
 4053TIP3    H133650   4.168   0.658  11.304 -1.0613 -0.5085 -0.8098
 4053TIP3    H233651   4.095   0.785  11.266 -1.2880 -0.3105  0.2329
 4054TIP3   OH233652   5.450   0.246  12.740 -0.0297 -0.0340  0.4194
 4054TIP3    H133653   5.356   0.265  12.748 -0.1656 -0.6152  0.2595
 4054TIP3    H233654   5.455   0.151  12.734  0.5085  0.0293 -0.3884
 4055TIP3   OH233655   5.891   2.981   3.594 -0.0243  0.0621  0.1375
 4055TIP3    H133656   5.836   2.903   3.593  2.4597 -1.8268 -0.3596
 4055TIP3    H233657   5.953   2.965   3.666  2.2699  0.1811 -1.7037
 4056TIP3   OH233658   5.363   1.958   3.674 -0.3586 -0.3513 -0.5616
 4056TIP3    H133659   5.279   1.948   3.629 -0.5804  0.8241 -0.4439
 4056TIP3    H233660   5.413   2.018   3.619 -0.5847  1.0055  0.6526
 4057TIP3   OH233661   0.290   2.204  13.939  0.4718  0.0015 -0.2269
 4057TIP3    H133662   0.386   2.204  13.934  0.4563 -2.1469 -1.8911
 4057TIP3    H233663   0.263   2.254  13.862  0.2841 -1.1257 -0.9132
 4058TIP3   OH233664   4.227   6.699  10.891 -0.2784 -0.3580  0.1497
 4058TIP3    H133665   4.169   6.729  10.821 -0.6371  0.6930  0.8828
 4058TIP3    H233666   4.169   6.677  10.964  0.1052 -1.2809  0.1906
 4059TIP3   OH233667   1.974   3.743   1.345 -0.6176 -0.0427 -0.0908
 4059TIP3    H133668   2.021   3.684   1.286  0.4968  0.1374  0.5963
 4059TIP3    H233669   1.918   3.686   1.397  0.0498 -0.4459  0.1978
 4060TIP3   OH233670   3.587   1.887  14.759  0.3137  0.4476  0.3632
 4060TIP3    H133671   3.574   1.981  14.745  3.2381  0.6598 -2.3472
 4060TIP3    H233672   3.605   1.878  14.852  1.4239  2.8538  0.4504
 4061TIP3   OH233673   1.751   1.201  12.659  0.2681  0.1124 -0.0938
 4061TIP3    H133674   1.683   1.239  12.603 -0.1050  2.1317  1.5762
 4061TIP3    H233675   1.788   1.130  12.608 -1.2501  0.7154 -2.1549
 4062TIP3   OH233676   3.021   0.767   1.406 -0.5381 -0.1337 -0.3080
 4062TIP3    H133677   2.935   0.757   1.366 -1.1433 -0.1682  0.9406
 4062TIP3    H233678   3.075   0.699   1.366 -1.8646 -1.9808  0.8841
 4063TIP3   OH233679   6.779   0.532   2.025 -1.0692  0.1280 -0.0073
 4063TIP3    H133680   6.791   0.560   2.116  0.3946 -3.3183  1.0230
 4063TIP3    H233681   6.687   0.549   2.007 -1.5026  0.5496  2.2702
 4064TIP3   OH233682   6.862   0.527  11.199 -0.2566 -0.0939 -0.3521
 4064TIP3    H133683   6.771   0.512  11.224  0.1989 -1.6936  0.4396
 4064TIP3    H233684   6.882   0.456  11.138  0.8550 -0.5832  0.5526
 4065TIP3   OH233685   0.981   5.472   4.099  0.1205  0.2132 -0.0170
 4065TIP3    H133686   1.067   5.489   4.060 -0.2007  2.0746  0.0246
 4065TIP3    H233687   0.976   5.532   4.174 -1.2219  0.1523 -0.0360
 4066TIP3   OH233688   5.667   5.674   3.118  0.3140 -0.2330  0.2677
 4066TIP3    H133689   5.690   5.584   3.096  0.1016  0.1669 -1.8293
 4066TIP3    H233690   5.619   5.667   3.200 -0.9158 -2.2096 -0.5403
 4067TIP3   OH233691   5.923   5.998   0.848  0.0473 -0.3684 -0.4338
 4067TIP3    H133692   5.992   5.974   0.787  1.1058 -2.0206  1.2800
 4067TIP3    H233693   5.843   5.996   0.796  1.0919  0.2431 -2.1640
 4068TIP3   OH233694   3.626   3.500  15.787 -0.0001  0.1966  0.4806
 4068TIP3    H133695   3.674   3.437  15.733  0.1448  1.1003 -0.4956
 4068TIP3    H233696   3.651   3.585  15.751 -1.5645  0.7355  0.6116
 4069TIP3   OH233697   0.050   2.531  14.610 -0.1945 -0.0663  0.1677
 4069TIP3    H133698   0.129   2.516  14.559 -0.9327 -0.8373 -0.7840
 4069TIP3    H233699   0.082   2.563  14.695  1.1785 -1.2317  0.1250
 4070TIP3   OH233700   6.685   3.513  10.796 -0.0453 -0.2708  0.6123
 4070TIP3    H133701   6.659   3.593  10.840  1.6815  0.8243 -0.2547
 4070TIP3    H233702   6.705   3.540  10.707 -0.2134 -1.8347  0.0697
 4071TIP3   OH233703   6.694   6.605   1.370 -0.2437  0.5849 -0.0323
 4071TIP3    H133704   6.631   6.634   1.436 -0.3020  0.7617 -0.1675
 4071TIP3    H233705   6.681   6.663   1.296 -0.3771  0.2010 -0.3152
 4072TIP3   OH233706   3.604   1.364  13.450 -0.1329 -0.0927  0.2201
 4072TIP3    H133707   3.583   1.420  13.525  0.2723 -0.2118  0.4247
 4072TIP3    H233708   3.690   1.327  13.471  0.3651  0.5119 -0.6796
 4073TIP3   OH233709   2.457   5.924  12.112 -0.1139 -0.2480  0.2464
 4073TIP3    H133710   2.422   5.836  12.104  1.4066 -0.7399 -1.6410
 4073TIP3    H233711   2.537   5.914  12.163 -0.1664  0.1212  0.4057
 4074TIP3   OH233712   5.011   0.870   0.128  0.7364 -0.0211 -0.3459
 4074TIP3    H133713   5.046   0.941   0.181 -0.5934  1.4269 -1.2975
 4074TIP3    H233714   5.047   0.790   0.167  1.4333  1.0952  1.4198
 4075TIP3   OH233715   1.489   6.275   1.765  0.5652 -0.3183 -0.5853
 4075TIP3    H133716   1.490   6.181   1.746 -1.4779 -0.6368  0.6517
 4075TIP3    H233717   1.398   6.295   1.786  0.9608  1.9474 -0.7258
 4076TIP3   OH233718   3.651   5.900   1.303  0.7656  0.0031 -0.1452
 4076TIP3    H133719   3.711   5.947   1.362  0.1410  0.4167  0.1712
 4076TIP3    H233720   3.582   5.964   1.284  0.2479 -0.5815 -0.2383
 4077TIP3   OH233721   0.375   5.746   5.664 -0.5146 -0.2241  0.0089
 4077TIP3    H133722   0.435   5.726   5.593 -0.5176  0.6793 -0.2710
 4077TIP3    H233723   0.432   5.761   5.740 -0.2746  1.4339 -0.4399
 4078TIP3   OH233724   3.410   6.744  15.442 -1.0319 -0.1227  0.5585
 4078TIP3    H133725   3.458   6.786  15.514  1.0493 -1.2227 -0.0914
 4078TIP3    H233726   3.332   6.708  15.483  0.5831 -1.5961  2.5452
 4079TIP3   OH233727   4.027   5.399   4.017  0.0220 -0.0359  0.4716
 4079TIP3    H133728   4.118   5.381   3.994 -0.1046 -3.0960  1.8506
 4079TIP3    H233729   3.976   5.339   3.963 -1.1864  1.1688  0.2063
 4080TIP3   OH233730   6.098   5.924   1.544  0.1172  0.9006  0.3455
 4080TIP3    H133731   6.072   5.993   1.482 -2.0200  1.3535  1.6389
 4080TIP3    H233732   6.093   5.843   1.493  3.5576  1.6620 -1.4530
 4081TIP3   OH233733   6.886   1.542   2.692  0.3440 -0.7886  0.2704
 4081TIP3    H133734   6.910   1.635   2.689 -0.6198 -0.5431 -0.0010
 4081TIP3    H233735   6.839   1.532   2.775  0.1233 -0.9575  0.1265
 4082TIP3   OH233736   1.376   4.577   2.376 -0.6369  0.1793  0.3848
 4082TIP3    H133737   1.433   4.642   2.417 -1.2464  1.5338 -0.8549
 4082TIP3    H233738   1.329   4.537   2.449  2.0898 -1.2453  1.4929
 4083TIP3   OH233739   5.204   3.516  15.411  0.1055 -0.2411  0.0061
 4083TIP3    H133740   5.109   3.524  15.408  0.1033 -0.1669  0.2634
 4083TIP3    H233741   5.221   3.454  15.482  0.3084  0.9668  1.0538
 4084TIP3   OH233742   1.911   1.068   5.404 -0.4489  0.1482 -0.2844
 4084TIP3    H133743   1.906   1.155   5.442 -2.0719  0.0286 -0.1137
 4084TIP3    H233744   1.853   1.015   5.460  0.8070 -1.1379 -0.1408
 4085TIP3   OH233745   1.968   2.714   1.572 -0.3204  0.1127 -0.9450
 4085TIP3    H133746   1.981   2.727   1.478  1.3770 -1.3296 -0.9699
 4085TIP3    H233747   2.051   2.744   1.611 -1.0680  0.8513  0.1194
 4086TIP3   OH233748   2.995   2.790   4.927  0.5427 -0.2741 -0.1388
 4086TIP3    H133749   3.080   2.829   4.945  1.2273 -1.4187 -0.7648
 4086TIP3    H233750   2.934   2.863   4.930  1.4732  0.4976  0.7728
 4087TIP3   OH233751   2.413   0.883  16.508  0.5754 -0.6367 -0.4758
 4087TIP3    H133752   2.338   0.915  16.558  0.7471  1.3889 -1.4368
 4087TIP3    H233753   2.379   0.810  16.457 -0.3730 -0.6497  0.1527
 4088TIP3   OH233754   2.758   3.056  12.191  0.8673  0.7053 -0.3704
 4088TIP3    H133755   2.841   3.057  12.238  0.2656 -0.4036  0.7847
 4088TIP3    H233756   2.766   2.985  12.128  0.1432 -0.7673  1.1027
 4089TIP3   OH233757   6.477   4.080   0.676  0.3699 -0.0460  0.2029
 4089TIP3    H133758   6.508   3.993   0.701  0.4981 -0.7852 -2.2303
 4089TIP3    H233759   6.395   4.065   0.630 -1.7668  1.5652  3.1950
 4090TIP3   OH233760   0.945   2.128  11.707 -0.4424  0.1818  0.5402
 4090TIP3    H133761   0.856   2.165  11.714 -1.7084 -2.7281  1.3066
 4090TIP3    H233762   0.965   2.098  11.795  1.3562  0.7372  0.3645
 4091TIP3   OH233763   6.380   3.905   4.074  0.3763  0.3458 -0.6277
 4091TIP3    H133764   6.314   3.897   4.143  3.0430  0.3562  2.0988
 4091TIP3    H233765   6.399   3.814   4.049  0.8389  0.2172  0.1556
 4092TIP3   OH233766   4.502   1.763  13.155 -0.0655 -0.2342 -0.1797
 4092TIP3    H133767   4.440   1.746  13.083 -0.9935  1.8638  0.0720
 4092TIP3    H233768   4.551   1.840  13.127  0.6083 -0.3022  0.7893
 4093TIP3   OH233769   5.323   2.871  14.024  0.1912  0.0855  0.2047
 4093TIP3    H133770   5.365   2.879  14.110 -0.2480  0.5302  0.3864
 4093TIP3    H233771   5.229   2.868  14.045  0.1346 -1.6187 -0.1307
 4094TIP3   OH233772   5.106   5.824  11.444 -0.3298  1.0244  0.4908
 4094TIP3    H133773   5.171   5.843  11.512 -2.4384  1.1063  2.6339
 4094TIP3    H233774   5.057   5.749  11.478  0.6043 -1.1025 -2.5461
 4095TIP3   OH233775   4.929   2.001  10.384 -0.0686  0.4714  0.3671
 4095TIP3    H133776   4.845   1.958  10.398 -0.1020  0.8435  1.3216
 4095TIP3    H233777   4.988   1.930  10.359 -0.4299  0.0717  0.6447
 4096TIP3   OH233778   6.426   2.838   2.372 -0.5440 -0.5519  0.3361
 4096TIP3    H133779   6.394   2.889   2.447 -0.7958 -0.5302  0.2171
 4096TIP3    H233780   6.438   2.903   2.303 -2.0593 -0.8065 -0.2050
 4097TIP3   OH233781   0.028   1.434   6.270 -0.4195  0.6178  0.3547
 4097TIP3    H133782   0.021   1.338   6.271  0.1555  0.5492  2.5923
 4097TIP3    H233783  -0.062   1.464   6.261 -0.5701 -0.0932 -0.8592
 4098TIP3   OH233784   3.173   2.272  13.994 -0.0943  0.5932 -0.2770
 4098TIP3    H133785   3.223   2.195  13.966 -0.3136 -0.2570  1.5118
 4098TIP3    H233786   3.228   2.346  13.971  1.1800 -0.2292  0.0284
 4099TIP3   OH233787   3.181   3.478   4.017 -0.0662  0.2735 -0.1833
 4099TIP3    H133788   3.214   3.542   4.081  2.0763 -1.0883  0.1813
 4099TIP3    H233789   3.232   3.495   3.938 -3.0732  2.3057 -1.8855
 4100TIP3   OH233790   0.045   3.997  14.819  0.2296  0.1589 -0.4414
 4100TIP3    H133791   0.076   3.941  14.890 -1.5064 -1.1518 -0.6656
 4100TIP3    H233792  -0.039   4.030  14.848 -0.6524 -0.6344 -1.9661
 4101TIP3   OH233793   6.123   4.058  16.263 -0.0349 -0.1009  0.3198
 4101TIP3    H133794   6.120   4.117  16.339 -2.6559 -0.9607  0.9700
 4101TIP3    H233795   6.035   4.062  16.227  1.1405  0.2728 -2.7579
 4102TIP3   OH233796   0.348   5.998  11.407 -0.1105 -0.2801  0.0350
 4102TIP3    H133797   0.285   6.069  11.395 -1.7879 -1.3239  2.0778
 4102TIP3    H233798   0.377   5.977  11.318 -1.8581  0.9527 -0.8865
 4103TIP3   OH233799   3.172   3.306   0.339  0.3204 -0.1169  0.1360
 4103TIP3    H133800   3.155   3.248   0.265  1.4601 -0.9612  0.5160
 4103TIP3    H233801   3.265   3.327   0.333  0.4177 -0.1425  1.2848
 4104TIP3   OH233802   3.311   4.313  16.506  0.0981 -0.1265 -0.5537
 4104TIP3    H133803   3.354   4.394  16.477 -1.6614  0.8557 -0.5634
 4104TIP3    H233804   3.381   4.261  16.543  1.3312  1.3200 -0.7497
 4105TIP3   OH233805   2.385   1.201   0.859  0.1015  0.5620 -0.2491
 4105TIP3    H133806   2.298   1.218   0.896 -1.0804  0.3278 -2.7021
 4105TIP3    H233807   2.380   1.237   0.770  1.6005 -1.8777 -1.4100
 4106TIP3   OH233808   6.604   5.793   6.407  0.3084 -0.0407  0.3453
 4106TIP3    H133809   6.586   5.700   6.394  1.7412  0.0137 -2.9015
 4106TIP3    H233810   6.692   5.794   6.446  0.2919 -0.0558  0.3828
 4107TIP3   OH233811   3.328   6.679  14.316 -0.3625  0.0694  0.1073
 4107TIP3    H133812   3.419   6.686  14.344 -0.8760 -0.1283  1.9620
 4107TIP3    H233813   3.316   6.586  14.296 -0.4880 -0.1472  1.1430
 4108TIP3   OH233814   1.000   1.997  11.945 -0.4117 -0.3666 -0.3617
 4108TIP3    H133815   1.091   2.000  11.977 -0.4944 -0.0719 -0.1491
 4108TIP3    H233816   0.958   1.929  11.997 -0.8796  0.9555  1.0612
 4109TIP3   OH233817   6.791   1.391  12.009  0.9000 -0.3420 -0.4864
 4109TIP3    H133818   6.794   1.435  12.094 -1.3280  0.0388 -0.5668
 4109TIP3    H233819   6.792   1.462  11.945  0.6339 -0.5406 -0.7125
 4110TIP3   OH233820   5.643   5.359  16.725  0.0585  0.7685 -0.0391
 4110TIP3    H133821   5.603   5.404  16.800 -0.5301  0.2698 -0.0495
 4110TIP3    H233822   5.576   5.298  16.696 -0.7483  2.6753 -2.5461
 4111TIP3   OH233823   3.433   2.520   1.421  0.5197  0.1472  0.3502
 4111TIP3    H133824   3.404   2.603   1.459 -0.2644 -0.5437  1.2939
 4111TIP3    H233825   3.358   2.488   1.373  0.3805 -0.6382  1.0710
 4112TIP3   OH233826   6.386   1.338  10.975  0.3199  0.4697 -0.2020
 4112TIP3    H133827   6.453   1.349  11.043  1.5533 -0.7846 -1.1391
 4112TIP3    H233828   6.393   1.246  10.950 -2.8380 -0.1204  0.6858
 4113TIP3   OH233829   5.727   0.046   1.927 -0.3046  0.3644 -0.1281
 4113TIP3    H133830   5.731  -0.031   1.871 -0.5330 -0.7201  1.3036
 4113TIP3    H233831   5.637   0.047   1.960  0.1157  0.3636  1.0556
 4114TIP3   OH233832   6.591   0.047  14.797 -0.0120 -0.0836 -0.1542
 4114TIP3    H133833   6.601   0.127  14.850 -1.0555  1.0683 -1.6059
 4114TIP3    H233834   6.675   0.036  14.753  0.2583 -0.0051  0.3357
 4115TIP3   OH233835   4.488   4.178   1.461 -0.6647  0.3038 -0.2785
 4115TIP3    H133836   4.481   4.230   1.540 -1.1311  0.6476 -0.5394
 4115TIP3    H233837   4.420   4.213   1.403 -2.3367 -1.8404  0.2537
 4116TIP3   OH233838   0.423   6.314  16.910  0.3888  0.5400 -0.0363
 4116TIP3    H133839   0.477   6.243  16.944  1.5915  1.0674 -0.7600
 4116TIP3    H233840   0.450   6.391  16.960 -0.7747  0.5436  0.6205
 4117TIP3   OH233841   6.071   4.305   2.124  0.0758  0.2426 -0.6128
 4117TIP3    H133842   5.990   4.282   2.171 -0.3513 -0.0717 -1.4807
 4117TIP3    H233843   6.088   4.396   2.149 -1.4521  0.8570 -1.6498
 4118TIP3   OH233844   5.171   3.680   1.590 -0.4323  0.7741 -0.3243
 4118TIP3    H133845   5.243   3.626   1.559 -1.6804 -1.5891  0.5563
 4118TIP3    H233846   5.188   3.691   1.684 -0.5352  1.3341 -0.3703
 4119TIP3   OH233847   0.486   2.521  14.716 -0.0035 -0.3063  0.3518
 4119TIP3    H133848   0.470   2.449  14.778  0.1518  0.2658  1.0728
 4119TIP3    H233849   0.433   2.499  14.640  1.3885 -2.0999 -0.1703
 4120TIP3   OH233850   6.068   4.201  15.299  0.2928  1.0503  0.3740
 4120TIP3    H133851   5.976   4.189  15.277  0.1721  1.4677  0.6373
 4120TIP3    H233852   6.068   4.274  15.360  0.6080 -0.0640  1.7807
 4121TIP3   OH233853   2.464   5.960   4.351 -0.0876  0.1595  0.3539
 4121TIP3    H133854   2.463   5.869   4.378  2.1656  0.3694  1.3669
 4121TIP3    H233855   2.495   6.008   4.428  2.9108  1.2309 -1.3650
 4122TIP3   OH233856   6.101   0.580   3.234  0.5659 -0.2159 -0.2824
 4122TIP3    H133857   6.190   0.542   3.232  0.1707 -1.1594 -0.5979
 4122TIP3    H233858   6.091   0.620   3.147  0.3476 -0.9257 -0.5915
 4123TIP3   OH233859   2.132   0.454  15.208 -0.1576 -0.5673  0.0338
 4123TIP3    H133860   2.226   0.441  15.195  0.2246  0.1771  1.7212
 4123TIP3    H233861   2.098   0.366  15.225 -0.0549 -1.0380 -1.9731
 4124TIP3   OH233862   1.765   0.049  16.206  0.3285  0.0407  0.0661
 4124TIP3    H133863   1.829   0.119  16.199  0.2406  0.0322 -1.0280
 4124TIP3    H233864   1.814  -0.026  16.241  0.9733 -0.0219 -0.9354
 4125TIP3   OH233865   3.742   2.906   6.139  0.4819 -0.1365  0.9038
 4125TIP3    H133866   3.692   2.826   6.124 -0.0965  0.4942 -0.8077
 4125TIP3    H233867   3.682   2.963   6.188 -1.0891  1.0689 -2.1455
 4126TIP3   OH233868   6.696   4.993  13.439 -0.4263  0.5207  0.0412
 4126TIP3    H133869   6.755   4.941  13.385  0.3580  0.0595  1.3149
 4126TIP3    H233870   6.689   5.077  13.393  1.8097  0.8511  0.2166
 4127TIP3   OH233871   4.143   6.109  13.811  0.4914  0.1106 -0.5157
 4127TIP3    H133872   4.062   6.146  13.847  0.6089 -0.4239  0.3396
 4127TIP3    H233873   4.150   6.023  13.852  1.0072 -0.2364 -1.3144
 4128TIP3   OH233874   0.106   6.154   0.254 -0.0642 -0.1273 -0.3947
 4128TIP3    H133875   0.077   6.081   0.309 -0.5041 -0.3207 -0.8764
 4128TIP3    H233876   0.117   6.115   0.167 -1.1852  0.5644 -0.8662
 4129TIP3   OH233877   0.464   0.025  12.363  0.9389  0.1158  0.1899
 4129TIP3    H133878   0.465   0.002  12.270 -3.9815 -0.2066 -0.0057
 4129TIP3    H233879   0.426   0.113  12.365  1.6966  0.4311  1.9192
 4130TIP3   OH233880   0.543   2.977  11.447  0.1129  0.0721  0.2279
 4130TIP3    H133881   0.552   3.067  11.478 -0.1231  0.3259 -0.4259
 4130TIP3    H233882   0.451   2.971  11.419  0.4461 -0.0046 -0.8666
 4131TIP3   OH233883   4.226   1.316  15.496  0.4432  0.1941  0.5088
 4131TIP3    H133884   4.247   1.264  15.419  1.0686  1.5662 -0.2785
 4131TIP3    H233885   4.222   1.252  15.568 -0.0681 -1.0909 -0.6196
 4132TIP3   OH233886   2.641   3.674   2.973 -0.2539 -0.4100  0.0040
 4132TIP3    H133887   2.715   3.678   3.033  0.1315 -1.4097 -0.3672
 4132TIP3    H233888   2.567   3.708   3.022  0.6008  1.3925  0.1132
 4133TIP3   OH233889   4.563   4.504   2.626  0.2377  0.0148 -0.1822
 4133TIP3    H133890   4.536   4.426   2.676  0.2819 -0.3829 -0.7730
 4133TIP3    H233891   4.558   4.575   2.690  0.6722 -0.5482  0.5044
 4134TIP3   OH233892   2.703   5.413  16.706  0.4545  0.2592  0.2808
 4134TIP3    H133893   2.693   5.506  16.726 -0.0646 -0.0787  1.7566
 4134TIP3    H233894   2.741   5.375  16.785  1.3672 -0.6831 -0.5720
 4135TIP3   OH233895   0.415   5.371   2.851  0.4958 -0.0550  0.3160
 4135TIP3    H133896   0.394   5.393   2.760  2.2363 -0.0849 -0.1218
 4135TIP3    H233897   0.436   5.455   2.892 -0.2178 -0.0499  0.7084
 4136TIP3   OH233898   2.004   1.264  11.736  0.1119  0.3533  0.3640
 4136TIP3    H133899   2.094   1.293  11.748 -0.0844  0.3881  2.0387
 4136TIP3    H233900   1.968   1.323  11.670  1.6102 -0.3891 -1.1921
 4137TIP3   OH233901   3.886   2.993  14.876  0.0929 -0.1682 -0.0777
 4137TIP3    H133902   3.937   3.074  14.875 -1.3226  0.7612  0.0199
 4137TIP3    H233903   3.875   2.971  14.784 -1.0473  0.7807 -0.1897
 4138TIP3   OH233904   2.511   0.432  13.412  0.5414  0.3226  0.0861
 4138TIP3    H133905   2.431   0.433  13.465 -0.5258 -1.3818 -1.3603
 4138TIP3    H233906   2.505   0.510  13.357 -0.3537 -0.0113 -0.3014
 4139TIP3   OH233907   0.117   0.013  15.815  0.2660  0.2324  0.3722
 4139TIP3    H133908   0.036   0.032  15.767  0.6844 -0.2943 -0.5689
 4139TIP3    H233909   0.121   0.082  15.882  0.1009  1.5153 -0.8784
 4140TIP3   OH233910   5.385   5.903  11.274 -0.1364 -0.0756 -1.0796
 4140TIP3    H133911   5.373   5.815  11.238 -2.4878  0.0904 -0.8758
 4140TIP3    H233912   5.344   5.961  11.210  1.2910  0.8921 -1.1611
 4141TIP3   OH233913   3.260   3.097   5.656  0.7694 -0.6067 -0.0058
 4141TIP3    H133914   3.313   3.040   5.711 -0.8996 -0.4273  1.9091
 4141TIP3    H233915   3.170   3.071   5.674  0.1004 -1.2644 -3.5288
 4142TIP3   OH233916   3.359   6.026  16.514  0.6529  0.7611 -0.6764
 4142TIP3    H133917   3.279   6.040  16.463 -0.4539  0.7326  0.9756
 4142TIP3    H233918   3.421   5.988  16.451 -0.6326  0.7299 -1.9888
 4143TIP3   OH233919   4.043   4.656  16.106  0.1911  0.4734  0.1744
 4143TIP3    H133920   4.120   4.695  16.149 -0.2548  0.4838  0.9725
 4143TIP3    H233921   4.048   4.688  16.016  1.9412 -0.6950 -0.2054
 4144TIP3   OH233922   5.231   2.964  15.867 -0.2975  0.1263 -0.2960
 4144TIP3    H133923   5.275   2.895  15.917 -0.2272  0.7677  0.5537
 4144TIP3    H233924   5.294   3.037  15.866 -0.6731  0.4535 -0.5109
 4145TIP3   OH233925   3.997   1.291  12.689 -0.2757 -0.8000 -0.6012
 4145TIP3    H133926   3.963   1.239  12.763 -0.8700 -0.8813 -0.9232
 4145TIP3    H233927   3.931   1.280  12.621 -0.3999  0.3495 -0.6864
 4146TIP3   OH233928   3.867   3.585   5.463  0.0416 -0.6723 -0.3504
 4146TIP3    H133929   3.916   3.528   5.404 -0.2399 -0.3424 -0.9133
 4146TIP3    H233930   3.889   3.674   5.433  0.1834 -0.4942  0.2769
 4147TIP3   OH233931   0.495   3.587  13.675 -0.0180 -0.1957 -0.5502
 4147TIP3    H133932   0.541   3.546  13.602 -0.6912 -0.6593 -0.7258
 4147TIP3    H233933   0.423   3.634  13.634  0.3491  0.6066 -0.2853
 4148TIP3   OH233934   4.271   0.756  16.053  0.7320 -0.2536  0.1341
 4148TIP3    H133935   4.308   0.841  16.033 -0.1960 -0.1800 -1.4296
 4148TIP3    H233936   4.185   0.756  16.011 -1.1470 -0.4232  3.5335
 4149TIP3   OH233937   6.440   2.014  14.831 -0.0875 -0.4924  0.1899
 4149TIP3    H133938   6.422   2.005  14.737  0.1745  0.3548  0.0507
 4149TIP3    H233939   6.464   2.106  14.842 -2.1248 -0.0354  1.4194
 4150TIP3   OH233940   3.419   1.217  15.100  0.8548 -0.1629  0.3708
 4150TIP3    H133941   3.416   1.197  15.193 -0.2649 -1.6774  0.0534
 4150TIP3    H233942   3.380   1.304  15.093  0.4585 -0.2572  1.2747
 4151TIP3   OH233943   5.999   2.259   2.578 -0.2898  0.1276 -0.6893
 4151TIP3    H133944   5.964   2.325   2.518  0.4224 -0.4208 -1.7393
 4151TIP3    H233945   5.926   2.198   2.591 -0.6370  0.5730 -0.5148
 4152TIP3   OH233946   5.685   4.538   1.554 -0.0915  0.4180  0.0855
 4152TIP3    H133947   5.721   4.539   1.643  1.3739 -0.2503 -0.4655
 4152TIP3    H233948   5.665   4.446   1.537 -1.9734  0.7383  0.2973
 4153TIP3   OH233949   3.821   2.496   3.694  0.2576 -0.1390  0.2723
 4153TIP3    H133950   3.733   2.524   3.669  0.5817  2.3116  1.5455
 4153TIP3    H233951   3.834   2.533   3.781  2.0376 -1.6732  0.7242
 4154TIP3   OH233952   2.546   6.568  16.050 -0.1287 -0.3498  0.0379
 4154TIP3    H133953   2.496   6.495  16.084 -0.3291  0.3720  1.3432
 4154TIP3    H233954   2.488   6.610  15.987  0.3001 -1.7825 -1.3790
 4155TIP3   OH233955   3.986   0.012  14.662 -0.3025  0.2337  0.0740
 4155TIP3    H133956   3.904  -0.016  14.622  0.2400 -1.2317 -0.0451
 4155TIP3    H233957   4.051   0.004  14.593  0.1424  0.3460  0.4763
 4156TIP3   OH233958   6.021   2.002   2.404  0.0057  0.1024 -0.2799
 4156TIP3    H133959   6.017   1.912   2.374  0.0366  0.6600 -2.0840
 4156TIP3    H233960   6.103   2.036   2.366  0.6553  0.5593  1.4132
 4157TIP3   OH233961   5.126   2.897   0.540 -0.2872 -0.0184 -0.2556
 4157TIP3    H133962   5.165   2.824   0.492 -1.9900 -1.6866  0.7369
 4157TIP3    H233963   5.099   2.960   0.473  0.4960 -0.6641 -1.1929
 4158TIP3   OH233964   5.873   4.763  14.918 -0.5562 -0.1691 -0.3861
 4158TIP3    H133965   5.867   4.677  14.960  0.1876  0.2133  0.5198
 4158TIP3    H233966   5.861   4.825  14.989  0.7661  0.4896 -0.7174
 4159TIP3   OH233967   6.858   2.169   2.782  0.1016  0.4923 -0.2045
 4159TIP3    H133968   6.848   2.096   2.721 -0.4441  0.5273 -0.1645
 4159TIP3    H233969   6.946   2.158   2.818 -0.2411 -0.6017  0.3731
 4160TIP3   OH233970   5.982   6.873  10.173  0.2026 -0.2227 -0.2837
 4160TIP3    H133971   5.896   6.883  10.214  0.5900  0.2096  0.4581
 4160TIP3    H233972   6.044   6.889  10.245  0.9155  0.8200 -1.1164
 4161TIP3   OH233973   2.606   2.601  10.629 -0.0619  0.1459 -0.2150
 4161TIP3    H133974   2.524   2.648  10.643 -0.6062 -0.6525 -0.6545
 4161TIP3    H233975   2.587   2.510  10.653  0.7807  0.0024 -0.0269
 4162TIP3   OH233976   3.001   5.877  11.277 -0.4390 -0.2783 -0.1737
 4162TIP3    H133977   2.952   5.910  11.353  0.5304  2.6946 -0.7346
 4162TIP3    H233978   3.093   5.887  11.300 -0.0879  1.9293 -2.1159
 4163TIP3   OH233979   3.583   0.110  12.317  0.0636 -0.0304 -0.1176
 4163TIP3    H133980   3.602   0.134  12.408 -1.4944 -1.7238  0.7062
 4163TIP3    H233981   3.499   0.151  12.298  0.3705  0.2947 -0.8099
 4164TIP3   OH233982   3.829   6.780   3.278  0.5341 -0.3367 -0.5452
 4164TIP3    H133983   3.815   6.687   3.256 -1.4834  0.3765 -2.8103
 4164TIP3    H233984   3.863   6.818   3.197  1.0260  0.9841  0.2584
 4165TIP3   OH233985   5.575   4.517  12.091  0.2112  0.3981 -0.4411
 4165TIP3    H133986   5.525   4.502  12.170 -1.0708  0.2302 -1.2585
 4165TIP3    H233987   5.510   4.521  12.021  1.4038 -0.9485 -1.7059
 4166TIP3   OH233988   5.393   4.944  15.393 -0.5097 -0.6538 -0.5322
 4166TIP3    H133989   5.404   5.015  15.457 -0.0748 -1.3367  0.1689
 4166TIP3    H233990   5.457   4.878  15.420 -0.7620 -1.2232 -1.3073
 4167TIP3   OH233991   2.713   5.355   2.207 -0.3252  0.4908  0.1779
 4167TIP3    H133992   2.653   5.333   2.278  0.3362  0.7219  0.8221
 4167TIP3    H233993   2.666   5.331   2.127 -0.9092 -0.1799  0.7119
 4168TIP3   OH233994   0.175   2.279   3.952  0.2509 -0.3064  0.9692
 4168TIP3    H133995   0.253   2.331   3.972  1.0197 -1.3802  0.8508
 4168TIP3    H233996   0.196   2.191   3.982  0.0255 -1.1675 -1.1872
 4169TIP3   OH233997   2.537   6.192   0.250  0.2880 -0.1356  0.1141
 4169TIP3    H133998   2.484   6.148   0.317  0.4666 -0.2137  0.2042
 4169TIP3    H233999   2.482   6.191   0.172  0.2765 -0.4897  0.1244
 4170TIP3   OH234000   6.055   2.900   5.410  0.0926 -0.2678  0.5972
 4170TIP3    H134001   5.972   2.858   5.429 -0.1940  0.4102  0.8673
 4170TIP3    H234002   6.093   2.919   5.496  0.6343 -0.7707  0.4786
 4171TIP3   OH234003   5.600   3.705   2.080 -0.2334  0.0850 -1.0763
 4171TIP3    H134004   5.611   3.798   2.100  0.8051 -0.1052 -0.7422
 4171TIP3    H234005   5.519   3.702   2.029 -2.6243  0.6660  2.3395
 4172TIP3   OH234006   5.467   0.672  13.321 -0.3538  0.3458 -0.0125
 4172TIP3    H134007   5.448   0.609  13.390 -0.0205  1.7048  1.3772
 4172TIP3    H234008   5.545   0.636  13.277 -0.9722 -0.8742 -0.1478
 4173TIP3   OH234009   4.811   1.076  15.447  0.1570 -0.2999 -1.4519
 4173TIP3    H134010   4.885   1.040  15.495  0.4474  0.6301 -1.1776
 4173TIP3    H234011   4.751   1.002  15.436  0.6721 -0.8270 -0.8005
 4174TIP3   OH234012   6.359   4.950   4.731  0.4900 -0.4959 -0.0125
 4174TIP3    H134013   6.426   4.951   4.800  0.5939  0.7342 -0.1036
 4174TIP3    H234014   6.404   4.986   4.654 -0.4270  1.0123  0.1068
 4175TIP3   OH234015   4.403   3.575  13.762  0.2709  0.2321 -1.1095
 4175TIP3    H134016   4.404   3.618  13.676  1.5464  2.1234 -0.2337
 4175TIP3    H234017   4.316   3.536  13.769 -0.7836  2.2097 -2.2646
 4176TIP3   OH234018   3.963   1.540  11.088  0.0482  0.5961  0.2122
 4176TIP3    H134019   4.029   1.529  11.019  0.0557  1.8567 -0.0155
 4176TIP3    H234020   3.899   1.600  11.050  0.4440  1.9207  1.5375
 4177TIP3   OH234021   1.207   6.746   6.189  0.1395 -0.1342 -0.0754
 4177TIP3    H134022   1.166   6.713   6.268 -2.5997  0.8786 -0.9720
 4177TIP3    H234023   1.140   6.799   6.146  2.3025  1.3956 -1.8553
 4178TIP3   OH234024   1.802   1.357  16.020  1.1571  0.0563 -0.1486
 4178TIP3    H134025   1.798   1.298  15.944  1.6759 -1.3616  0.8686
 4178TIP3    H234026   1.735   1.423  16.004  1.2526 -0.2169 -1.8258
 4179TIP3   OH234027   2.886   5.982  11.728  0.6874  0.1264  0.5607
 4179TIP3    H134028   2.890   5.906  11.670  0.6645  0.6466 -0.1383
 4179TIP3    H234029   2.967   5.977  11.780  1.5085  0.5154 -0.6350
 4180TIP3   OH234030   1.236   3.326  12.715  0.0319 -0.0596 -0.4481
 4180TIP3    H134031   1.326   3.292  12.715 -0.1599 -0.6439  1.0255
 4180TIP3    H234032   1.209   3.322  12.807 -0.5167  2.7911 -0.3852
 4181TIP3   OH234033   4.266   4.265  16.669  0.0901  0.7505 -0.2119
 4181TIP3    H134034   4.314   4.330  16.721  0.1832  0.2014  0.3877
 4181TIP3    H234035   4.328   4.239  16.601 -0.0450  1.4933 -0.6349
 4182TIP3   OH234036   0.447   3.054   1.870 -0.6478 -0.6062  0.5644
 4182TIP3    H134037   0.456   2.973   1.820  0.0303  0.3311 -0.9013
 4182TIP3    H234038   0.355   3.056   1.897 -0.6484 -1.8855  0.6946
 4183TIP3   OH234039   4.826   4.151  13.664  0.3119  0.4241 -0.1639
 4183TIP3    H134040   4.818   4.189  13.751 -2.1008  1.5893 -0.8158
 4183TIP3    H234041   4.918   4.167  13.639  0.8941  0.5380  1.8988
 4184TIP3   OH234042   3.364   2.060  15.485 -0.0576 -0.3081  0.6770
 4184TIP3    H134043   3.343   2.152  15.467  0.0451 -0.3122  0.5380
 4184TIP3    H234044   3.418   2.063  15.564 -0.9150 -0.3281  1.2833
 4185TIP3   OH234045   4.445   3.132   6.747 -0.1604  0.1135  0.0444
 4185TIP3    H134046   4.457   3.056   6.804 -0.6667  0.0512  0.0680
 4185TIP3    H234047   4.488   3.204   6.794  1.3571 -0.3937 -0.5204
 4186TIP3   OH234048   0.679   5.142  15.385  0.2688 -0.8260 -0.3417
 4186TIP3    H134049   0.681   5.058  15.430  1.0732 -0.4016  0.4515
 4186TIP3    H234050   0.636   5.124  15.301 -1.0996 -1.6780  0.5100
 4187TIP3   OH234051   4.022   2.458  14.796  0.3425  0.4714  0.6194
 4187TIP3    H134052   3.947   2.508  14.764  0.2228 -0.3242 -0.3886
 4187TIP3    H234053   4.063   2.423  14.717  1.9937  1.1717  1.1225
 4188TIP3   OH234054   4.388   4.820   0.248 -0.6305 -0.2044 -0.5668
 4188TIP3    H134055   4.385   4.825   0.152 -0.3586  1.3356 -0.5259
 4188TIP3    H234056   4.296   4.816   0.275 -0.8284  1.6397 -0.8398
 4189TIP3   OH234057   4.677   6.228  12.366 -0.0924  0.1731 -0.0578
 4189TIP3    H134058   4.759   6.236  12.318 -0.6066 -0.1195 -1.0160
 4189TIP3    H234059   4.684   6.144  12.412  0.2739  0.3021  0.1235
 4190TIP3   OH234060   1.906   0.126   1.346  0.2558 -0.2695  0.3321
 4190TIP3    H134061   1.853   0.134   1.267  0.3490  2.1209  0.4469
 4190TIP3    H234062   1.995   0.146   1.318  0.1002  1.9396  1.2047
 4191TIP3   OH234063   5.804   1.741   0.055  0.0222 -0.0614  0.3810
 4191TIP3    H134064   5.822   1.653   0.022  0.6200  0.0609  0.3773
 4191TIP3    H234065   5.886   1.769   0.095 -0.3905  0.1979  1.0585
 4192TIP3   OH234066   0.569   6.257  14.467 -0.3411 -0.7704  0.1910
 4192TIP3    H134067   0.565   6.326  14.534 -2.1198  0.3190 -0.9616
 4192TIP3    H234068   0.516   6.290  14.395  0.8808 -2.2556 -1.4826
 4193TIP3   OH234069   4.809   6.293   3.078 -0.2952 -0.1189 -0.5455
 4193TIP3    H134070   4.794   6.253   3.164  1.8111 -0.8177 -0.4474
 4193TIP3    H234071   4.849   6.378   3.098 -2.6382  1.1279 -0.8148
 4194TIP3   OH234072   6.453   5.616  11.688 -0.1037 -0.0094  0.6753
 4194TIP3    H134073   6.377   5.595  11.634  0.0175  0.3790  0.3472
 4194TIP3    H234074   6.499   5.532  11.698 -1.1072 -0.4484  1.7294
 4195TIP3   OH234075   4.639   2.216  13.127  0.5253  0.6846  0.3428
 4195TIP3    H134076   4.587   2.178  13.198  1.6839 -1.4085  0.1336
 4195TIP3    H234077   4.586   2.290  13.096 -2.6100 -1.5814 -0.1989
 4196TIP3   OH234078   2.098   1.140   3.361  0.0573  0.1901  0.2861
 4196TIP3    H134079   2.118   1.168   3.272  0.4577 -0.4073  0.1839
 4196TIP3    H234080   2.009   1.172   3.377  0.2830  0.9952 -0.0312
 4197TIP3   OH234081   0.904   2.494   0.073  0.0403  0.0071  0.2182
 4197TIP3    H134082   0.922   2.433   0.003  1.4708  0.8977 -0.2299
 4197TIP3    H234083   0.848   2.446   0.134  0.5408 -1.4838 -0.4676
 4198TIP3   OH234084   0.393   2.717  15.524  0.0628  0.3626 -0.3401
 4198TIP3    H134085   0.361   2.690  15.610  0.2723 -0.9511 -0.6479
 4198TIP3    H234086   0.487   2.730  15.536  0.2468 -0.6812 -0.5477
 4199TIP3   OH234087   6.057   5.189  10.936  0.3754 -0.0858 -0.0578
 4199TIP3    H134088   6.125   5.159  10.876  0.2850 -0.2383 -0.0854
 4199TIP3    H234089   6.066   5.134  11.013 -1.4631 -2.0585 -1.1108
 4200TIP3   OH234090   1.658   5.961  11.101 -0.4888 -0.4441  0.3281
 4200TIP3    H134091   1.628   5.927  11.017  0.2981 -3.4660  1.1394
 4200TIP3    H234092   1.753   5.966  11.092 -0.4976  0.4023  0.6510
 4201TIP3   OH234093   1.981   0.861   0.132 -0.5446  0.2397  0.0558
 4201TIP3    H134094   2.001   0.769   0.113  0.5505  0.0693  1.8340
 4201TIP3    H234095   2.006   0.873   0.223 -2.2933  1.8892  0.3741
 4202TIP3   OH234096   5.926   1.291   1.731 -1.0217 -0.0872  0.4847
 4202TIP3    H134097   5.906   1.285   1.824  0.5074  0.3664  0.8657
 4202TIP3    H234098   5.938   1.384   1.715 -0.6793 -0.2189 -0.0429
 4203TIP3   OH234099   6.760   4.741  14.212  0.0319 -0.3548  0.1176
 4203TIP3    H134100   6.835   4.687  14.236 -0.3349 -1.3823 -0.9410
 4203TIP3    H234101   6.798   4.814  14.162  0.3971 -0.3855  0.3461
 4204TIP3   OH234102   3.736   4.504  13.688  0.0505  0.6358 -0.1033
 4204TIP3    H134103   3.796   4.565  13.732 -2.9589  3.6427  0.2201
 4204TIP3    H234104   3.746   4.524  13.595 -0.0192  0.6772 -0.1014
 4205TIP3   OH234105   5.647   3.596  10.589  0.1627 -0.0739  1.1481
 4205TIP3    H134106   5.562   3.570  10.624 -1.0351 -1.9198 -2.6493
 4205TIP3    H234107   5.703   3.519  10.605 -0.0547 -0.4477  0.1776
 4206TIP3   OH234108   5.457   3.470  16.819  0.6692  0.2646  0.4834
 4206TIP3    H134109   5.454   3.425  16.903 -0.1758 -1.0313 -0.1990
 4206TIP3    H234110   5.527   3.426  16.771 -0.5930 -0.8380 -0.4278
 4207TIP3   OH234111   0.955   2.814  14.692 -0.7543  0.4990  0.2751
 4207TIP3    H134112   0.989   2.842  14.776 -2.0400  2.1719  0.3069
 4207TIP3    H234113   0.884   2.754  14.713  1.1407 -1.9111  0.2359
 4208TIP3   OH234114   1.564   5.110  11.239 -0.3052  0.0676 -0.3972
 4208TIP3    H134115   1.469   5.116  11.239 -0.3384 -0.4392 -1.0725
 4208TIP3    H234116   1.590   5.122  11.148  0.2598 -0.0913 -0.2658
 4209TIP3   OH234117   2.922   5.699   0.354  0.4206  0.3908 -0.2363
 4209TIP3    H134118   2.953   5.784   0.385  0.1905  0.3951 -0.0089
 4209TIP3    H234119   2.827   5.704   0.361  0.3464  0.5002 -1.2547
 4210TIP3   OH234120   2.738   2.927   0.385  1.0213  0.3892 -0.1327
 4210TIP3    H134121   2.760   2.869   0.458  1.1553 -0.6872 -1.0111
 4210TIP3    H234122   2.692   2.871   0.322  0.7259  1.3451 -0.7885
 4211TIP3   OH234123   3.766   4.367   2.418 -0.3735  0.0703 -0.3698
 4211TIP3    H134124   3.799   4.429   2.482  0.9562 -1.1420  0.1685
 4211TIP3    H234125   3.728   4.421   2.349 -1.5332  1.4157  1.2377
 4212TIP3   OH234126   3.785   4.400   0.473  0.7496  0.1310 -0.4567
 4212TIP3    H134127   3.854   4.383   0.408  0.0020 -0.5414 -1.0873
 4212TIP3    H234128   3.769   4.316   0.515  1.1637  0.5447  0.5615
 4213TIP3   OH234129   5.342   0.952  16.352  0.0136  0.4600 -0.1037
 4213TIP3    H134130   5.280   0.895  16.398 -1.2923 -0.6048 -2.9786
 4213TIP3    H234131   5.309   1.040  16.366  0.2507  0.2912  1.7840
 4214TIP3   OH234132   5.180   6.866  11.964 -0.4916 -0.0199  0.0821
 4214TIP3    H134133   5.131   6.790  11.994 -1.3685  0.4165 -0.1910
 4214TIP3    H234134   5.129   6.899  11.889 -0.3038  0.9981  0.3784
 4215TIP3   OH234135   5.004   1.067   5.814 -0.0100 -0.7199  0.1145
 4215TIP3    H134136   5.096   1.047   5.798  0.2813 -1.3547  2.3065
 4215TIP3    H234137   5.005   1.139   5.877 -1.0855  1.4024 -2.0784
 4216TIP3   OH234138   4.273   2.146  13.720  0.1819  0.0930 -0.2641
 4216TIP3    H134139   4.350   2.113  13.766  0.1956  0.7194  0.1819
 4216TIP3    H234140   4.199   2.110  13.769  0.1937  1.1346  0.5585
 4217TIP3   OH234141   6.250   6.800   5.885  0.1890  0.7785  0.5780
 4217TIP3    H134142   6.197   6.862   5.834  1.8118  0.1830 -2.0634
 4217TIP3    H234143   6.223   6.714   5.853  2.4019  0.4535 -0.6257
 4218TIP3   OH234144   0.460   4.794  14.624  0.0182  0.0089  0.0778
 4218TIP3    H134145   0.391   4.734  14.653 -1.6709  1.4317 -0.8198
 4218TIP3    H234146   0.529   4.736  14.592 -0.1587 -1.5004  2.1582
 4219TIP3   OH234147   5.310   6.362   3.804 -0.1444 -0.4399  0.0131
 4219TIP3    H134148   5.310   6.298   3.875 -1.0208 -1.4320 -0.8493
 4219TIP3    H234149   5.391   6.411   3.816  0.3610 -1.4560  0.9287
 4220TIP3   OH234150   0.533   2.515   3.527 -0.0415  0.3152  0.3038
 4220TIP3    H134151   0.441   2.540   3.537  0.1060  0.3412  1.8770
 4220TIP3    H234152   0.574   2.542   3.609  0.5039 -3.3387  1.4272
 4221TIP3   OH234153   0.630   0.979   5.953  0.1601 -0.0509  0.6932
 4221TIP3    H134154   0.635   0.947   6.043  0.1957  2.2505  1.5675
 4221TIP3    H234155   0.556   1.040   5.953  0.7769  0.7340 -0.5935
 4222TIP3   OH234156   1.340   3.411  16.127  0.0403 -0.0329  0.2974
 4222TIP3    H134157   1.401   3.485  16.139  0.9483 -0.8087  0.5771
 4222TIP3    H234158   1.255   3.453  16.112  0.2427  1.0887  1.9349
 4223TIP3   OH234159   0.066   1.812  13.876 -0.3699 -0.2181  0.9715
 4223TIP3    H134160   0.085   1.806  13.783 -0.5088 -0.1926  0.9411
 4223TIP3    H234161   0.041   1.723  13.902  1.1436 -0.5708  1.3120
 4224TIP3   OH234162   5.290   0.547   1.847 -0.3493 -0.5246 -1.2249
 4224TIP3    H134163   5.339   0.621   1.812 -0.9538  0.0030 -0.9912
 4224TIP3    H234164   5.251   0.506   1.770 -0.2958 -0.3857 -1.3266
 4225TIP3   OH234165   1.511   2.126  11.539  0.3630  0.0032 -0.1462
 4225TIP3    H134166   1.552   2.041  11.553  1.2827  0.0939 -1.9009
 4225TIP3    H234167   1.421   2.116  11.569  0.8881 -1.0835  1.1507
 4226TIP3   OH234168   6.513   6.759  13.640  0.1016  0.1718 -0.1460
 4226TIP3    H134169   6.435   6.781  13.589 -0.3959  0.4988  0.7416
 4226TIP3    H234170   6.528   6.835  13.696  1.4112  0.3569 -0.7153
 4227TIP3   OH234171   6.443   2.454   0.710 -0.1571  0.2015  0.4377
 4227TIP3    H134172   6.352   2.442   0.739  0.1608 -1.1456  0.9250
 4227TIP3    H234173   6.435   2.491   0.622 -1.2807 -3.0104 -0.9637
 4228TIP3   OH234174   4.693   0.800   0.807 -0.3266 -0.2155 -0.4547
 4228TIP3    H134175   4.680   0.894   0.797 -0.9791 -0.2824 -0.3089
 4228TIP3    H234176   4.773   0.781   0.758  1.3403  0.8372  1.7139
 4229TIP3   OH234177   4.142   5.988   5.297  0.2159  0.2594 -0.4800
 4229TIP3    H134178   4.122   5.924   5.228  0.2821  0.3765 -0.6103
 4229TIP3    H234179   4.173   6.066   5.249  1.4027 -0.0621 -0.2706
 4230TIP3   OH234180   2.159   6.231  11.375 -0.5465  0.2502  0.2239
 4230TIP3    H134181   2.162   6.306  11.316 -1.7093 -0.1066 -0.3039
 4230TIP3    H234182   2.222   6.253  11.444  1.5255  0.2675 -1.5755
 4231TIP3   OH234183   2.463   4.457   3.425 -0.4468 -0.0176 -0.1040
 4231TIP3    H134184   2.419   4.502   3.352  0.6467  0.5656 -0.4195
 4231TIP3    H234185   2.474   4.367   3.394 -2.4568 -0.5017  0.4469
 4232TIP3   OH234186   6.543   2.923  11.443 -0.3608 -0.0396  0.1357
 4232TIP3    H134187   6.634   2.928  11.471 -0.5836  0.3627  0.8211
 4232TIP3    H234188   6.496   2.889  11.520 -0.7793 -0.3340 -0.2400
 4233TIP3   OH234189   0.732   0.400   0.395 -0.2277  0.2029  0.3374
 4233TIP3    H134190   0.790   0.412   0.320  0.7225  0.1668  1.0426
 4233TIP3    H234191   0.777   0.444   0.467 -0.3912 -1.0286  1.2217
 4234TIP3   OH234192   5.752   4.354  12.949 -0.0742  0.2147  0.6049
 4234TIP3    H134193   5.704   4.355  12.866 -1.2217 -0.1960  1.2346
 4234TIP3    H234194   5.693   4.310  13.010  1.3430 -0.7920  1.3019
 4235TIP3   OH234195   0.962   6.071  15.024 -0.3760  0.1625  0.0505
 4235TIP3    H134196   1.010   6.143  15.065 -1.0141  0.1748  0.8009
 4235TIP3    H234197   1.001   6.063  14.937 -0.8009  1.9206 -0.3391
 4236TIP3   OH234198   2.201   3.024   1.059  0.3204 -0.4400 -0.1812
 4236TIP3    H134199   2.229   2.932   1.059 -1.6008 -1.0526  0.0161
 4236TIP3    H234200   2.235   3.058   1.142  1.8091 -0.6774 -0.6475
 4237TIP3   OH234201   2.659   0.944   5.143 -0.1054  0.2680  0.4048
 4237TIP3    H134202   2.601   1.004   5.191  0.3919 -0.0662  1.4538
 4237TIP3    H234203   2.747   0.977   5.161  0.1255 -0.2745  0.2742
 4238TIP3   OH234204   3.259   5.293   4.136  0.6921  0.1628 -0.7973
 4238TIP3    H134205   3.336   5.248   4.101  1.6667  0.8184  0.4045
 4238TIP3    H234206   3.294   5.350   4.204 -0.7906  1.0175 -0.7127
 4239TIP3   OH234207   6.869   2.698   3.509 -0.4230  0.7612 -0.1155
 4239TIP3    H134208   6.826   2.619   3.541  0.6550  0.5865  0.9909
 4239TIP3    H234209   6.886   2.750   3.587  0.9733  1.0019 -0.5414
 4240TIP3   OH234210   5.812   1.217  14.413  0.2806  0.4293  0.4678
 4240TIP3    H134211   5.836   1.136  14.458  1.3384  0.3620 -0.1786
 4240TIP3    H234212   5.763   1.189  14.336 -0.5958  0.4908  0.9891
 4241TIP3   OH234213   4.638   5.370   2.820 -0.1857 -0.0136  0.2127
 4241TIP3    H134214   4.654   5.406   2.907 -1.1895  0.1374  0.3496
 4241TIP3    H234215   4.547   5.341   2.822  0.2091 -1.3761 -0.3208
 4242TIP3   OH234216   2.350   2.197   2.682 -0.1585  0.0124  0.3714
 4242TIP3    H134217   2.256   2.215   2.685  0.1668  1.8478  0.9394
 4242TIP3    H234218   2.357   2.103   2.694 -1.9962 -0.3891 -1.2676
 4243TIP3   OH234219   1.398   1.210   3.602 -0.0372 -0.3490 -0.1949
 4243TIP3    H134220   1.412   1.225   3.508  2.0294 -0.7525  0.0083
 4243TIP3    H234221   1.331   1.274   3.626  0.8923  1.2144 -1.5384
 4244TIP3   OH234222   3.208   3.703  15.126 -0.0521  0.7067 -0.2936
 4244TIP3    H134223   3.131   3.749  15.093 -0.7278 -0.0899  0.1146
 4244TIP3    H234224   3.179   3.665  15.210  0.9661  0.8867  0.1487
 4245TIP3   OH234225   0.095   4.517  15.230  0.3231 -0.0607 -0.1740
 4245TIP3    H134226   0.174   4.540  15.279  0.2409  1.2654 -0.6169
 4245TIP3    H234227   0.071   4.598  15.185 -0.4002 -0.8709 -1.2857
 4246TIP3   OH234228   5.105   4.635  16.315 -0.1274  0.3077  0.2843
 4246TIP3    H134229   5.181   4.630  16.373  0.8860 -1.4846 -1.1020
 4246TIP3    H234230   5.029   4.631  16.374  0.8538 -1.8732  1.5069
 4247TIP3   OH234231   5.533   1.374   2.087  0.1523  0.3461  0.3524
 4247TIP3    H134232   5.447   1.403   2.119  0.1874 -0.0112  0.7815
 4247TIP3    H234233   5.551   1.430   2.012 -1.3239 -0.8038 -0.9465
 4248TIP3   OH234234   4.315   6.786  16.418 -0.0417 -0.0771  0.4945
 4248TIP3    H134235   4.246   6.847  16.446 -0.0800 -0.0445  0.3289
 4248TIP3    H234236   4.271   6.729  16.355  0.2139  0.2634  0.0018
 4249TIP3   OH234237   4.761   1.251   5.132  0.1172 -0.2441 -0.4426
 4249TIP3    H134238   4.855   1.241   5.148 -0.0341  2.0876  3.2446
 4249TIP3    H234239   4.750   1.341   5.104 -1.1158  0.3791  1.7612
 4250TIP3   OH234240   6.460   5.158   3.383 -0.1249 -1.0121  0.1938
 4250TIP3    H134241   6.450   5.166   3.288 -1.2832 -1.1588  0.2889
 4250TIP3    H234242   6.395   5.093   3.408 -0.6748 -0.0892  1.2364
 4251TIP3   OH234243   0.979   0.337  14.513  0.3589  0.6446 -0.7531
 4251TIP3    H134244   1.028   0.255  14.505  0.6841  0.6938  0.5331
 4251TIP3    H234245   0.939   0.350  14.426 -1.2520 -1.8485 -0.4850
 4252TIP3   OH234246   3.203   2.981   6.566 -0.7700  0.6052  0.4505
 4252TIP3    H134247   3.271   2.925   6.529  0.6298  0.6343  2.8315
 4252TIP3    H234248   3.186   3.046   6.497  0.5833 -0.2381 -0.7374
 4253TIP3   OH234249   3.045   5.417  13.565 -0.4618  0.7869 -0.9085
 4253TIP3    H134250   3.134   5.400  13.597 -1.7311 -1.6259  1.7979
 4253TIP3    H234251   3.035   5.359  13.489 -0.0143  0.2943 -0.6009
 4254TIP3   OH234252   1.753   3.287  12.035 -0.2708 -0.1609 -0.3178
 4254TIP3    H134253   1.710   3.344  12.098 -0.2400  0.8245 -1.1706
 4254TIP3    H234254   1.684   3.229  12.004 -0.2824 -0.6620  0.6205
 4255TIP3   OH234255   6.141   4.641  15.741  0.2186 -0.6188 -0.2328
 4255TIP3    H134256   6.209   4.664  15.804  0.3794  0.3349 -0.7405
 4255TIP3    H234257   6.190   4.616  15.662 -0.0004  0.9692 -0.9103
 4256TIP3   OH234258   1.563   5.310   1.706 -0.2722  0.1540 -0.1949
 4256TIP3    H134259   1.564   5.272   1.794  0.2831 -0.9684 -0.6629
 4256TIP3    H234260   1.482   5.360   1.703 -0.9505 -0.8498  0.5271
 4257TIP3   OH234261   1.848   4.101   2.480  0.2299  0.0885  0.1092
 4257TIP3    H134262   1.898   4.174   2.443 -0.2677  1.2001  1.5794
 4257TIP3    H234263   1.760   4.135   2.491 -0.1400 -0.9125  0.3231
 4258TIP3   OH234264   3.262   0.218   3.569  0.2641  0.1273  0.1414
 4258TIP3    H134265   3.322   0.217   3.644  1.1742  1.3838 -0.5361
 4258TIP3    H234266   3.206   0.293   3.583  1.8131  1.6740 -1.4182
 4259TIP3   OH234267   1.981   0.208   2.711  0.3332  0.0983  0.2320
 4259TIP3    H134268   1.959   0.238   2.799 -0.1198  1.5581 -0.3463
 4259TIP3    H234269   2.066   0.165   2.720  1.6694  2.7125  0.9346
 4260TIP3   OH234270   1.378   5.264   4.564 -0.5273  0.1836 -0.4212
 4260TIP3    H134271   1.405   5.189   4.617 -0.9757  0.3542  0.0595
 4260TIP3    H234272   1.355   5.227   4.479  0.8056 -0.0148 -0.7102
 4261TIP3   OH234273   1.191   4.639  15.072 -0.0210 -0.3395  0.1043
 4261TIP3    H134274   1.210   4.728  15.040  0.0565 -0.0184  1.0188
 4261TIP3    H234275   1.256   4.584  15.029 -0.6124 -0.1040 -1.1555
 4262TIP3   OH234276   1.444   5.768   5.207 -0.1802 -0.2115  0.4908
 4262TIP3    H134277   1.352   5.773   5.181  0.3135 -1.6520 -1.8395
 4262TIP3    H234278   1.492   5.803   5.132  1.1769  1.1632  1.9446
 4263TIP3   OH234279   2.766   1.382  12.245  0.2033 -0.1270 -0.0408
 4263TIP3    H134280   2.746   1.290  12.259  1.1183 -0.7289 -2.2104
 4263TIP3    H234281   2.684   1.420  12.215 -0.3198 -0.0765  1.3968
 4264TIP3   OH234282   1.889   1.591   3.328  0.1889 -0.0499  0.3257
 4264TIP3    H134283   1.958   1.533   3.298  0.4137  1.4366 -2.3912
 4264TIP3    H234284   1.889   1.583   3.424  1.2275 -3.2356  0.1505
 4265TIP3   OH234285   0.519   4.892  16.280 -0.1724 -0.1003  0.2981
 4265TIP3    H134286   0.433   4.851  16.289 -0.1925 -0.0782  0.1998
 4265TIP3    H234287   0.564   4.870  16.362 -0.4018  0.2020  0.5072
 4266TIP3   OH234288   4.508   3.252  13.266  0.3357 -0.4557  0.6168
 4266TIP3    H134289   4.597   3.241  13.298  0.5615 -0.7591 -0.0963
 4266TIP3    H234290   4.517   3.292  13.180 -0.1456 -1.5468  0.0341
 4267TIP3   OH234291   0.944   2.537  16.531  0.3150 -0.0197  0.2934
 4267TIP3    H134292   0.995   2.583  16.598 -0.9260  0.6506  0.8023
 4267TIP3    H234293   0.857   2.529  16.568 -0.0869 -0.7347 -0.7562
 4268TIP3   OH234294   1.931   6.481   1.255  0.1431  0.6165  0.0421
 4268TIP3    H134295   1.899   6.504   1.342 -0.4797  0.8090 -0.2273
 4268TIP3    H234296   1.947   6.387   1.258 -0.9957  0.4094  0.0294
 4269TIP3   OH234297   6.281   0.848  10.905  0.0196 -0.0354 -0.3462
 4269TIP3    H134298   6.376   0.851  10.893  0.1827 -1.4264  0.3754
 4269TIP3    H234299   6.248   0.918  10.850  1.4560  0.3747 -0.7346
 4270TIP3   OH234300   3.861   1.641  15.612 -1.0121  0.6148 -0.2273
 4270TIP3    H134301   3.851   1.676  15.701 -2.2623  0.0883 -0.1422
 4270TIP3    H234302   3.821   1.706  15.555  0.3045  1.2284 -0.4856
 4271TIP3   OH234303   1.995   4.015   1.315  0.2045  0.0074  0.5127
 4271TIP3    H134304   1.966   3.924   1.318 -2.8160  0.8386  3.5975
 4271TIP3    H234305   2.090   4.010   1.315  0.1529 -3.1486  1.2642
 4272TIP3   OH234306   3.224   6.636   3.178  0.1265  0.5286 -0.4134
 4272TIP3    H134307   3.270   6.658   3.259 -2.0103 -2.8838  2.0111
 4272TIP3    H234308   3.283   6.576   3.132  0.5805  1.0291 -0.4979
 4273TIP3   OH234309   6.002   2.878  14.864 -0.4398 -0.0469 -0.4894
 4273TIP3    H134310   5.933   2.907  14.924  0.0007 -0.0482  0.0240
 4273TIP3    H234311   6.042   2.959  14.833  0.8824 -0.0578  1.0530
 4274TIP3   OH234312   5.291   3.214  15.553  0.3331  0.0048 -0.9197
 4274TIP3    H134313   5.289   3.144  15.487 -0.1043 -0.8388 -0.0401
 4274TIP3    H234314   5.382   3.217  15.582  0.2973 -0.4023 -0.7556
 4275TIP3   OH234315   0.976   6.671  16.716  0.6579 -0.1348 -0.1088
 4275TIP3    H134316   1.013   6.749  16.757  0.6862  0.7717 -1.7677
 4275TIP3    H234317   0.951   6.615  16.789  1.2207  1.1516  1.1148
 4276TIP3   OH234318   2.761   0.488   1.554  0.3605  0.6924  0.3001
 4276TIP3    H134319   2.772   0.498   1.649 -0.3406  1.4368  0.3093
 4276TIP3    H234320   2.823   0.419   1.531  1.2324  1.1530  1.1558
 4277TIP3   OH234321   3.422   1.323  16.370 -0.0158  0.2073  0.0803
 4277TIP3    H134322   3.498   1.325  16.429  0.0131 -0.3520  0.0702
 4277TIP3    H234323   3.348   1.301  16.426 -0.2488  1.1189  0.1563
 4278TIP3   OH234324   4.134   3.887  14.979  0.4550 -0.5772  0.0754
 4278TIP3    H134325   4.118   3.813  14.920 -0.3758 -0.0917 -0.3253
 4278TIP3    H234326   4.048   3.911  15.011  0.6401  0.5768 -0.2419
 4279TIP3   OH234327   5.961   5.710  16.152 -0.3098  0.5282 -0.0058
 4279TIP3    H134328   5.997   5.675  16.070 -0.3700  0.0815  0.1524
 4279TIP3    H234329   6.036   5.747  16.197  0.1776 -1.2833  0.7710
 4280TIP3   OH234330   5.777   5.543   5.844 -0.0083  0.1181 -0.1250
 4280TIP3    H134331   5.699   5.514   5.892 -3.1488  2.7338 -3.1414
 4280TIP3    H234332   5.806   5.620   5.892 -1.9191  1.5568 -1.1534
 4281TIP3   OH234333   1.085   2.209   4.707 -0.1371  0.3430  0.0231
 4281TIP3    H134334   1.102   2.296   4.743 -1.4344  0.5697  0.1392
 4281TIP3    H234335   1.172   2.174   4.688  0.4074  1.8879 -0.5629
 4282TIP3   OH234336   0.781   2.220  15.012  0.5992  0.0328  0.0176
 4282TIP3    H134337   0.760   2.307  15.047  4.1439  0.4504  1.6333
 4282TIP3    H234338   0.785   2.233  14.918  2.6827  2.1904  0.2955
 4283TIP3   OH234339   1.638   1.709  14.195 -0.0799  0.1713  0.1318
 4283TIP3    H134340   1.726   1.690  14.225  0.4773  1.0703 -0.8812
 4283TIP3    H234341   1.641   1.799  14.164 -0.9926 -0.2170 -1.2094
 4284TIP3   OH234342   4.832   6.121  14.170  0.1197 -0.2172  0.8298
 4284TIP3    H134343   4.741   6.148  14.182  0.1322 -0.5932  1.8459
 4284TIP3    H234344   4.855   6.078  14.252  0.4348 -2.3686 -0.3065
 4285TIP3   OH234345   2.731   5.775  15.605 -0.2347 -0.4168 -0.0552
 4285TIP3    H134346   2.742   5.680  15.605 -0.0102 -0.4127  1.2457
 4285TIP3    H234347   2.702   5.796  15.693 -1.2928  0.6312 -0.6279
 4286TIP3   OH234348   0.739   3.462  11.255 -0.5703  0.3569 -0.0825
 4286TIP3    H134349   0.776   3.374  11.253  1.6484  1.1803  0.9268
 4286TIP3    H234350   0.686   3.463  11.334 -0.2589  0.0261  0.1388
 4287TIP3   OH234351   3.810   1.515  14.532 -0.4129  0.4818 -0.2589
 4287TIP3    H134352   3.776   1.603  14.520 -1.0276  0.3758  0.6464
 4287TIP3    H234353   3.900   1.519  14.499 -0.7065  1.2238 -0.9921
 4288TIP3   OH234354   1.540   2.708  15.420  0.7980  0.1074  0.0107
 4288TIP3    H134355   1.499   2.683  15.502  1.1834  0.7822  0.4157
 4288TIP3    H234356   1.630   2.677  15.428  1.6848  2.7212  1.0901
 4289TIP3   OH234357   1.979   4.443  16.544 -0.5410  0.6143  0.3730
 4289TIP3    H134358   1.889   4.411  16.553 -1.0185  2.0170  0.8959
 4289TIP3    H234359   2.031   4.365  16.529 -1.9018 -0.1942 -0.3303
 4290TIP3   OH234360   1.585   4.144  12.547 -0.1978 -0.2931 -0.5167
 4290TIP3    H134361   1.615   4.140  12.456 -0.8724  0.3758 -0.7768
 4290TIP3    H234362   1.500   4.100  12.547 -0.8420  0.9012 -0.4998
 4291TIP3   OH234363   2.098   2.860  10.559 -0.1327 -0.3320  0.3952
 4291TIP3    H134364   2.143   2.899  10.635  0.7114 -0.8209  0.1601
 4291TIP3    H234365   2.160   2.871  10.487 -0.8132 -0.1260 -0.1689
 4292TIP3   OH234366   0.156   1.200   1.942 -0.0482  0.0408 -0.8460
 4292TIP3    H134367   0.153   1.250   1.860 -3.9018  1.3977 -0.0840
 4292TIP3    H234368   0.086   1.135   1.932 -0.2350 -0.1052  1.1565
 4293TIP3   OH234369   1.925   1.379  11.489  0.2386 -0.2259  0.0347
 4293TIP3    H134370   1.962   1.299  11.451  0.1353 -0.3278  0.1472
 4293TIP3    H234371   1.909   1.435  11.413 -1.4406 -1.0367 -0.2746
 4294TIP3   OH234372   4.087   2.204   5.251 -0.3011 -0.1144 -0.1506
 4294TIP3    H134373   3.995   2.224   5.233 -0.3719  1.4519  1.7028
 4294TIP3    H234374   4.136   2.273   5.206 -0.0705 -0.3424 -0.2532
 4295TIP3   OH234375   1.364   3.555  14.530 -0.0003 -0.1764  0.1533
 4295TIP3    H134376   1.380   3.524  14.620  0.1529 -0.9082 -0.1159
 4295TIP3    H234377   1.311   3.485  14.491 -1.3872  0.8507  0.1400
 4296TIP3   OH234378   0.007   6.277  16.693  0.3311  0.2469  0.4490
 4296TIP3    H134379   0.022   6.325  16.775 -1.4473  2.7442 -0.5470
 4296TIP3    H234380  -0.011   6.345  16.628  2.7758 -1.5525 -2.3647
 4297TIP3   OH234381   4.655   6.143  13.743 -0.1065 -0.2866  0.3428
 4297TIP3    H134382   4.593   6.122  13.813  1.7412 -1.3938  1.7441
 4297TIP3    H234383   4.690   6.059  13.715  1.8954  0.3572  0.7169
 4298TIP3   OH234384   0.507   1.822   1.194  0.4268 -0.3962 -0.5299
 4298TIP3    H134385   0.487   1.892   1.256 -1.2468 -0.6637 -0.7407
 4298TIP3    H234386   0.505   1.865   1.109 -1.5320 -0.8297 -0.7474
 4299TIP3   OH234387   4.752   2.524  10.500  0.1927 -0.2538 -0.2392
 4299TIP3    H134388   4.800   2.456  10.452 -0.5865 -0.9444 -0.0612
 4299TIP3    H234389   4.661   2.514  10.470  0.1642  1.1108 -0.6684
 4300TIP3   OH234390   1.556   0.462   2.419 -0.4836 -0.2454  0.3158
 4300TIP3    H134391   1.609   0.389   2.449  1.3684  0.6249 -0.6173
 4300TIP3    H234392   1.514   0.496   2.498 -2.5388 -3.0973  0.5780
 4301TIP3   OH234393   0.919   6.340   5.774 -0.3329  0.4914  0.2801
 4301TIP3    H134394   1.012   6.320   5.761 -0.0716  0.9971  1.2474
 4301TIP3    H234395   0.873   6.263   5.739  0.4781 -0.0412  0.3512
 4302TIP3   OH234396   6.793   1.349   3.170 -0.0961  0.8208 -0.6576
 4302TIP3    H134397   6.736   1.389   3.237  0.7578  0.5391  0.2566
 4302TIP3    H234398   6.801   1.417   3.103 -2.6794  0.3694 -1.5668
 4303TIP3   OH234399   6.261   5.937  13.626  0.5272  0.0122 -0.0872
 4303TIP3    H134400   6.206   6.002  13.582  1.2702  0.4170 -0.4603
 4303TIP3    H234401   6.234   5.853  13.591 -0.8451  0.0489  0.8230
 4304TIP3   OH234402   0.764   1.221  12.038  0.0193  0.6844  0.5058
 4304TIP3    H134403   0.757   1.217  12.133 -0.2129  0.8273  0.4954
 4304TIP3    H234404   0.682   1.182  12.006  0.7878 -0.8891  0.3449
 4305TIP3   OH234405   6.191   5.166   6.020  0.3215 -0.0338  0.6147
 4305TIP3    H134406   6.173   5.260   6.016 -1.0533 -0.1741  2.1473
 4305TIP3    H234407   6.262   5.158   6.084  1.8864  0.0796 -1.0501
 4306TIP3   OH234408   3.018   6.381   5.393  0.4570  0.2815 -0.3160
 4306TIP3    H134409   3.110   6.357   5.379  0.4136 -0.2185  0.2492
 4306TIP3    H234410   3.004   6.454   5.333  1.3779  0.7139 -0.0276
 4307TIP3   OH234411   0.652   5.612  15.057 -0.4234  0.0379  0.4068
 4307TIP3    H134412   0.725   5.649  15.007 -0.4775 -0.1031  0.2217
 4307TIP3    H234413   0.639   5.673  15.130 -2.6030  2.1866 -1.6104
 4308TIP3   OH234414   6.132   0.766   0.840 -0.3950  0.2891  0.0398
 4308TIP3    H134415   6.040   0.742   0.837  0.0118 -1.2542 -1.6362
 4308TIP3    H234416   6.158   0.775   0.748  0.6735  2.6978  0.4924
 4309TIP3   OH234417   0.829   0.464   3.751  0.0386  0.2149 -0.0312
 4309TIP3    H134418   0.754   0.410   3.772 -0.3541  0.5474 -0.5399
 4309TIP3    H234419   0.794   0.553   3.744  0.4022  0.3182 -0.6529
 4310TIP3   OH234420   0.926   6.424  12.549  0.1621  0.6035 -0.0950
 4310TIP3    H134421   0.917   6.358  12.617 -0.1676 -3.2163 -3.4683
 4310TIP3    H234422   1.020   6.445  12.548  0.2673  0.2506  1.0510
 4311TIP3   OH234423   0.705   6.689   2.258 -0.3776  0.2122 -0.1859
 4311TIP3    H134424   0.709   6.613   2.318 -2.2843  1.2207  1.3275
 4311TIP3    H234425   0.613   6.714   2.257  0.1260  2.2203 -1.0303
 4312TIP3   OH234426   3.378   0.738  15.281  0.0718  0.8419  0.1747
 4312TIP3    H134427   3.329   0.756  15.361 -0.6600  1.4068 -0.3868
 4312TIP3    H234428   3.422   0.655  15.298 -2.0256 -0.3226  0.3016
 4313TIP3   OH234429   0.779   4.185  14.293 -0.3459 -0.7797  0.3426
 4313TIP3    H134430   0.808   4.111  14.346  0.9524  0.6605  1.7863
 4313TIP3    H234431   0.837   4.184  14.217 -1.7883 -2.4824 -0.7838
 4314TIP3   OH234432   1.621   3.118  15.077 -0.4660 -0.0970 -0.0431
 4314TIP3    H134433   1.645   3.050  15.014 -0.6243  0.3194 -0.5614
 4314TIP3    H234434   1.574   3.072  15.146  0.7943 -0.7569  0.4118
 4315TIP3   OH234435   0.481   1.371   4.757 -0.2538  0.7102 -0.1113
 4315TIP3    H134436   0.518   1.398   4.841 -1.5399 -0.6047  0.9201
 4315TIP3    H234437   0.411   1.433   4.740  0.7029  1.6473 -0.8053
 4316TIP3   OH234438   6.429   2.313   5.556 -0.5174  0.2335 -1.0443
 4316TIP3    H134439   6.475   2.288   5.475  0.1202 -2.0517 -0.0461
 4316TIP3    H234440   6.494   2.301   5.625 -1.7586 -0.2415  0.0813
 4317TIP3   OH234441   0.745   4.867   4.762  0.1294  0.4116 -0.0136
 4317TIP3    H134442   0.835   4.894   4.775  0.4996 -0.3335 -0.9310
 4317TIP3    H234443   0.698   4.902   4.838  1.1781  0.8057  0.4678
 4318TIP3   OH234444   4.342   0.561   2.284 -0.3281  0.4092  0.0539
 4318TIP3    H134445   4.265   0.602   2.244 -1.1497 -1.7335 -0.7005
 4318TIP3    H234446   4.397   0.535   2.210 -1.1833 -2.3119  0.2729
 4319TIP3   OH234447   1.955   2.890  15.134 -0.7253 -0.3249 -0.0021
 4319TIP3    H134448   1.913   2.917  15.216 -0.1164  1.5207 -0.2436
 4319TIP3    H234449   1.888   2.902  15.068 -1.0265 -1.2372  0.1189
 4320TIP3   OH234450   2.425   4.164  12.089 -0.2398 -0.4928 -0.1953
 4320TIP3    H134451   2.403   4.075  12.113  0.8456 -0.3394  1.5478
 4320TIP3    H234452   2.369   4.219  12.144 -0.7694 -0.0881 -1.1158
 4321TIP3   OH234453   2.327   2.542   5.669 -0.9257  0.1632  0.8034
 4321TIP3    H134454   2.334   2.575   5.759  0.0586 -2.3120  1.7219
 4321TIP3    H234455   2.416   2.550   5.634 -0.3454 -2.4524  1.4802
 4322TIP3   OH234456   3.225   0.644   0.371  0.0749 -0.7760  0.2210
 4322TIP3    H134457   3.255   0.672   0.457 -1.3943  0.9913  0.2188
 4322TIP3    H234458   3.153   0.584   0.389  1.3331 -2.3833  0.1869
 4323TIP3   OH234459   5.184   3.834   5.031 -0.0091 -0.8708 -0.1299
 4323TIP3    H134460   5.103   3.860   5.076 -0.2260 -0.7003 -0.6138
 4323TIP3    H234461   5.157   3.767   4.969 -0.0101  0.0465 -1.1667
 4324TIP3   OH234462   4.574   4.826   2.500 -0.8108  0.0074  0.6133
 4324TIP3    H134463   4.498   4.817   2.442  0.0773  0.6525 -0.6959
 4324TIP3    H234464   4.542   4.880   2.573 -1.6432  0.1428  0.1647
 4325TIP3   OH234465   6.882   3.873   4.519 -0.2790  0.0560  0.2706
 4325TIP3    H134466   6.885   3.838   4.430  0.8767  2.0384 -0.5360
 4325TIP3    H234467   6.937   3.813   4.569  1.4872  0.4921 -1.0263
 4326TIP3   OH234468   0.145   6.710   4.381 -0.0571 -0.3730 -0.7913
 4326TIP3    H134469   0.196   6.657   4.321 -1.0779 -2.2200 -0.1114
 4326TIP3    H234470   0.167   6.677   4.468 -1.9122 -0.8413 -0.4483
 4327TIP3   OH234471   2.126   4.420   2.102 -0.6833 -0.1773  0.0240
 4327TIP3    H134472   2.039   4.441   2.068 -0.4023 -1.9957 -2.0191
 4327TIP3    H234473   2.186   4.441   2.031  0.6820  1.4550  1.5402
 4328TIP3   OH234474   3.197   5.763  12.453  0.4185  0.4305  0.2080
 4328TIP3    H134475   3.266   5.822  12.484  0.2266  1.1793 -0.7222
 4328TIP3    H234476   3.177   5.707  12.528  1.4329  0.7720  0.7516
 4329TIP3   OH234477   4.301   2.461   3.918  0.3768 -0.4668 -0.3121
 4329TIP3    H134478   4.394   2.454   3.941  0.3725 -0.0161 -0.1411
 4329TIP3    H234479   4.302   2.490   3.827  0.4001 -0.9139 -0.4565
 4330TIP3   OH234480   5.642   2.639   2.358 -0.4622  0.1243 -0.0270
 4330TIP3    H134481   5.623   2.581   2.285 -0.6928 -0.0441  0.1626
 4330TIP3    H234482   5.668   2.721   2.318  2.2058 -0.7922 -0.3412
 4331TIP3   OH234483   0.285   2.135   5.458 -0.5319 -0.0229 -0.4051
 4331TIP3    H134484   0.361   2.177   5.419  0.1007  0.2875  1.1078
 4331TIP3    H234485   0.289   2.044   5.428  2.0362 -0.7597  1.7768
 4332TIP3   OH234486   3.612   1.854  15.607 -0.1287 -0.2296 -0.2318
 4332TIP3    H134487   3.580   1.944  15.612  1.7323  0.5316 -1.0132
 4332TIP3    H234488   3.541   1.806  15.566 -0.8894  1.0275 -0.4552
 4333TIP3   OH234489   6.346   0.664   5.383  0.0573 -0.3100 -0.4562
 4333TIP3    H134490   6.370   0.754   5.405  2.3527 -1.4468  2.2167
 4333TIP3    H234491   6.351   0.617   5.466  0.8840 -3.3057 -2.0719
 4334TIP3   OH234492   3.323   3.957   4.487  1.2306 -0.0207  0.7386
 4334TIP3    H134493   3.353   3.938   4.576  0.2883 -1.2519  0.8201
 4334TIP3    H234494   3.248   4.015   4.498 -1.6645 -3.5153  1.1155
 4335TIP3   OH234495   6.580   4.826  13.139 -0.0872 -0.0432 -0.4421
 4335TIP3    H134496   6.648   4.822  13.073  1.0674  1.1453  0.6125
 4335TIP3    H234497   6.568   4.735  13.167  2.1601 -0.1377  0.4024
 4336TIP3   OH234498   6.037   0.532   0.067 -0.2922 -0.2068  0.1488
 4336TIP3    H134499   5.991   0.485   0.137 -0.6793  0.7588  0.5678
 4336TIP3    H234500   6.094   0.467   0.027 -0.9380 -1.0617  0.6010
 4337TIP3   OH234501   0.861   6.756  10.944 -0.6424 -0.2354 -0.0907
 4337TIP3    H134502   0.819   6.778  11.027  1.0782 -1.9041  1.3101
 4337TIP3    H234503   0.796   6.703  10.898 -1.2546 -0.1246  0.6270
 4338TIP3   OH234504   4.640   5.657  14.880 -0.2558  0.1568 -0.6537
 4338TIP3    H134505   4.606   5.568  14.894  1.2468 -0.2331  0.9118
 4338TIP3    H234506   4.590   5.712  14.940 -0.0622  0.0630 -0.4022
 4339TIP3   OH234507   1.776   3.059   5.120 -0.0471 -0.1861 -0.7325
 4339TIP3    H134508   1.783   3.052   5.215  0.1912 -1.0452 -0.7970
 4339TIP3    H234509   1.698   3.111   5.105 -0.0644 -0.0135 -0.0621
 4340TIP3   OH234510   6.561   2.863   4.217  0.0758 -0.1757  0.1941
 4340TIP3    H134511   6.639   2.831   4.264 -0.1868  1.1144  1.5834
 4340TIP3    H234512   6.496   2.795   4.230  0.2809 -0.2350  0.9936
 4341TIP3   OH234513   2.263   3.755  15.468  0.2100 -0.6051 -0.3735
 4341TIP3    H134514   2.191   3.710  15.513 -0.2427 -0.2159 -0.7002
 4341TIP3    H234515   2.220   3.814  15.407  0.8102 -0.0621 -0.2802
 4342TIP3   OH234516   2.396   5.877  14.544  0.0335  0.4166  0.8114
 4342TIP3    H134517   2.366   5.798  14.498 -3.0472  0.6884  2.1327
 4342TIP3    H234518   2.369   5.949  14.488 -1.0842  0.6372  1.6006
 4343TIP3   OH234519   6.314   5.213   2.876 -0.4061  0.0785 -0.7891
 4343TIP3    H134520   6.333   5.291   2.824  1.5576 -0.2682 -0.6441
 4343TIP3    H234521   6.243   5.169   2.829 -1.0396  1.5524 -1.2605
 4344TIP3   OH234522   2.217   5.627   2.143  0.1975 -0.3261 -0.1002
 4344TIP3    H134523   2.309   5.652   2.131 -0.3366  1.2897 -1.0252
 4344TIP3    H234524   2.213   5.537   2.111  1.9386 -1.3690  2.2625
 4345TIP3   OH234525   1.634   3.563   0.140 -0.4442 -0.2653  0.0652
 4345TIP3    H134526   1.557   3.506   0.137  0.3921 -1.4721  0.5197
 4345TIP3    H234527   1.706   3.504   0.162  0.3256  1.1124  1.4509
 4346TIP3   OH234528   0.989   1.800   4.175 -0.2555 -0.3596  0.1185
 4346TIP3    H134529   0.928   1.835   4.239  1.4284  1.5246  0.7998
 4346TIP3    H234530   0.939   1.732   4.129 -2.1278 -0.4082  2.0634
 4347TIP3   OH234531   2.857   1.003  11.509 -0.7718 -0.7907 -0.0857
 4347TIP3    H134532   2.814   1.032  11.589 -0.5962 -2.4274  0.6338
 4347TIP3    H234533   2.797   0.940  11.470 -0.6810 -0.3048 -1.0566
 4348TIP3   OH234534   2.856   5.225  16.850 -0.5911 -0.0652 -0.4127
 4348TIP3    H134535   2.879   5.132  16.857  3.0041  0.6459 -0.7157
 4348TIP3    H234536   2.939   5.271  16.862 -1.9702  3.0739 -1.7910
 4349TIP3   OH234537   5.873   6.338  11.470 -0.4103 -0.0180 -0.1373
 4349TIP3    H134538   5.835   6.316  11.386  1.0416  1.4583 -1.2466
 4349TIP3    H234539   5.945   6.276  11.481 -0.8827 -0.5108  0.2731
 4350TIP3   OH234540   2.046   2.379  11.937  0.0527 -0.4831  0.5748
 4350TIP3    H134541   1.957   2.395  11.968  0.3840 -1.3683  2.0670
 4350TIP3    H234542   2.071   2.461  11.894 -1.4998 -0.2615  0.0296
 4351TIP3   OH234543   2.888   1.065   5.253 -0.2324 -0.2273  0.1791
 4351TIP3    H134544   2.930   1.126   5.313  0.1272  0.1648 -0.4627
 4351TIP3    H234545   2.938   0.984   5.262  1.0490  0.3919 -0.9846
 4352TIP3   OH234546   5.542   0.981  15.679 -0.4799 -0.6139 -0.5407
 4352TIP3    H134547   5.510   0.999  15.591 -1.4570  0.0629 -0.0599
 4352TIP3    H234548   5.467   0.945  15.725  0.0787 -1.1453 -0.0216
 4353TIP3   OH234549   3.297   0.460   1.894  0.5389  0.2526 -0.8043
 4353TIP3    H134550   3.378   0.425   1.931  0.4203 -0.4162 -1.1478
 4353TIP3    H234551   3.274   0.533   1.951 -0.3503 -1.5393  1.3092
 4354TIP3   OH234552   1.815   4.402  11.822 -0.5359  0.3687  0.0256
 4354TIP3    H134553   1.814   4.433  11.731 -0.7397  0.6513  0.1234
 4354TIP3    H234554   1.904   4.422  11.853 -1.1328  2.3458  0.5857
 4355TIP3   OH234555   5.921   5.336  16.907  0.0865 -0.0746  0.5368
 4355TIP3    H134556   5.998   5.334  16.964  1.9846  1.0635 -1.8092
 4355TIP3    H234557   5.904   5.429  16.893  0.8166 -0.2703 -2.0895
 4356TIP3   OH234558   2.893   5.448   5.162 -0.0112 -0.6634  0.6193
 4356TIP3    H134559   2.835   5.428   5.089 -1.1957  0.7866  1.1055
 4356TIP3    H234560   2.834   5.470   5.234  1.0813  2.5804  0.6580
 4357TIP3   OH234561   1.231   2.044  11.527 -0.2095 -0.0374  0.0560
 4357TIP3    H134562   1.215   2.003  11.612  2.1042  2.3269  1.8020
 4357TIP3    H234563   1.156   2.103  11.515  0.2954  0.9252  1.3994
 4358TIP3   OH234564   3.171   2.916   0.816 -0.2228  0.2987  0.0254
 4358TIP3    H134565   3.246   2.930   0.874  0.2207  1.3870 -0.7816
 4358TIP3    H234566   3.097   2.906   0.876 -0.0711  3.0221  0.8157
 4359TIP3   OH234567   5.183   4.307   0.426  0.6113  0.0779  0.7586
 4359TIP3    H134568   5.260   4.353   0.394  1.3136 -0.8980  1.0134
 4359TIP3    H234569   5.151   4.361   0.498  0.3463  1.0982 -0.0979
 4360TIP3   OH234570   3.387   2.617   4.808 -0.0643 -0.0246 -0.2391
 4360TIP3    H134571   3.463   2.663   4.841  2.3951 -2.0555 -2.5724
 4360TIP3    H234572   3.389   2.631   4.713 -1.4931 -1.6518 -0.5722
 4361TIP3   OH234573   5.671   6.676   3.444  0.0204  0.1629 -0.6154
 4361TIP3    H134574   5.653   6.654   3.536  1.4341 -2.0450 -0.7738
 4361TIP3    H234575   5.598   6.732   3.418 -1.6676 -1.0187  1.2127
 4362TIP3   OH234576   0.399   5.181  10.459 -0.2979 -0.1052  0.1662
 4362TIP3    H134577   0.479   5.130  10.450 -0.7196 -0.5202 -1.4788
 4362TIP3    H234578   0.373   5.170  10.551  0.5043 -1.4991  0.2474
 4363TIP3   OH234579   1.288   0.198   2.482  0.3012 -0.1082 -0.4757
 4363TIP3    H134580   1.249   0.285   2.489  1.4455  0.3676  0.2354
 4363TIP3    H234581   1.290   0.181   2.388  0.2115  0.6929 -0.6337
 4364TIP3   OH234582   5.438   3.763   0.944  0.1773 -0.3311  0.1118
 4364TIP3    H134583   5.382   3.815   1.000  2.0496  0.2603  1.5213
 4364TIP3    H234584   5.509   3.822   0.919  0.0759 -0.9665 -1.8577
 4365TIP3   OH234585   0.828   2.855   1.721 -0.1925  0.6646  0.4247
 4365TIP3    H134586   0.820   2.886   1.811 -1.0506  2.1381 -0.1196
 4365TIP3    H234587   0.741   2.869   1.683 -0.0658 -0.6501 -0.4422
 4366TIP3   OH234588   3.587   4.312  14.144  0.3904 -0.4450 -0.1309
 4366TIP3    H134589   3.506   4.295  14.096  0.0651 -0.8170  0.5434
 4366TIP3    H234590   3.641   4.362  14.082 -0.2665 -0.3691 -0.6549
 4367TIP3   OH234591   3.761   2.836   5.331 -0.4297  0.0444 -0.3661
 4367TIP3    H134592   3.738   2.755   5.287 -1.0808  0.0286 -0.0014
 4367TIP3    H234593   3.850   2.821   5.364 -0.7326 -0.7127  0.1433
 4368TIP3   OH234594   4.331   3.132   5.051 -0.1898  0.0411 -0.0109
 4368TIP3    H134595   4.396   3.109   5.117 -0.7443  0.4545  0.7016
 4368TIP3    H234596   4.282   3.205   5.090 -0.2026  0.6298 -1.0956
 4369TIP3   OH234597   4.068   0.588   2.784 -0.1039 -0.3223 -0.2854
 4369TIP3    H134598   4.038   0.675   2.809 -0.4267 -0.6867  0.6685
 4369TIP3    H234599   4.001   0.529   2.819  0.4177 -0.9799 -0.3815
 4370TIP3   OH234600   2.400   3.735   2.272 -0.0970 -0.1220 -0.1292
 4370TIP3    H134601   2.488   3.713   2.303 -0.0780 -0.6720 -0.5457
 4370TIP3    H234602   2.355   3.651   2.269 -0.6466  0.1617  0.0961
 4371TIP3   OH234603   2.495   5.997   3.913  0.7395  0.5102 -0.1819
 4371TIP3    H134604   2.521   6.085   3.886  0.4363  0.9998  1.0870
 4371TIP3    H234605   2.439   6.010   3.989 -0.7738 -0.6906 -1.0338
 4372TIP3   OH234606   2.204   2.077   0.108  0.4934 -0.8772  0.0276
 4372TIP3    H134607   2.219   2.152   0.166 -1.8095  0.4192 -0.9266
 4372TIP3    H234608   2.237   2.105   0.023 -1.9249 -0.1253 -0.7650
 4373TIP3   OH234609   2.098   0.667   0.334 -0.8806  0.3452 -0.1453
 4373TIP3    H134610   2.063   0.731   0.395  0.1983  1.0838 -0.2730
 4373TIP3    H234611   2.164   0.619   0.385 -2.4687 -1.5040  0.3068
 4374TIP3   OH234612   4.842   1.254   2.976  0.2196  0.0227 -0.2610
 4374TIP3    H134613   4.894   1.331   2.953  1.2228 -0.9274 -1.2218
 4374TIP3    H234614   4.868   1.234   3.066 -1.4882  1.9274  0.7541
 4375TIP3   OH234615   6.345   5.029  11.589 -0.0391  0.0044 -0.0323
 4375TIP3    H134616   6.289   4.984  11.652  1.0286 -2.2280 -0.5531
 4375TIP3    H234617   6.315   5.120  11.590 -3.4200 -0.9637 -0.0397
 4376TIP3   OH234618   4.534   4.378  14.784  0.5744  0.4934  0.0864
 4376TIP3    H134619   4.446   4.352  14.809  0.0349  0.8504 -1.3836
 4376TIP3    H234620   4.546   4.464  14.825  0.5145  0.1425  0.8585
 4377TIP3   OH234621   6.165   3.761   4.681 -0.0485  0.1075  0.3497
 4377TIP3    H134622   6.116   3.829   4.634 -0.4980 -1.4171 -1.5026
 4377TIP3    H234623   6.097   3.702   4.714  0.4148 -0.4476  0.3131
 4378TIP3   OH234624   3.535   4.672  15.646  0.5543  0.2590  0.1695
 4378TIP3    H134625   3.454   4.641  15.685 -0.6964  3.1837  0.1949
 4378TIP3    H234626   3.540   4.627  15.562 -0.0238 -1.4330  1.0018
 4379TIP3   OH234627   0.286   2.138   2.878  0.7173  0.6404  0.4051
 4379TIP3    H134628   0.371   2.114   2.839  0.0232  2.5654 -2.6133
 4379TIP3    H234629   0.291   2.232   2.889 -1.6917  1.1568 -1.9136
 4380TIP3   OH234630   3.432   4.900   0.783  0.3453 -0.1174 -0.5646
 4380TIP3    H134631   3.365   4.903   0.851 -1.3687 -1.2336 -2.1141
 4380TIP3    H234632   3.468   4.989   0.781 -1.1738  0.5504  0.2638
 4381TIP3   OH234633   2.678   6.400  14.540 -1.0358 -0.5076  0.1037
 4381TIP3    H134634   2.655   6.484  14.580  1.6861  1.4766 -2.0899
 4381TIP3    H234635   2.663   6.413  14.447  0.8009 -1.9026 -0.4384
 4382TIP3   OH234636   5.761   6.507  12.933 -0.2859  0.1842 -0.1994
 4382TIP3    H134637   5.782   6.414  12.935 -0.0845  0.2452  1.1670
 4382TIP3    H234638   5.666   6.510  12.917 -0.4272 -0.2841  0.5139
 4383TIP3   OH234639   0.113   1.860  13.531  0.2416  0.4430 -0.0394
 4383TIP3    H134640   0.142   1.844  13.442 -0.9993 -0.2001 -0.3382
 4383TIP3    H234641   0.193   1.855  13.583  0.5365 -2.9794 -0.5967
 4384TIP3   OH234642   5.589   3.485   4.504  0.5872 -0.0208  0.4897
 4384TIP3    H134643   5.525   3.533   4.556 -0.1088  1.2533 -1.4044
 4384TIP3    H234644   5.536   3.438   4.439  1.2449 -3.4468  2.2165
 4385TIP3   OH234645   0.903   4.010   5.950 -0.3331  0.4371  0.3210
 4385TIP3    H134646   0.961   4.015   5.873 -0.4453 -0.7595  0.1323
 4385TIP3    H234647   0.945   4.065   6.016 -0.2911  1.5763 -0.6269
 4386TIP3   OH234648   6.114   2.790  13.424  0.0356  0.2849  0.8486
 4386TIP3    H134649   6.200   2.753  13.405  0.9729  1.8708  1.8568
 4386TIP3    H234650   6.101   2.776  13.518 -0.9078 -0.1169  0.6737
 4387TIP3   OH234651   0.191   3.556   3.631 -0.3866  0.2698 -0.1981
 4387TIP3    H134652   0.106   3.571   3.673  0.3198  0.3892  1.2508
 4387TIP3    H234653   0.229   3.644   3.623 -0.0139  0.1310  0.0249
 4388TIP3   OH234654   1.243   2.446   4.773 -0.6133  0.5175  0.1599
 4388TIP3    H134655   1.327   2.400   4.776 -0.7956  0.1733  0.0643
 4388TIP3    H234656   1.266   2.539   4.766 -0.2408  0.4424  0.3710
 4389TIP3   OH234657   4.814   1.653  14.047 -0.0799 -0.1765  0.1895
 4389TIP3    H134658   4.726   1.617  14.031  0.6607 -1.8394 -0.3334
 4389TIP3    H234659   4.821   1.725  13.983 -0.7399 -0.5882 -0.3712
 4390TIP3   OH234660   5.063   4.283  14.362 -0.3456 -0.1524  0.1737
 4390TIP3    H134661   4.971   4.259  14.372  0.3240 -1.7636  3.5944
 4390TIP3    H234662   5.111   4.218  14.412  2.5595  1.7267  0.0661
 4391TIP3   OH234663   2.343   2.544  11.205  0.1628  0.2449 -0.8949
 4391TIP3    H134664   2.254   2.514  11.185  0.3020  0.1347 -1.3617
 4391TIP3    H234665   2.385   2.554  11.119  0.1260  1.7877 -0.7457
 4392TIP3   OH234666   4.175   1.813  14.509  0.5621 -0.2546  0.4040
 4392TIP3    H134667   4.262   1.847  14.531 -0.5621  2.0793  1.5431
 4392TIP3    H234668   4.159   1.744  14.574  1.9097 -1.4098 -0.4326
 4393TIP3   OH234669   3.430   3.898  13.789  0.2301  0.1474  0.3543
 4393TIP3    H134670   3.343   3.938  13.791  0.2087  0.0668  1.1236
 4393TIP3    H234671   3.414   3.805  13.798  0.4974  0.2841  3.1777
 4394TIP3   OH234672   1.500   4.922   3.672  0.8835  0.5692  0.7633
 4394TIP3    H134673   1.443   4.859   3.629  2.2951 -1.0449  1.1328
 4394TIP3    H234674   1.442   4.969   3.733 -0.2513 -0.2242  0.3289
 4395TIP3   OH234675   0.670   3.627   1.577 -1.4143  0.6178 -0.1082
 4395TIP3    H134676   0.690   3.552   1.520 -1.5673 -0.7983  1.6189
 4395TIP3    H234677   0.598   3.597   1.632 -0.8713  1.6874  1.2592
 4396TIP3   OH234678   6.486   3.232   3.349  0.3913  0.4625  0.2790
 4396TIP3    H134679   6.564   3.191   3.387  1.0301  0.0762 -1.3871
 4396TIP3    H234680   6.498   3.326   3.363  1.4438  0.4468 -0.4662
 4397TIP3   OH234681   1.958   0.245  11.353  0.0745 -0.1686 -0.3757
 4397TIP3    H134682   2.024   0.309  11.382  0.9774 -0.4592 -1.7303
 4397TIP3    H234683   1.936   0.272  11.264 -1.9423  0.1307  0.1536
 4398TIP3   OH234684   4.744   3.928   5.101  0.5629  0.1785 -0.1488
 4398TIP3    H134685   4.746   4.023   5.088  2.0884  0.5325  2.0855
 4398TIP3    H234686   4.668   3.914   5.157 -0.9878 -0.2711 -2.2488
 4399TIP3   OH234687   0.880   4.931  16.313 -0.0120  0.5071  0.1554
 4399TIP3    H134688   0.808   4.882  16.352  0.2047  0.8646  1.0221
 4399TIP3    H234689   0.951   4.867  16.305 -0.4629  0.1109 -0.8604
 4400TIP3   OH234690   0.460   4.214   0.137  0.5658 -0.2461 -0.1693
 4400TIP3    H134691   0.484   4.121   0.138  2.5664  0.2146 -0.6913
 4400TIP3    H234692   0.420   4.229   0.222  0.6274 -1.4904  0.1010
 4401TIP3   OH234693   3.130   0.332  10.924  0.2941  0.0617  0.2340
 4401TIP3    H134694   3.043   0.295  10.910 -0.6227  1.4956  1.8160
 4401TIP3    H234695   3.129   0.416  10.879  0.9172  0.0243  0.1333
 4402TIP3   OH234696   2.169   1.974  16.728  0.3138  0.2461 -0.2027
 4402TIP3    H134697   2.117   2.042  16.771  1.6649  0.8923  0.4623
 4402TIP3    H234698   2.241   2.022  16.687  0.4564 -0.6394 -1.0125
 4403TIP3   OH234699   1.201   1.454   3.057  0.5544  0.1486  0.2009
 4403TIP3    H134700   1.194   1.533   3.003  1.5664  2.1666  2.8264
 4403TIP3    H234701   1.210   1.383   2.993  1.5285  2.3246 -2.3006
 4404TIP3   OH234702   2.358   3.416  15.020 -0.1679  0.3272  0.0919
 4404TIP3    H134703   2.358   3.373  15.106 -0.9646 -0.3562 -0.2450
 4404TIP3    H234704   2.289   3.481  15.026  1.7715  2.4609  1.0023
 4405TIP3   OH234705   4.158   0.221  12.087 -0.0295 -0.2240  0.2180
 4405TIP3    H134706   4.085   0.239  12.147 -1.1536 -1.3995 -0.7250
 4405TIP3    H234707   4.131   0.141  12.041  1.6551 -0.4052 -0.5083
 4406TIP3   OH234708   6.047   6.840   5.110  0.2222  0.1455 -0.6896
 4406TIP3    H134709   5.969   6.787   5.098  0.2219  0.0914 -0.4689
 4406TIP3    H234710   6.116   6.792   5.065  0.3431 -0.3474 -0.0068
 4407TIP3   OH234711   3.046   5.457  13.206 -0.2782 -0.4938 -0.5596
 4407TIP3    H134712   2.980   5.486  13.143 -1.7968 -0.3776  0.9949
 4407TIP3    H234713   2.997   5.406  13.271  0.2533  3.0070  3.0030
 4408TIP3   OH234714   3.422   1.811   3.570 -0.0973  0.3925 -0.2419
 4408TIP3    H134715   3.461   1.867   3.637 -1.1541  3.4724 -1.9901
 4408TIP3    H234716   3.496   1.781   3.517  0.4512  0.6995  0.3438
 4409TIP3   OH234717   0.300   0.323  11.268  0.5458  0.2682 -0.6910
 4409TIP3    H134718   0.235   0.393  11.275  1.3381  0.8680  1.5945
 4409TIP3    H234719   0.357   0.350  11.195 -0.7852  0.5345 -1.6653
 4410TIP3   OH234720   0.708   0.517  15.813 -0.1015  0.5116 -0.0176
 4410TIP3    H134721   0.779   0.578  15.832 -1.2886  1.7135  0.8094
 4410TIP3    H234722   0.701   0.518  15.717 -0.0586  1.6867 -0.0324
 4411TIP3   OH234723   1.591   1.621   1.369  0.1409  0.3583 -0.1785
 4411TIP3    H134724   1.600   1.614   1.274 -0.7964  0.0194 -0.2463
 4411TIP3    H234725   1.544   1.703   1.384  2.6663  1.8500  0.1558
 4412TIP3   OH234726   4.699   2.715   4.741 -0.2444  0.0137 -0.2067
 4412TIP3    H134727   4.732   2.675   4.821 -0.3520 -0.8158 -0.5682
 4412TIP3    H234728   4.716   2.650   4.672  0.2642  0.9058 -0.9365
 4413TIP3   OH234729   1.193   4.244  12.011 -0.0710 -0.0758 -0.1772
 4413TIP3    H134730   1.156   4.247  12.099  0.0336 -0.1172 -0.1323
 4413TIP3    H234731   1.267   4.184  12.018 -0.3326 -0.4281 -0.3942
 4414TIP3   OH234732   3.709   1.976   1.326  0.2779 -0.1199 -0.5528
 4414TIP3    H134733   3.734   2.024   1.405 -0.7160 -2.7979  1.5464
 4414TIP3    H234734   3.625   2.014   1.300 -0.7460 -0.9559  1.3572
 4415TIP3   OH234735   3.379   5.436   3.626 -0.6794  0.7010 -0.5174
 4415TIP3    H134736   3.400   5.365   3.687  0.4822  1.3829 -0.0750
 4415TIP3    H234737   3.320   5.396   3.562 -2.1407  0.0247  1.1684
 4416TIP3   OH234738   0.406   2.963   5.807 -0.3947  0.1259  0.0917
 4416TIP3    H134739   0.386   2.982   5.899 -0.0651  0.1578  0.1570
 4416TIP3    H234740   0.378   3.041   5.759  0.1335  0.4231  0.2556
 4417TIP3   OH234741   1.818   1.171   1.334 -0.5805 -1.1116 -0.0799
 4417TIP3    H134742   1.868   1.173   1.416  1.1603 -1.2549 -1.1001
 4417TIP3    H234743   1.745   1.230   1.349  1.4442  1.3944  0.5219
 4418TIP3   OH234744   1.727   6.526   6.138 -0.4913  0.5571  0.2632
 4418TIP3    H134745   1.769   6.605   6.172  0.8668 -0.4038  0.9417
 4418TIP3    H234746   1.634   6.547   6.135 -0.1251  2.3065  0.0289
 4419TIP3   OH234747   3.056   6.061   1.071  0.4727 -0.4427  0.0103
 4419TIP3    H134748   2.982   6.031   1.124  0.7888 -0.8297  0.2426
 4419TIP3    H234749   3.023   6.063   0.982 -0.0028  0.0113  0.1953
 4420TIP3   OH234750   6.689   5.521   3.732 -0.3807 -0.3869 -0.5568
 4420TIP3    H134751   6.692   5.614   3.712 -1.6278 -0.0172  0.7874
 4420TIP3    H234752   6.720   5.515   3.823 -1.3002 -1.1455 -0.2747
 4421TIP3   OH234753   0.058   2.780   1.324  0.2684 -0.3175  0.3123
 4421TIP3    H134754  -0.001   2.766   1.250  0.4609 -0.6888  0.2272
 4421TIP3    H234755   0.005   2.760   1.401  0.1379 -0.1675  0.2621
 4422TIP3   OH234756   0.562   2.345  16.527  0.3177 -0.7783 -0.3142
 4422TIP3    H134757   0.616   2.266  16.526  1.0223 -0.3880  1.9622
 4422TIP3    H234758   0.598   2.399  16.457 -1.8701 -3.4006 -3.8132
 4423TIP3   OH234759   5.323   2.814   4.116 -0.4078  0.3594 -0.3391
 4423TIP3    H134760   5.257   2.815   4.047 -0.5770 -3.2879 -0.4503
 4423TIP3    H234761   5.393   2.870   4.084 -1.8046  1.2377 -2.0095
 4424TIP3   OH234762   0.920   6.077  11.128 -0.1968  0.3171  0.0204
 4424TIP3    H134763   0.849   6.013  11.129 -0.7859  0.9468  0.8730
 4424TIP3    H234764   0.949   6.082  11.220  0.2814  0.7832 -0.1519
 4425TIP3   OH234765   2.615   2.588  16.051  0.0168  0.2783 -0.2289
 4425TIP3    H134766   2.566   2.580  15.969 -0.1596 -1.1122 -0.0116
 4425TIP3    H234767   2.557   2.552  16.118  1.3981 -1.7136 -0.0131
 4426TIP3   OH234768   4.023   5.364   0.691 -0.4197 -0.1297 -0.3805
 4426TIP3    H134769   3.956   5.426   0.721 -0.1785  0.2470 -0.6006
 4426TIP3    H234770   3.981   5.318   0.618 -0.6816 -0.3869 -0.0641
 4427TIP3   OH234771   4.350   0.235  11.551  0.1102  0.2366 -0.6809
 4427TIP3    H134772   4.350   0.328  11.528 -0.0746  1.2358  2.7892
 4427TIP3    H234773   4.259   0.208  11.545 -0.0865  0.7593 -0.1316
 4428TIP3   OH234774   2.651   3.493   0.063 -0.0069 -0.0663  0.3227
 4428TIP3    H134775   2.662   3.576   0.018 -1.1002 -0.4975 -0.7965
 4428TIP3    H234776   2.572   3.455   0.024 -0.4219 -0.9202  1.9078
 4429TIP3   OH234777   2.634   2.732  11.710 -0.0910 -0.4842 -0.6208
 4429TIP3    H134778   2.586   2.707  11.789  1.4573 -0.4606  0.3827
 4429TIP3    H234779   2.595   2.815  11.684  0.2157  0.1789  0.9081
 4430TIP3   OH234780   2.474   2.810  11.300  0.1631 -0.1434  0.9620
 4430TIP3    H134781   2.543   2.811  11.233  0.4488 -0.7346  1.2375
 4430TIP3    H234782   2.393   2.796  11.250  0.1393  1.2851  0.5636
 4431TIP3   OH234783   0.520   6.310   2.838 -0.4387 -0.3186 -0.2716
 4431TIP3    H134784   0.426   6.296   2.830 -0.4587 -0.6125  0.4084
 4431TIP3    H234785   0.529   6.396   2.878 -0.3740  0.4234 -1.8200
 4432TIP3   OH234786   2.811   0.316   4.406  0.4812 -0.1975  0.0016
 4432TIP3    H134787   2.780   0.400   4.370 -1.9374 -0.2274  1.7543
 4432TIP3    H234788   2.861   0.341   4.484  0.6664 -0.3635 -0.0629
 4433TIP3   OH234789   1.558   3.410   1.849  0.3563  0.1715  0.3596
 4433TIP3    H134790   1.565   3.410   1.944 -0.2795 -1.5792  0.4470
 4433TIP3    H234791   1.472   3.372   1.832  0.5583  0.2528 -0.9236
 4434TIP3   OH234792   6.504   5.468   5.180  0.2918 -0.0325  0.0615
 4434TIP3    H134793   6.547   5.429   5.104  0.5253 -0.1068  0.2313
 4434TIP3    H234794   6.413   5.437   5.174  0.3789 -0.2742 -0.0298
 4435TIP3   OH234795   5.027   0.438   4.718  0.4287  0.1603 -0.8209
 4435TIP3    H134796   5.059   0.395   4.639 -0.5815  0.0760 -1.1920
 4435TIP3    H234797   4.971   0.373   4.760 -4.3664  2.1394 -3.3513
 4436TIP3   OH234798   3.892   0.843  16.347 -0.0407 -0.3432  0.2710
 4436TIP3    H134799   3.869   0.885  16.430 -0.7109  0.9109 -0.5334
 4436TIP3    H234800   3.852   0.897  16.280 -0.7704 -2.1559 -0.8439
 4437TIP3   OH234801   2.650   6.589  12.644 -0.3164  0.2263 -0.1404
 4437TIP3    H134802   2.743   6.570  12.651 -0.5638 -0.8197  0.5803
 4437TIP3    H234803   2.645   6.682  12.623  0.8800  0.2869 -0.2034
 4438TIP3   OH234804   6.389   5.211  11.206  0.3714  0.1022 -0.1470
 4438TIP3    H134805   6.400   5.135  11.263  0.3816  0.1799 -0.0462
 4438TIP3    H234806   6.460   5.204  11.142  0.2951 -0.0430 -0.2150
 4439TIP3   OH234807   6.336   1.549   1.390  0.2297  0.2880 -0.5056
 4439TIP3    H134808   6.249   1.584   1.372  0.7076  1.8986  0.1851
 4439TIP3    H234809   6.319   1.466   1.436 -0.9263  0.2575 -0.9439
 4440TIP3   OH234810   5.931   3.641  16.138  0.9383 -0.1891 -0.5092
 4440TIP3    H134811   6.006   3.682  16.182  0.6743  1.5337 -1.6206
 4440TIP3    H234812   5.940   3.665  16.046 -0.1528 -1.2638 -0.9283
 4441TIP3   OH234813   6.211   1.568   4.134  0.0936 -0.0247 -0.1712
 4441TIP3    H134814   6.306   1.565   4.125  0.4336  0.0471  2.4885
 4441TIP3    H234815   6.181   1.482   4.104  1.1310 -0.4739  0.0412
 4442TIP3   OH234816   0.122   0.093   4.200  0.4459 -0.4875 -0.0702
 4442TIP3    H134817   0.114   0.037   4.277 -1.2391 -1.2414 -0.7467
 4442TIP3    H234818   0.035   0.090   4.159  0.1423  2.9039  0.0487
 4443TIP3   OH234819   4.382   6.092   4.793  0.1933 -0.1107  0.3822
 4443TIP3    H134820   4.383   6.165   4.856 -1.4534  0.0016  0.3215
 4443TIP3    H234821   4.435   6.124   4.720  0.8273  0.3835  1.0356
 4444TIP3   OH234822   3.305   6.569  13.897 -0.2397 -0.4181 -0.4547
 4444TIP3    H134823   3.383   6.536  13.853  0.8307 -1.2547  1.9214
 4444TIP3    H234824   3.323   6.558  13.990 -2.6383  0.6804  0.2192
 4445TIP3   OH234825   4.992   5.584   6.168 -0.4914  0.4553 -0.3929
 4445TIP3    H134826   4.960   5.500   6.201  1.4624 -0.5188 -0.8536
 4445TIP3    H234827   4.989   5.574   6.073  0.3766  0.6354 -0.4459
 4446TIP3   OH234828   5.920   0.122   1.480 -0.2354 -0.2700  0.2356
 4446TIP3    H134829   5.970   0.041   1.495  1.7416  0.9953  0.8146
 4446TIP3    H234830   5.908   0.159   1.567 -0.0083  0.6971 -0.1381
 4447TIP3   OH234831   4.751   2.140  16.650 -0.6007 -0.3244 -0.5767
 4447TIP3    H134832   4.782   2.144  16.741 -2.5969 -0.1370  0.1465
 4447TIP3    H234833   4.817   2.087  16.605  0.4052 -0.4787  0.9887
 4448TIP3   OH234834   5.520   3.085  15.213 -0.3383  0.2951  0.1252
 4448TIP3    H134835   5.454   3.037  15.163 -1.0385  1.0118  0.3279
 4448TIP3    H234836   5.523   3.171  15.171 -0.1779  0.5609  0.6750
 4449TIP3   OH234837   5.547   0.804  14.966 -0.2436 -0.8513 -0.5779
 4449TIP3    H134838   5.465   0.798  14.917 -0.2470  0.4819 -0.7772
 4449TIP3    H234839   5.542   0.889  15.011  1.0327 -0.7374 -0.6183
 4450TIP3   OH234840   4.668   4.496   4.632  0.3352  0.1371  0.1206
 4450TIP3    H134841   4.576   4.515   4.652  0.0092  0.2698 -1.4078
 4450TIP3    H234842   4.711   4.496   4.717 -1.1373 -0.2598  0.9036
 4451TIP3   OH234843   5.088   1.715   2.201  0.7302 -0.0468  0.6087
 4451TIP3    H134844   5.084   1.802   2.162 -0.6677  0.3325  1.5207
 4451TIP3    H234845   4.996   1.688   2.210  1.1177 -1.3983  0.8255
 4452TIP3   OH234846   6.604   2.717   2.126 -0.5577 -0.1018 -0.7600
 4452TIP3    H134847   6.631   2.705   2.217  0.8777  0.7350 -1.0426
 4452TIP3    H234848   6.646   2.645   2.079 -1.8391 -0.9247 -0.6897
 4453TIP3   OH234849   1.950   4.123   6.685 -0.2725  0.3916  0.0925
 4453TIP3    H134850   2.037   4.117   6.725 -0.1696  2.7389  0.3111
 4453TIP3    H234851   1.913   4.035   6.697  2.4425 -1.0162 -0.9758
 4454TIP3   OH234852   3.077   0.240  16.858  0.3357  0.5141  0.0228
 4454TIP3    H134853   3.140   0.168  16.869 -0.1859  0.1773  0.9638
 4454TIP3    H234854   3.008   0.221  16.922  0.7233  2.4240  1.0784
 4455TIP3   OH234855   3.556   3.078  12.943 -0.4850  0.5341 -0.1688
 4455TIP3    H134856   3.599   3.124  12.871  0.7914  2.2137  1.5730
 4455TIP3    H234857   3.489   3.139  12.974  0.7896  1.0262  1.7565
 4456TIP3   OH234858   0.199   3.909   2.555 -0.4844  0.1726 -0.3411
 4456TIP3    H134859   0.189   3.983   2.615 -1.5914 -1.0566  1.0850
 4456TIP3    H234860   0.246   3.843   2.606  0.6122 -0.0668 -1.6312
 4457TIP3   OH234861   1.184   6.091   5.345 -0.7685 -0.3816  0.1050
 4457TIP3    H134862   1.239   6.110   5.421 -1.6003 -0.6160  0.7982
 4457TIP3    H234863   1.243   6.051   5.281  0.1871  0.8801  0.1604
 4458TIP3   OH234864   4.557   1.646   0.396  0.4400  0.0559 -0.4260
 4458TIP3    H134865   4.490   1.620   0.333 -0.2353  0.0918  0.2663
 4458TIP3    H234866   4.541   1.739   0.413  1.2967  0.3222 -1.0121
 4459TIP3   OH234867   4.234   6.098  14.181  0.1692 -0.3059  0.2512
 4459TIP3    H134868   4.250   6.076  14.089 -2.1746 -0.6428 -0.1270
 4459TIP3    H234869   4.225   6.193  14.182 -3.2733 -0.5044 -0.5803
 4460TIP3   OH234870   2.526   3.978   1.270 -0.1247  0.3443  0.0263
 4460TIP3    H134871   2.620   3.994   1.274  0.0489  0.1557 -2.2364
 4460TIP3    H234872   2.512   3.898   1.320  0.5039  1.6392  2.4687
 4461TIP3   OH234873   3.074   1.225  15.213  0.0816 -0.3029  0.3593
 4461TIP3    H134874   2.982   1.244  15.234 -0.1128 -0.1217 -0.6327
 4461TIP3    H234875   3.069   1.154  15.148  0.6868 -1.1501  1.2081
 4462TIP3   OH234876   0.446   5.154  13.890 -0.4552  0.6002 -0.6003
 4462TIP3    H134877   0.427   5.201  13.808 -0.6238 -0.1485 -1.0004
 4462TIP3    H234878   0.460   5.064  13.863  3.4742  0.9837 -0.3355
 4463TIP3   OH234879   0.859   6.437  14.429  0.4547  0.0791  0.3331
 4463TIP3    H134880   0.905   6.369  14.478  1.5116  1.4702  1.3541
 4463TIP3    H234881   0.831   6.500  14.496  2.0168  2.0844 -0.7749
 4464TIP3   OH234882   1.868   3.054   3.247 -0.4617 -0.4229 -0.1037
 4464TIP3    H134883   1.897   3.105   3.172  1.7258 -1.6974 -0.2243
 4464TIP3    H234884   1.850   2.967   3.212  3.2029 -1.8604  1.0396
 4465TIP3   OH234885   6.035   1.041   2.029  0.3424 -0.1280 -0.0926
 4465TIP3    H134886   5.995   1.022   1.944 -1.3269 -0.2748  0.6698
 4465TIP3    H234887   6.042   1.136   2.031  0.1480 -0.1059 -0.3026
 4466TIP3   OH234888   5.916   5.071  14.622 -0.0384  0.1215  0.0941
 4466TIP3    H134889   5.904   5.156  14.580  2.0930  0.6008  0.3656
 4466TIP3    H234890   5.838   5.060  14.677 -1.1670  1.0798 -1.2362
 4467TIP3   OH234891   1.255   2.992  13.310  0.9911 -0.1465  0.3099
 4467TIP3    H134892   1.290   2.920  13.258  0.4771 -0.7952  0.8447
 4467TIP3    H234893   1.311   2.996  13.387  1.2524  0.2879  0.1054
 4468TIP3   OH234894   5.133   1.755   3.734  0.6582  0.2303 -0.0940
 4468TIP3    H134895   5.054   1.723   3.776 -0.7242  0.6811 -2.2173
 4468TIP3    H234896   5.148   1.841   3.774  0.5837 -0.2065  0.9031
 4469TIP3   OH234897   2.640   4.184   4.725  0.8221 -0.2006 -0.5138
 4469TIP3    H134898   2.673   4.245   4.659  0.4574 -1.5456 -2.0171
 4469TIP3    H234899   2.688   4.205   4.805  0.2599  2.4346 -0.7877
 4470TIP3   OH234900   6.058   1.853   1.159 -0.0665 -0.2209  0.6594
 4470TIP3    H134901   5.967   1.830   1.140  0.0459  0.1691 -0.3842
 4470TIP3    H234902   6.099   1.867   1.074  0.0675  3.1288  1.1332
 4471TIP3   OH234903   0.088   5.739  13.970  0.7041  0.1879  0.2672
 4471TIP3    H134904   0.129   5.748  14.056  0.6777  0.0345  0.2962
 4471TIP3    H234905   0.115   5.652  13.940  0.2498  0.0102  0.3649
 4472TIP3   OH234906   5.060   3.140  12.669 -0.5246 -0.0970  0.0290
 4472TIP3    H134907   5.026   3.172  12.586 -1.4673 -1.2763 -0.0658
 4472TIP3    H234908   5.068   3.045  12.657  0.6022 -0.1301  0.8504
 4473TIP3   OH234909   4.646   4.956   4.796  0.3500 -0.0826 -0.3038
 4473TIP3    H134910   4.621   5.003   4.876  0.4660 -0.4086 -0.0737
 4473TIP3    H234911   4.564   4.946   4.748  0.3759  0.6542 -0.5223
 4474TIP3   OH234912   6.314   2.858   1.314  0.2497  0.6330  0.3712
 4474TIP3    H134913   6.221   2.880   1.314 -0.0218 -0.4876  0.4500
 4474TIP3    H234914   6.344   2.876   1.225  0.0583  1.3474  0.4417
 4475TIP3   OH234915   2.384   6.775   2.145  0.2435  0.7649  0.1814
 4475TIP3    H134916   2.379   6.682   2.121 -0.5210  0.5784  0.9955
 4475TIP3    H234917   2.407   6.820   2.064  1.2173 -0.1997 -0.0877
 4476TIP3   OH234918   3.305   5.314  16.055  0.2604  0.6033 -0.4662
 4476TIP3    H134919   3.263   5.400  16.054  0.0085  0.4816 -1.0333
 4476TIP3    H234920   3.297   5.283  15.965 -0.0700 -0.2142 -0.1694
 4477TIP3   OH234921   6.810   6.633  15.901  0.3027 -0.1620  0.7211
 4477TIP3    H134922   6.853   6.612  15.817  0.1258 -2.0492  1.0473
 4477TIP3    H234923   6.775   6.549  15.931 -1.0309  0.7867  1.9279
 4478TIP3   OH234924   4.542   0.543   3.522 -0.3078  0.3023 -0.0073
 4478TIP3    H134925   4.598   0.468   3.542 -1.4026 -0.3365  0.7243
 4478TIP3    H234926   4.557   0.560   3.428  0.4616 -0.3872 -0.0172
 4479TIP3   OH234927   4.071   0.944   5.452 -0.4992 -0.2898  0.4988
 4479TIP3    H134928   4.096   1.029   5.490  2.2441 -0.5058 -0.5904
 4479TIP3    H234929   4.077   0.958   5.358  1.2676 -1.9709  0.3024
 4480TIP3   OH234930   5.269   4.602  11.301  0.4727  0.1145 -0.6236
 4480TIP3    H134931   5.307   4.572  11.218  0.5562 -0.6496 -0.3127
 4480TIP3    H234932   5.229   4.686  11.279  1.8879  0.7053 -1.0835
 4481TIP3   OH234933   3.897   5.699   3.239 -0.3407 -0.3407  0.2445
 4481TIP3    H134934   3.956   5.740   3.175 -0.3557 -1.1164 -0.2693
 4481TIP3    H234935   3.890   5.764   3.309  0.3255  0.1802 -0.1575
 4482TIP3   OH234936   3.582   6.775   2.079 -0.4548 -0.1993  0.4032
 4482TIP3    H134937   3.529   6.845   2.042  0.7555 -0.5594 -2.2514
 4482TIP3    H234938   3.555   6.696   2.032  0.7957 -0.8156  0.6632
 4483TIP3   OH234939   2.729   0.304  12.815  0.2263  0.1226  0.1509
 4483TIP3    H134940   2.790   0.377  12.815  1.1103 -0.5406 -1.8021
 4483TIP3    H234941   2.644   0.344  12.798  0.6999  0.7334 -0.9166
 4484TIP3   OH234942   2.047   0.144   4.511  0.2917  0.1777  0.0275
 4484TIP3    H134943   2.092   0.112   4.590 -0.2154 -1.3715 -0.2638
 4484TIP3    H234944   2.109   0.128   4.440  0.2424  0.3546 -0.0552
 4485TIP3   OH234945   1.908   6.047  13.470 -0.3009 -0.3089  0.2178
 4485TIP3    H134946   1.996   6.054  13.432  0.0077 -1.3161  0.7194
 4485TIP3    H234947   1.855   6.009  13.401 -0.1903 -0.3115  0.1344
 4486TIP3   OH234948   4.377   5.585   5.422  0.0109  0.6443 -0.2110
 4486TIP3    H134949   4.456   5.534   5.438  0.5107  1.5397  0.2403
 4486TIP3    H234950   4.340   5.547   5.342  0.6785 -0.0319 -0.2129
 4487TIP3   OH234951   4.469   6.215   2.234  0.3793  0.4395 -0.1436
 4487TIP3    H134952   4.375   6.200   2.225  0.1840  0.9887  0.8537
 4487TIP3    H234953   4.478   6.311   2.234  1.0520  0.4017 -1.1999
 4488TIP3   OH234954   0.785   3.942  11.304  0.3971  0.7459  0.3910
 4488TIP3    H134955   0.871   3.966  11.267  0.1583 -0.6044 -1.1619
 4488TIP3    H234956   0.725   3.947  11.230 -1.1158  2.5738  1.6478
 4489TIP3   OH234957   3.649   5.157  11.719  0.3699  0.2524 -0.2870
 4489TIP3    H134958   3.591   5.233  11.722  0.0407  0.0043 -0.1472
 4489TIP3    H234959   3.635   5.119  11.632  0.0618 -0.0013 -0.1297
 4490TIP3   OH234960   0.798   1.874  12.973 -0.2981  0.3927  0.3878
 4490TIP3    H134961   0.810   1.865  13.067  1.4354  0.5087  0.2214
 4490TIP3    H234962   0.705   1.892  12.962 -0.3612  1.3934  2.1556
 4491TIP3   OH234963   2.226   3.654  13.980 -0.1432  0.0163  0.4831
 4491TIP3    H134964   2.247   3.647  13.887 -1.0150  0.8177  0.2061
 4491TIP3    H234965   2.183   3.739  13.988 -1.0094 -0.4964  1.4368
 4492TIP3   OH234966   5.318   2.464   1.673  0.4136  0.1611  0.3029
 4492TIP3    H134967   5.263   2.445   1.597  0.3749  3.2995 -0.5964
 4492TIP3    H234968   5.407   2.465   1.639  0.3108  2.6791 -0.0583
 4493TIP3   OH234969   1.754   4.100  11.495 -0.4785 -0.4226 -0.2525
 4493TIP3    H134970   1.819   4.046  11.450 -1.1240 -1.0917 -0.3981
 4493TIP3    H234971   1.761   4.186  11.453  0.1264 -0.5554 -0.4379
 4494TIP3   OH234972   1.896   2.414   3.563  0.7787  0.0252 -0.0899
 4494TIP3    H134973   1.861   2.444   3.647  1.5919 -0.3233  0.3829
 4494TIP3    H234974   1.862   2.476   3.499 -1.0683 -0.5271  0.2733
 4495TIP3   OH234975   2.883   3.074   4.863  0.2873 -0.2366 -0.3046
 4495TIP3    H134976   2.876   3.133   4.938 -1.6809  0.7695 -1.2012
 4495TIP3    H234977   2.954   3.110   4.810  0.3264  0.2353  0.0646
 4496TIP3   OH234978   4.275   0.509   3.467 -0.4269 -0.0020 -0.0325
 4496TIP3    H134979   4.255   0.468   3.383 -0.1244  1.3321 -0.7858
 4496TIP3    H234980   4.367   0.491   3.482 -0.8010 -1.4106  0.7093
 4497TIP3   OH234981   0.069   1.146  16.787  0.1725  0.6589  0.9396
 4497TIP3    H134982   0.007   1.182  16.851 -0.8976 -0.6491  0.6842
 4497TIP3    H234983   0.111   1.074  16.834 -0.4322 -0.1426  0.2680
 4498TIP3   OH234984   2.127   4.051  15.034 -0.1835 -0.1207 -0.1986
 4498TIP3    H134985   2.044   4.095  15.050 -0.9477 -0.9092 -1.7132
 4498TIP3    H234986   2.191   4.122  15.024 -0.9863  0.5706 -0.5546
 4499TIP3   OH234987   3.021   3.049   3.151 -0.5827 -0.2943 -0.3524
 4499TIP3    H134988   3.028   2.971   3.096  0.5715 -0.8742  0.5690
 4499TIP3    H234989   3.000   3.120   3.091  0.2470 -0.9840 -1.4749
 4500TIP3   OH234990   0.970   4.451  14.966  0.0690 -0.5443 -0.1474
 4500TIP3    H134991   1.038   4.511  14.997  0.7370 -1.4231  0.1413
 4500TIP3    H234992   0.998   4.365  14.999 -0.1428 -1.2266 -1.6639
 4501TIP3   OH234993   5.108   6.645   3.549  0.3905  0.2755 -0.0841
 4501TIP3    H134994   5.140   6.641   3.459 -1.5254  0.5409 -0.8377
 4501TIP3    H234995   5.040   6.713   3.546 -1.2046 -1.2062  1.0364
 4502TIP3   OH234996   3.730   4.632   2.827 -0.6118 -0.2782  0.5562
 4502TIP3    H134997   3.680   4.693   2.881 -0.7119 -0.3129  0.5030
 4502TIP3    H234998   3.743   4.556   2.883  0.2517  0.1230  0.9240
 4503TIP3   OH234999   4.004   1.185   4.367  0.6132  0.1173  0.1255
 4503TIP3    H135000   3.987   1.183   4.462  0.3759  0.3226  0.0856
 4503TIP3    H235001   3.930   1.232   4.330  1.3631  1.2224 -0.0202
 4504TIP3   OH235002   3.316   3.924  14.865 -0.8925 -0.2055  0.5073
 4504TIP3    H135003   3.320   3.919  14.960  2.8535  0.3330  0.5167
 4504TIP3    H235004   3.395   3.971  14.839 -1.2875 -1.1150 -2.9507
 4505TIP3   OH235005   4.160   3.073   1.803 -1.0105 -0.2269 -0.4926
 4505TIP3    H135006   4.129   3.131   1.873  1.8388  1.4714 -0.4953
 4505TIP3    H235007   4.137   3.119   1.722  1.9025  1.4354 -0.4892
 4506TIP3   OH235008   6.237   0.513   4.051  0.6066  0.1919  0.2689
 4506TIP3    H135009   6.178   0.560   4.110  0.0690  0.1692 -0.2387
 4506TIP3    H235010   6.181   0.449   4.007  0.6242  1.2951 -1.4566
 4507TIP3   OH235011   6.417   6.263  12.336 -0.2766 -0.2870 -0.2172
 4507TIP3    H135012   6.343   6.203  12.348 -0.4146 -0.5046 -1.9273
 4507TIP3    H235013   6.404   6.331  12.401 -1.4607 -0.8313  0.1364
 4508TIP3   OH235014   1.409   6.380  14.804  0.6475 -0.4861 -0.2541
 4508TIP3    H135015   1.327   6.384  14.755  0.0464 -1.4575  0.6083
 4508TIP3    H235016   1.473   6.425  14.749 -0.4447  0.2375 -0.9744
 4509TIP3   OH235017   5.541   2.768  12.070 -0.3464 -0.0343  0.0158
 4509TIP3    H135018   5.509   2.762  11.979  0.7575  0.7914 -0.4486
 4509TIP3    H235019   5.597   2.846  12.070 -0.2361 -0.1021  1.3894
 4510TIP3   OH235020   2.645   5.786   5.333 -0.1641 -0.1432  0.1064
 4510TIP3    H135021   2.643   5.706   5.281 -1.2314  1.4646 -2.5506
 4510TIP3    H235022   2.732   5.822   5.319 -0.5942  0.5134 -1.0513
 4511TIP3   OH235023   6.302   4.335  11.820 -0.3360 -0.4331 -0.1113
 4511TIP3    H135024   6.314   4.414  11.872  0.5360 -1.1401  0.8029
 4511TIP3    H235025   6.389   4.315  11.785 -0.3897 -1.3722  0.2459
 4512TIP3   OH235026   2.792   1.156  15.170 -0.0267 -0.5382 -0.3150
 4512TIP3    H135027   2.710   1.124  15.132  0.1982  0.0867 -1.3762
 4512TIP3    H235028   2.858   1.091  15.144  0.1334 -0.0929 -1.0638
 4513TIP3   OH235029   3.825   3.843   0.848  0.0569  0.4978 -0.2749
 4513TIP3    H135030   3.799   3.831   0.939  1.6272 -0.3432  0.0831
 4513TIP3    H235031   3.809   3.758   0.807 -2.4239  1.3642 -1.3036
 4514TIP3   OH235032   0.539   3.666   4.754  0.2560  0.2049  0.6130
 4514TIP3    H135033   0.477   3.726   4.795 -0.4094  0.6242 -0.9417
 4514TIP3    H235034   0.525   3.678   4.660  1.1544 -1.3158  0.2617
 4515TIP3   OH235035   6.720   4.866   5.981 -0.5222  0.3536  0.3673
 4515TIP3    H135036   6.804   4.859   6.026  0.2216 -0.4893 -1.0832
 4515TIP3    H235037   6.669   4.792   6.015 -0.7137  0.8963  1.2895
 4516TIP3   OH235038   4.655   1.273   0.534 -0.6854 -0.7626 -0.3830
 4516TIP3    H135039   4.717   1.343   0.514 -1.0039 -0.7282 -1.2954
 4516TIP3    H235040   4.595   1.311   0.599  2.5895 -2.0465  3.8249
 4517TIP3   OH235041   3.467   3.229  10.512  0.0942 -0.2823  0.0256
 4517TIP3    H135042   3.522   3.206  10.438  1.1139  1.3603  0.2117
 4517TIP3    H235043   3.476   3.155  10.573  0.3762 -0.9968 -0.8700
 4518TIP3   OH235044   6.477   1.042   3.279  0.4535 -0.5999  0.0422
 4518TIP3    H135045   6.492   1.027   3.186 -0.2522 -1.7902  0.1078
 4518TIP3    H235046   6.415   0.974   3.305  1.3679 -0.8798  1.5976
 4519TIP3   OH235047   4.870   3.997   3.021 -0.2378  0.1690 -0.2824
 4519TIP3    H135048   4.778   4.009   2.998 -0.2518 -1.6732 -1.3286
 4519TIP3    H235049   4.869   3.939   3.097  0.0703 -0.2134 -0.5684
 4520TIP3   OH235050   3.874   0.978   1.875 -0.0690  0.0071  0.2643
 4520TIP3    H135051   3.902   1.067   1.895 -1.4554  0.4488  0.3275
 4520TIP3    H235052   3.821   0.986   1.796 -4.5887  0.1682  2.9557
 4521TIP3   OH235053   4.605   4.295   5.342  0.3846  0.1667  0.5780
 4521TIP3    H135054   4.511   4.284   5.352  0.7272 -1.6785  2.7937
 4521TIP3    H235055   4.622   4.279   5.250 -1.2097 -2.4170  0.6280
 4522TIP3   OH235056   3.834   2.994   0.272  0.6555 -0.3914 -0.1947
 4522TIP3    H135057   3.896   2.985   0.200  0.8915 -0.3534  0.0007
 4522TIP3    H235058   3.841   2.911   0.320 -0.1779 -0.7838 -0.7428
 4523TIP3   OH235059   5.625   2.418  12.654  0.0741 -0.2572  0.4732
 4523TIP3    H135060   5.534   2.424  12.624  0.1542 -1.6299 -0.0759
 4523TIP3    H235061   5.642   2.325  12.665  1.4700 -0.0367  0.4422
 4524TIP3   OH235062   2.225   0.989   5.238  0.0494 -0.1286  0.1501
 4524TIP3    H135063   2.237   0.922   5.305  0.1691  0.0381  0.2962
 4524TIP3    H235064   2.311   1.031   5.229  0.3618 -0.9674 -0.9947
 4525TIP3   OH235065   3.483   5.990   0.109 -0.3295 -0.1887  0.3171
 4525TIP3    H135066   3.448   5.906   0.139 -1.1542 -0.8341 -2.2219
 4525TIP3    H235067   3.413   6.027   0.056  0.5903  1.4241  0.1794
 4526TIP3   OH235068   2.731   4.632   6.323 -0.7592 -0.2370  0.7015
 4526TIP3    H135069   2.667   4.594   6.383 -1.2336 -0.4569  0.0768
 4526TIP3    H235070   2.750   4.718   6.359 -2.7546  0.5727  0.0035
 4527TIP3   OH235071   4.952   5.306   1.270 -0.5790 -0.4841  0.2306
 4527TIP3    H135072   4.929   5.302   1.177  1.2310 -1.3613 -0.2261
 4527TIP3    H235073   5.041   5.341   1.271 -0.2852 -1.2160  1.5840
 4528TIP3   OH235074   6.454   6.372   3.244  0.3950 -0.2394  0.3145
 4528TIP3    H135075   6.493   6.299   3.195 -2.0098  0.4115 -2.8793
 4528TIP3    H235076   6.367   6.340   3.269  0.4253  0.5571  1.5272
 4529TIP3   OH235077   0.547   4.190   1.327 -0.4956  0.3178  0.1629
 4529TIP3    H135078   0.467   4.199   1.379 -0.7589 -0.7801 -0.0302
 4529TIP3    H235079   0.578   4.101   1.347 -1.4290 -0.7403 -2.6917
 4530TIP3   OH235080   4.744   4.682  11.433 -0.0194 -0.1448  0.3259
 4530TIP3    H135081   4.747   4.764  11.482  0.5877 -1.2625  2.2583
 4530TIP3    H235082   4.652   4.672  11.408 -0.2652  0.6762  0.8737
 4531TIP3   OH235083   5.899   2.682  15.126 -0.6977  0.1359 -0.3070
 4531TIP3    H135084   5.856   2.660  15.209  0.0544  1.2655  0.4050
 4531TIP3    H235085   5.857   2.764  15.099 -0.3055  0.2575 -0.5546
 4532TIP3   OH235086   6.150   6.404   3.635  0.2831  0.4242  0.5009
 4532TIP3    H135087   6.170   6.450   3.717 -1.9488 -0.2410  1.5002
 4532TIP3    H235088   6.179   6.465   3.567  3.5388  0.3993  1.6693
 4533TIP3   OH235089   4.851   5.986   0.271  0.5956 -0.2431 -0.4952
 4533TIP3    H135090   4.840   5.969   0.177  0.2733 -1.2641 -0.2906
 4533TIP3    H235091   4.768   6.025   0.298  0.7246  0.1442 -0.6455
 4534TIP3   OH235092   5.267   6.625  12.225  0.0167 -0.0763 -0.0894
 4534TIP3    H135093   5.301   6.712  12.202  1.6165 -1.0847 -1.8281
 4534TIP3    H235094   5.346   6.573  12.241 -0.8983 -1.3786  0.2836
 4535TIP3   OH235095   0.822   4.941  10.768  0.5893  0.1026 -0.0198
 4535TIP3    H135096   0.762   4.995  10.818 -0.2469 -2.3985  1.8950
 4535TIP3    H235097   0.898   4.997  10.752 -0.2460  1.8413  1.7416
 4536TIP3   OH235098   0.027   1.773   4.822  0.5552 -0.4165 -0.3569
 4536TIP3    H135099   0.093   1.729   4.769 -1.0166 -1.3763 -1.6140
 4536TIP3    H235100  -0.037   1.704   4.843 -1.2859  0.9202 -1.2538
 4537TIP3   OH235101   3.295   0.652   0.640 -0.5079  0.2203  0.5389
 4537TIP3    H135102   3.277   0.652   0.734 -0.8505 -0.1359  0.4761
 4537TIP3    H235103   3.285   0.560   0.614 -1.2750  0.4509 -0.0082
 4538TIP3   OH235104   6.138   3.483  11.916  0.3737  0.1717 -1.0386
 4538TIP3    H135105   6.194   3.560  11.908 -0.5131  1.0817  0.8907
 4538TIP3    H235106   6.049   3.516  11.902  0.0155 -0.5677 -0.6228
 4539TIP3   OH235107   3.801   4.934   0.486  0.1481 -0.3672 -0.2815
 4539TIP3    H135108   3.839   4.933   0.574  1.8587  1.1058 -0.9299
 4539TIP3    H235109   3.720   4.985   0.495  0.4032 -0.0701  0.4154
 4540TIP3   OH235110   1.175   2.897  13.639 -0.7862  0.2980 -0.1828
 4540TIP3    H135111   1.257   2.924  13.599 -0.0226 -0.7740  0.6095
 4540TIP3    H235112   1.119   2.873  13.564 -0.7233  1.8834 -0.7685
 4541TIP3   OH235113   4.685   3.367  16.802 -0.2692  0.9034  0.1255
 4541TIP3    H135114   4.615   3.391  16.742 -0.0413  0.6660 -0.2393
 4541TIP3    H235115   4.747   3.440  16.797 -0.8764  1.5146  1.0826
 4542TIP3   OH235116   4.083   6.095   1.998  0.0437  0.1230  0.0391
 4542TIP3    H135117   4.175   6.103   1.976 -0.0423  0.0879 -0.3398
 4542TIP3    H235118   4.053   6.017   1.952 -0.3004  0.4368 -0.2873
 4543TIP3   OH235119   5.975   0.801  12.439 -0.3030 -0.2545 -0.2175
 4543TIP3    H135120   5.895   0.767  12.479  0.6081 -0.8770  1.1444
 4543TIP3    H235121   5.947   0.881  12.394 -2.1893 -1.8539 -2.1285
 4544TIP3   OH235122   1.400   1.264  16.528  0.4994 -0.0319  0.1304
 4544TIP3    H135123   1.424   1.299  16.442  2.6207 -1.5633  0.0305
 4544TIP3    H235124   1.378   1.342  16.579  1.1868  1.1035 -1.2129
 4545TIP3   OH235125   1.639   5.027   5.696  0.3776 -0.2649  0.0340
 4545TIP3    H135126   1.627   5.023   5.601 -1.6104  2.1633  0.1021
 4545TIP3    H235127   1.713   5.086   5.709 -0.0544  0.2805  0.0163
 4546TIP3   OH235128   3.412   1.517   4.737 -0.0607 -0.3959  0.0569
 4546TIP3    H135129   3.431   1.608   4.758  1.2549 -0.4197 -0.9155
 4546TIP3    H235130   3.325   1.520   4.696  0.2110  0.5161 -0.4907
 4547TIP3   OH235131   4.238   3.127  13.100 -0.5636 -0.5112  0.5209
 4547TIP3    H135132   4.164   3.075  13.068  0.4060 -0.6956 -1.6010
 4547TIP3    H235133   4.227   3.213  13.058  0.7677 -0.7707 -0.4493
 4548TIP3   OH235134   3.406   1.310  16.922  0.2830 -0.1705  0.3359
 4548TIP3    H135135   3.340   1.378  16.909 -0.1787 -0.8305 -0.9934
 4548TIP3    H235136   3.368   1.252  16.988  0.6687  0.8194  1.4545
 4549TIP3   OH235137   3.167   2.520  11.771  0.0205  0.2496 -0.3894
 4549TIP3    H135138   3.206   2.569  11.842  1.1694 -2.1789  0.7805
 4549TIP3    H235139   3.082   2.491  11.805  0.3260 -0.4481 -0.2178
 4550TIP3   OH235140   0.432   5.507  16.553 -0.0182 -0.3974 -0.4179
 4550TIP3    H135141   0.369   5.580  16.554  1.7338  1.2136 -1.1033
 4550TIP3    H235142   0.498   5.532  16.617  2.3612  0.3596 -2.9534
 4551TIP3   OH235143   0.675   6.714  16.774  0.1977  0.3308  0.4985
 4551TIP3    H135144   0.725   6.658  16.714  1.9653  1.7034  0.5896
 4551TIP3    H235145   0.729   6.792  16.784 -2.7730  2.7518 -0.7357
 4552TIP3   OH235146   4.673   0.804   2.924  0.0669 -0.4271 -0.2570
 4552TIP3    H135147   4.583   0.827   2.947 -0.1737 -1.4021 -0.1597
 4552TIP3    H235148   4.664   0.743   2.851  0.5326 -1.9124  0.8713
 4553TIP3   OH235149   2.440   6.707  16.895  0.6954 -0.5035  0.1315
 4553TIP3    H135150   2.430   6.801  16.909 -1.2429 -0.4834 -1.0040
 4553TIP3    H235151   2.462   6.698  16.802  0.7052 -1.1753  0.1927
 4554TIP3   OH235152   4.607   3.751  14.530 -0.0036 -0.6303 -0.3410
 4554TIP3    H135153   4.553   3.680  14.563 -1.2167  0.1541 -0.5774
 4554TIP3    H235154   4.608   3.816  14.600  1.4562 -1.0393  0.0479
 4555TIP3   OH235155   6.480   6.053  14.229 -0.4909  0.0944 -0.4509
 4555TIP3    H135156   6.426   6.079  14.154 -0.2804  1.4906 -0.1443
 4555TIP3    H235157   6.440   6.096  14.304 -0.3004 -0.7428  0.1420
 4556TIP3   OH235158   2.205   4.238   2.488  0.0375 -0.3216  0.1100
 4556TIP3    H135159   2.179   4.145   2.487  0.7862 -0.5413 -0.0704
 4556TIP3    H235160   2.295   4.236   2.519  0.4157  0.2517 -0.9130
 4557TIP3   OH235161   6.701   3.761  16.104 -0.2952  0.7461  0.3210
 4557TIP3    H135162   6.727   3.699  16.036 -1.0163 -0.1042  0.8064
 4557TIP3    H235163   6.690   3.844  16.058  1.2689  0.6708 -0.2401
 4558TIP3   OH235164   6.535   1.863  16.392  0.9648  0.3412 -0.2246
 4558TIP3    H135165   6.532   1.871  16.487 -0.2245 -2.1253  0.0303
 4558TIP3    H235166   6.581   1.780  16.376  1.2961  0.7937 -1.8223
 4559TIP3   OH235167   6.346   3.582  10.690  0.4690 -0.3062 -0.1647
 4559TIP3    H135168   6.286   3.654  10.709  0.5834  0.1450 -1.3947
 4559TIP3    H235169   6.361   3.589  10.595  1.0457 -1.5118 -0.1729
 4560TIP3   OH235170   3.423   5.079   3.196 -0.1999  0.2799  0.2248
 4560TIP3    H135171   3.436   5.017   3.268 -2.9142  0.3261  0.8682
 4560TIP3    H235172   3.423   5.165   3.239 -0.0914  0.4390 -0.0951
 4561TIP3   OH235173   0.526   2.740  11.266  0.6002 -0.2057 -0.4358
 4561TIP3    H135174   0.524   2.804  11.337  3.3218 -0.8163  0.3150
 4561TIP3    H235175   0.540   2.792  11.187 -0.3086  0.3293 -0.2515
 4562TIP3   OH235176   2.867   5.218  11.578 -0.3561 -0.1001 -0.2463
 4562TIP3    H135177   2.841   5.245  11.666  0.4551 -0.6857  0.1819
 4562TIP3    H235178   2.883   5.124  11.585 -1.1712 -0.3220 -1.2405
 4563TIP3   OH235179   4.663   2.450   2.151 -0.3471  0.1744 -0.1032
 4563TIP3    H135180   4.725   2.385   2.185 -2.4163 -1.5637  0.6113
 4563TIP3    H235181   4.677   2.449   2.056  0.7404 -0.1269  0.0507
 4564TIP3   OH235182   4.076   5.327  11.312  0.1396 -0.2427 -0.4151
 4564TIP3    H135183   4.017   5.284  11.250 -0.5930  0.1901 -0.0259
 4564TIP3    H235184   4.156   5.275  11.308  0.5668  0.4364 -2.6181
 4565TIP3   OH235185   3.848   2.225   1.543 -0.1690 -0.2481  0.1505
 4565TIP3    H135186   3.864   2.256   1.632  0.7997 -1.1396  0.3032
 4565TIP3    H235187   3.935   2.208   1.507 -0.5149  0.7273 -1.2107
 4566TIP3   OH235188   6.052   0.366   3.921  0.4880 -0.7101 -0.0302
 4566TIP3    H135189   6.039   0.370   3.827  2.9245 -0.3199 -0.4204
 4566TIP3    H235190   5.976   0.410   3.959 -0.5003 -0.8425 -1.7960
 4567TIP3   OH235191   4.726   1.835   3.100  0.0762 -0.0216  0.3974
 4567TIP3    H135192   4.774   1.803   3.024  0.3606  0.4763  0.3628
 4567TIP3    H235193   4.634   1.818   3.079  0.2133 -0.6464  0.3074
 4568TIP3   OH235194   6.155   1.268   5.103  0.4097  0.3819  0.2964
 4568TIP3    H135195   6.148   1.173   5.091 -4.8361  0.2594  1.7820
 4568TIP3    H235196   6.214   1.278   5.178  1.3108 -1.6480 -0.0810
 4569TIP3   OH235197   2.346   0.579   3.273  0.1972  0.6347  0.5288
 4569TIP3    H135198   2.395   0.578   3.356 -0.6127 -0.9300  1.0272
 4569TIP3    H235199   2.256   0.561   3.299 -0.4018  2.0212 -0.5267
 4570TIP3   OH235200   0.820   6.844  15.217  0.6018  0.6364  0.3939
 4570TIP3    H135201   0.766   6.803  15.150  2.2406 -1.5743  0.3162
 4570TIP3    H235202   0.879   6.901  15.167  0.9297  0.0236  0.0712
 4571TIP3   OH235203   1.400   0.663   5.493  0.7750 -0.0035  0.2719
 4571TIP3    H135204   1.396   0.758   5.505  1.4440  0.1880 -0.8853
 4571TIP3    H235205   1.411   0.650   5.399 -1.5042 -1.3277  0.1112
 4572TIP3   OH235206   6.137   5.836  12.714  0.1121  0.1094  0.2051
 4572TIP3    H135207   6.114   5.865  12.802  0.2649 -1.2828  0.7281
 4572TIP3    H235208   6.063   5.784  12.686 -0.4149  1.4220 -0.9554
 4573TIP3   OH235209   3.750   5.931  12.824  0.3715 -0.3238 -0.8001
 4573TIP3    H135210   3.658   5.935  12.852  0.0643 -0.0335 -1.8348
 4573TIP3    H235211   3.759   5.843  12.786  0.8878 -0.8568  0.4620
 4574TIP3   OH235212   2.452   5.209   2.258  0.2966 -0.7422  0.6266
 4574TIP3    H135213   2.513   5.172   2.194  1.0232  0.6602  0.4723
 4574TIP3    H235214   2.369   5.214   2.211 -0.0187 -2.7222  0.8574
 4575TIP3   OH235215   4.378   2.051  16.426 -0.3441  0.1959 -0.0649
 4575TIP3    H135216   4.324   2.068  16.350 -1.4232  1.6253  0.9762
 4575TIP3    H235217   4.383   1.956  16.431 -0.6594  0.0730 -1.6127
 4576TIP3   OH235218   5.044   3.927   5.292 -0.1131 -0.5182 -0.2878
 4576TIP3    H135219   5.079   4.011   5.262  0.5616 -0.8399 -0.4247
 4576TIP3    H235220   4.952   3.944   5.311 -0.1218  0.1083 -0.8798
 4577TIP3   OH235221   6.158   6.192   3.956  0.1540 -0.5126  0.4860
 4577TIP3    H135222   6.162   6.160   4.046  0.5270  1.3497  1.1658
 4577TIP3    H235223   6.233   6.250   3.948 -0.6199  0.3726 -0.6124
 4578TIP3   OH235224   3.150   0.493  13.706 -0.0915 -0.1733  0.1728
 4578TIP3    H135225   3.186   0.412  13.743  0.6019  0.5327  1.0985
 4578TIP3    H235226   3.060   0.470  13.683 -0.2292 -0.9514  1.3416
 4579TIP3   OH235227   2.969   1.559  15.083  0.5743  0.3835  0.1159
 4579TIP3    H135228   2.906   1.505  15.130  1.7676 -1.0242  0.2150
 4579TIP3    H235229   2.918   1.603  15.016 -0.7256  0.3930  1.0736
 4580TIP3   OH235230   5.089   6.788  16.526  0.1851  0.1849 -0.2973
 4580TIP3    H135231   4.993   6.794  16.518  0.1729 -0.6019 -0.7997
 4580TIP3    H235232   5.102   6.742  16.609  0.0770 -1.2542 -1.0521
 4581TIP3   OH235233   1.394   3.275  15.532 -0.1233 -0.3797 -0.3586
 4581TIP3    H135234   1.470   3.221  15.553  0.4581  1.3388  2.5243
 4581TIP3    H235235   1.342   3.221  15.473  1.6375 -3.0073  0.3069
 4582TIP3   OH235236   4.719   0.746  16.103  0.2661  0.2991  0.2186
 4582TIP3    H135237   4.768   0.798  16.038  0.0575 -0.3263 -0.4588
 4582TIP3    H235238   4.783   0.682  16.134  0.2821  0.4059  0.4024
 4583TIP3   OH235239   3.887   2.927  11.619 -0.2518  0.3653 -0.1487
 4583TIP3    H135240   3.938   2.849  11.597  1.1525  1.2388 -0.0960
 4583TIP3    H235241   3.886   2.928  11.715 -1.4601 -0.3189 -0.1357
 4584TIP3   OH235242   3.025   0.769  11.979  0.2156 -0.0524 -1.0462
 4584TIP3    H135243   2.964   0.708  12.020  0.2282 -0.1260 -1.1386
 4584TIP3    H235244   3.010   0.759  11.885 -0.3275  0.6337 -1.0445
 4585TIP3   OH235245   4.960   5.844  11.946 -0.0910 -0.1663 -0.0943
 4585TIP3    H135246   5.040   5.886  11.914  0.7592 -0.5737  1.3818
 4585TIP3    H235247   4.941   5.889  12.029 -1.0368 -0.4988 -0.1236
 4586TIP3   OH235248   0.804   4.517   1.455 -0.0591  0.0638  0.0556
 4586TIP3    H135249   0.839   4.606   1.448 -1.3626  0.4763 -1.9759
 4586TIP3    H235250   0.878   4.461   1.429  0.0818  0.7197 -1.0326
 4587TIP3   OH235251   4.892   2.048  11.248 -0.5194 -0.2203  0.0897
 4587TIP3    H135252   4.922   1.962  11.220  0.3407 -0.0276  0.3862
 4587TIP3    H235253   4.799   2.049  11.227 -0.0213 -0.2371 -2.3935
 4588TIP3   OH235254   6.389   0.205  12.861 -0.2825  0.0837  0.2410
 4588TIP3    H135255   6.317   0.182  12.802  1.0749  1.0588 -1.9273
 4588TIP3    H235256   6.461   0.149  12.833  0.5225  0.8543  0.7369
 4589TIP3   OH235257   0.726   0.843  14.808  0.0331 -0.5763  0.1240
 4589TIP3    H135258   0.812   0.856  14.769 -0.5741 -2.8951 -2.3741
 4589TIP3    H235259   0.672   0.914  14.772  0.4824 -0.1855  0.2217
 4590TIP3   OH235260   4.708   0.276  13.645 -0.6112 -0.6014 -0.2391
 4590TIP3    H135261   4.724   0.187  13.616  1.7212 -0.9057  1.5776
 4590TIP3    H235262   4.777   0.292  13.711 -2.0832  1.8789  0.8551
 4591TIP3   OH235263   5.260   0.057   1.736 -0.1263  0.4205 -0.4927
 4591TIP3    H135264   5.194   0.025   1.798  0.1556  0.2744 -0.2655
 4591TIP3    H235265   5.210   0.082   1.659 -0.4071 -0.0782 -0.4753
 4592TIP3   OH235266   0.542   5.428  10.469 -1.0034 -0.1915  0.2412
 4592TIP3    H135267   0.620   5.393  10.513 -1.0951 -0.4304  0.2128
 4592TIP3    H235268   0.491   5.351  10.446 -2.2351 -0.0033  2.0724
 4593TIP3   OH235269   2.228   1.860  15.863 -0.0906 -0.4662  0.1477
 4593TIP3    H135270   2.161   1.857  15.932 -0.6031  2.2980 -0.1350
 4593TIP3    H235271   2.258   1.951  15.862  0.6718 -0.6594 -2.5764
 4594TIP3   OH235272   0.592   5.530   1.055  0.0736 -0.0654  0.3611
 4594TIP3    H135273   0.569   5.570   1.139  1.4297 -0.4158  0.9258
 4594TIP3    H235274   0.550   5.586   0.990  2.3517  2.7448  1.0665
 4595TIP3   OH235275   1.880   5.942  12.064  0.4787  0.3605 -0.5271
 4595TIP3    H135276   1.933   6.001  12.118 -0.6374  0.8519  0.0623
 4595TIP3    H235277   1.906   5.963  11.974  0.8905  0.9864 -0.2749
 4596TIP3   OH235278   3.014   2.950   5.558  0.8949  0.1723  0.8834
 4596TIP3    H135279   3.082   2.885   5.573  0.8370  0.3912  2.2219
 4596TIP3    H235280   2.935   2.912   5.596  0.5210  0.3886  0.3290
 4597TIP3   OH235281   6.109   6.191  11.445  0.1424 -0.2111  0.1228
 4597TIP3    H135282   6.174   6.246  11.401  0.1798  0.5541  1.1086
 4597TIP3    H235283   6.158   6.143  11.511  0.0967 -1.4057 -0.6781
 4598TIP3   OH235284   6.857   4.985  10.294 -0.5584 -0.5519 -0.4201
 4598TIP3    H135285   6.864   5.037  10.374 -0.5575  0.7072 -1.2111
 4598TIP3    H235286   6.768   5.002  10.262 -0.7773 -1.5446 -0.3661
 4599TIP3   OH235287   3.784   3.029  13.707  0.1359 -0.7001  1.0061
 4599TIP3    H135288   3.840   3.106  13.706 -1.1194  0.3470 -2.2361
 4599TIP3    H235289   3.827   2.967  13.648 -2.4383  0.6011 -2.5782
 4600TIP3   OH235290   1.623   1.644  10.813 -0.2724 -0.4754  0.3038
 4600TIP3    H135291   1.596   1.652  10.721  0.6803 -0.9536 -0.0379
 4600TIP3    H235292   1.587   1.721  10.856  1.8834  1.4798 -1.1536
 4601TIP3   OH235293   4.328   1.074  13.792  0.2092  0.4079 -0.3881
 4601TIP3    H135294   4.412   1.069  13.745  1.1776  2.5163  0.9574
 4601TIP3    H235295   4.344   1.136  13.864 -1.6785 -1.3858  1.7330
 4602TIP3   OH235296   2.825   2.735   2.265 -0.0885  0.6008  0.6960
 4602TIP3    H135297   2.855   2.782   2.342 -0.0558 -0.9610  1.6769
 4602TIP3    H235298   2.887   2.663   2.255 -0.9475 -0.0814  0.1051
 4603TIP3   OH235299   1.285   4.041  15.759  0.1714 -0.0185  0.4442
 4603TIP3    H135300   1.216   3.982  15.731  0.9873 -1.7921  1.9752
 4603TIP3    H235301   1.258   4.069  15.847  1.2282 -0.4711  0.9210
 4604TIP3   OH235302   3.854   4.096   0.330 -0.3675  0.2946 -0.2754
 4604TIP3    H135303   3.808   4.092   0.414 -0.4461  0.4220 -0.3118
 4604TIP3    H235304   3.789   4.069   0.265 -0.5462  0.9721 -0.3845
 4605TIP3   OH235305   0.142   5.278   2.143  0.4860 -0.2603 -0.0529
 4605TIP3    H135306   0.068   5.244   2.093 -0.2238  0.7154  0.3110
 4605TIP3    H235307   0.166   5.206   2.202  0.8957 -1.1759 -1.2761
 4606TIP3   OH235308   4.492   0.555   2.792 -0.2590  0.4570 -0.3448
 4606TIP3    H135309   4.536   0.476   2.760  2.2358  1.4683  0.3685
 4606TIP3    H235310   4.481   0.540   2.886 -0.1535  0.7887 -0.2798
 4607TIP3   OH235311   4.925   2.263   4.023 -0.4129  0.2102 -0.2816
 4607TIP3    H135312   4.973   2.339   3.990 -0.0752 -0.0011 -0.2827
 4607TIP3    H235313   4.847   2.300   4.064 -1.3888  0.4180 -2.2187
 4608TIP3   OH235314   4.023   0.052   0.848 -0.1840 -0.3007  0.0569
 4608TIP3    H135315   4.042  -0.037   0.879  2.3872  0.4317  0.8536
 4608TIP3    H235316   3.985   0.097   0.924  2.0943  0.2775  0.9461
 4609TIP3   OH235317   6.590   5.895   1.075  0.6741  0.0364  0.3896
 4609TIP3    H135318   6.594   5.867   1.166  0.1341  0.2912  0.4997
 4609TIP3    H235319   6.666   5.952   1.064  1.4194 -0.9609  0.3344
 4610TIP3   OH235320   6.199   3.179   3.341  0.5632 -0.4295  0.0288
 4610TIP3    H135321   6.191   3.099   3.290  0.7559 -0.5783  0.2307
 4610TIP3    H235322   6.289   3.179   3.373  0.4548 -0.3229  0.3426
 4611TIP3   OH235323   1.975   6.278  11.074 -0.3156  0.1740  0.6207
 4611TIP3    H135324   2.004   6.369  11.082 -0.9982  0.3507  1.2169
 4611TIP3    H235325   2.028   6.242  11.003  0.3095  0.8951  0.7089
 4612TIP3   OH235326   2.858   3.919  12.017  0.4435 -0.1985  0.2407
 4612TIP3    H135327   2.852   3.859  12.091 -0.1382 -0.5462 -0.0777
 4612TIP3    H235328   2.812   3.998  12.046 -0.1826 -0.5028  0.0978
 4613TIP3   OH235329   3.055   6.857  16.850 -0.1828  0.1273 -0.1334
 4613TIP3    H135330   3.044   6.796  16.922 -0.3810 -0.0247 -0.2908
 4613TIP3    H235331   2.969   6.861  16.808  0.1515 -0.4714 -0.9019
 4614TIP3   OH235332   3.766   5.886  13.294  0.1674  0.2638 -0.1744
 4614TIP3    H135333   3.811   5.964  13.326  1.3713  0.2305 -1.6821
 4614TIP3    H235334   3.808   5.866  13.211 -1.6488 -0.6678 -0.9379
 4615TIP3   OH235335   3.126   1.041   1.632 -0.6853  0.2717 -0.1025
 4615TIP3    H135336   3.205   1.074   1.675 -0.5083 -1.0156  0.6201
 4615TIP3    H235337   3.064   1.114   1.637 -0.1403  0.6875  0.9599
 4616TIP3   OH235338   5.206   5.690  11.095  0.5137  0.1397 -0.0448
 4616TIP3    H135339   5.165   5.704  11.010 -0.5972  0.1377  0.4766
 4616TIP3    H235340   5.160   5.615  11.132 -0.3658  1.3145  1.3736
 4617TIP3   OH235341   3.532   3.514  12.506  0.0293  0.4594  0.2578
 4617TIP3    H135342   3.569   3.524  12.594  1.0526  0.0930 -0.1157
 4617TIP3    H235343   3.445   3.478  12.520  0.9279 -1.5303  1.0503
 4618TIP3   OH235344   4.336   5.189   3.055  0.3072  0.1892 -0.1081
 4618TIP3    H135345   4.289   5.123   3.107  2.1187 -0.8802  0.2567
 4618TIP3    H235346   4.402   5.139   3.007  2.7079  1.8246  1.2871
 4619TIP3   OH235347   1.699   3.813   2.835 -0.1048 -0.6423 -0.1939
 4619TIP3    H135348   1.789   3.842   2.821 -0.6814  0.4366 -1.9805
 4619TIP3    H235349   1.662   3.806   2.747 -2.5194  1.5491  0.5056
 4620TIP3   OH235350   1.814   6.254   0.722 -0.2970  0.1913  0.1582
 4620TIP3    H135351   1.886   6.192   0.717 -1.6224 -1.3733 -0.6892
 4620TIP3    H235352   1.739   6.201   0.749 -1.1491  1.7597  1.0273
 4621TIP3   OH235353   3.258   1.575  11.581  0.2663  0.1261 -0.2957
 4621TIP3    H135354   3.179   1.525  11.562 -0.5163  1.6174 -1.1504
 4621TIP3    H235355   3.233   1.634  11.652  0.2172  1.4495 -1.3820
 4622TIP3   OH235356   0.490   4.089  14.370  0.0395 -0.4499  0.0002
 4622TIP3    H135357   0.559   4.155  14.363  0.9482 -1.0313  2.3670
 4622TIP3    H235358   0.519   4.017  14.314  1.3511 -0.6290  0.8569
 4623TIP3   OH235359   6.786   2.901   0.213 -0.2780 -0.1250  0.1541
 4623TIP3    H135360   6.692   2.888   0.198 -1.0112  1.4827  2.6616
 4623TIP3    H235361   6.800   2.994   0.196  1.0770 -0.4937 -0.9071
 4624TIP3   OH235362   5.569   3.140  16.405 -0.2506 -0.3073 -0.4106
 4624TIP3    H135363   5.553   3.098  16.490  0.0072 -1.0679 -0.7307
 4624TIP3    H235364   5.549   3.232  16.420  2.9963  0.2406  1.4123
 4625TIP3   OH235365   1.978   2.677  14.604 -0.1494  0.6671  0.2416
 4625TIP3    H135366   1.979   2.728  14.523  0.8920  1.0185  0.4571
 4625TIP3    H235367   2.032   2.729  14.665 -0.4468  0.1247  0.9775
 4626TIP3   OH235368   0.484   5.910  13.397 -0.3204  0.5025 -0.3913
 4626TIP3    H135369   0.474   5.919  13.302  0.2491 -2.4306 -0.8113
 4626TIP3    H235370   0.579   5.913  13.411 -0.1027 -2.7079 -0.4846
 4627TIP3   OH235371   5.416   4.592   4.947  0.5383  0.1974 -0.1281
 4627TIP3    H135372   5.496   4.586   4.895 -0.6273  0.1232 -2.0112
 4627TIP3    H235373   5.414   4.683   4.978  1.6848  0.0113  0.5301
 4628TIP3   OH235374   4.783   3.416   5.714  0.4110 -0.1000  0.4565
 4628TIP3    H135375   4.806   3.404   5.622 -2.5266 -1.8312 -0.1819
 4628TIP3    H235376   4.808   3.334   5.756 -1.9659 -0.9927  0.2570
 4629TIP3   OH235377   2.906   4.407   6.433  0.3029  0.4836  0.0882
 4629TIP3    H135378   2.850   4.476   6.399  0.0230  0.2369  0.0440
 4629TIP3    H235379   2.853   4.362   6.499 -0.2805 -0.9688 -1.2937
 4630TIP3   OH235380   0.120   2.060   4.241 -0.2044 -0.3386  0.4837
 4630TIP3    H135381   0.041   2.059   4.296 -0.2042  0.1071  0.4959
 4630TIP3    H235382   0.181   2.002   4.287  0.1590  0.8033  1.5221
 4631TIP3   OH235383   2.665   0.853  15.532  0.4370  0.3565  0.2671
 4631TIP3    H135384   2.612   0.773  15.538 -0.7365  1.0449 -0.6489
 4631TIP3    H235385   2.735   0.829  15.470 -0.1722  0.1599 -0.3655
 4632TIP3   OH235386   2.126   0.602  13.977  0.3531 -0.3524  0.0455
 4632TIP3    H135387   2.120   0.599  14.073  0.6868 -0.9306  0.0503
 4632TIP3    H235388   2.164   0.688  13.958  0.4726 -0.3157  0.4411
 4633TIP3   OH235389   1.139   5.223   0.440  0.6536  0.4220 -0.7061
 4633TIP3    H135390   1.208   5.236   0.375  1.1662 -0.1060 -0.2787
 4633TIP3    H235391   1.139   5.303   0.492  3.0633 -0.7200  1.2424
 4634TIP3   OH235392   4.636   1.212   1.786  0.6009 -0.2373  0.2015
 4634TIP3    H135393   4.730   1.212   1.772  0.6791  1.7152  0.4249
 4634TIP3    H235394   4.608   1.301   1.763 -1.0010 -0.4030  1.2963
 4635TIP3   OH235395   2.745   3.758  12.557 -0.2690  0.0970 -0.3399
 4635TIP3    H135396   2.823   3.812  12.563 -1.2841  1.5710  0.2972
 4635TIP3    H235397   2.672   3.821  12.556 -1.5051 -1.2471  0.4376
 4636TIP3   OH235398   0.304   4.311  13.302  0.1700  0.0837 -0.2090
 4636TIP3    H135399   0.348   4.234  13.337 -1.6887 -0.6345  0.6549
 4636TIP3    H235400   0.341   4.384  13.351  0.8052 -0.4225  0.0856
 4637TIP3   OH235401   2.105   2.890  12.573  0.2562  0.5270  0.1147
 4637TIP3    H135402   2.182   2.892  12.517  0.4117 -1.7159  0.1539
 4637TIP3    H235403   2.032   2.912  12.515  0.7312  1.1009 -0.2774
 4638TIP3   OH235404   4.636   4.959  13.621 -0.2524 -0.5694  0.9091
 4638TIP3    H135405   4.599   4.882  13.662 -0.3646 -1.6102 -1.0224
 4638TIP3    H235406   4.681   4.926  13.543  2.3188  0.9654  1.6208
 4639TIP3   OH235407   2.344   0.559   0.427  0.6809  0.0751 -0.2791
 4639TIP3    H135408   2.386   0.527   0.507  0.3947 -0.1780 -0.2311
 4639TIP3    H235409   2.376   0.649   0.418  1.2122 -0.1055 -0.2270
 4640TIP3   OH235410   2.421   2.994   1.737  0.1400 -0.7990  0.1935
 4640TIP3    H135411   2.424   2.941   1.816  0.3535 -0.8673  0.1404
 4640TIP3    H235412   2.420   3.085   1.769 -2.1644 -0.8299  0.3452
 4641TIP3   OH235413   3.478   3.849  11.672  0.0916 -0.1480 -0.0907
 4641TIP3    H135414   3.432   3.880  11.594 -0.4088  0.0418  0.2777
 4641TIP3    H235415   3.457   3.913  11.740  0.4539 -0.3592  0.2286
 4642TIP3   OH235416   1.902   2.568  14.954  0.0571 -0.1971 -0.0409
 4642TIP3    H135417   1.938   2.655  14.939 -0.4413 -0.0964 -0.7505
 4642TIP3    H235418   1.820   2.584  15.002  0.4357 -0.3472  0.6615
 4643TIP3   OH235419   6.222   5.844   5.086  0.1747 -0.0392 -0.4167
 4643TIP3    H135420   6.261   5.773   5.036  1.5609  0.0267  0.5005
 4643TIP3    H235421   6.293   5.875   5.142 -0.8414  1.0277  0.3287
 4644TIP3   OH235422   3.806   5.875   4.262  0.4734  0.0278  0.2480
 4644TIP3    H135423   3.740   5.848   4.198 -2.6156  2.4393  2.1903
 4644TIP3    H235424   3.788   5.822   4.340 -1.2660  2.7198  1.8000
 4645TIP3   OH235425   6.301   6.254   2.372  0.1622  0.0677  0.4395
 4645TIP3    H135426   6.223   6.210   2.339  0.3778 -0.4710  0.6452
 4645TIP3    H235427   6.282   6.271   2.464 -0.1476  0.9273  0.2332
 4646TIP3   OH235428   5.402   2.786   5.170 -0.4270 -0.0699 -0.0751
 4646TIP3    H135429   5.331   2.839   5.134  0.3240  2.4919  1.9603
 4646TIP3    H235430   5.482   2.824   5.133  0.0448 -1.8084 -0.9680
 4647TIP3   OH235431   5.001   3.719   2.085  0.1360 -0.3161  0.4170
 4647TIP3    H135432   5.046   3.761   2.012  0.0153  0.3359  0.7125
 4647TIP3    H235433   5.071   3.695   2.146  0.2070 -0.5873  0.2345
 4648TIP3   OH235434   3.652   2.093  13.478 -0.4607  0.5481 -0.0470
 4648TIP3    H135435   3.578   2.075  13.420 -0.3786 -0.4962  0.1451
 4648TIP3    H235436   3.678   2.183  13.458  0.2467 -0.1216 -2.4147
 4649TIP3   OH235437   4.760   0.101  16.891  0.2495 -0.5662  0.4819
 4649TIP3    H135438   4.782   0.152  16.813 -0.5310  2.3679  2.0488
 4649TIP3    H235439   4.671   0.070  16.876 -1.5571  3.4825  1.7081
 4650TIP3   OH235440   6.575   4.134  15.209 -0.6051 -1.1598  0.7129
 4650TIP3    H135441   6.649   4.195  15.206 -1.0939 -0.5391  0.9293
 4650TIP3    H235442   6.582   4.092  15.295 -0.5522 -1.0386  0.7681
 4651TIP3   OH235443   3.809   0.781  15.740 -0.0380 -0.5680  0.3089
 4651TIP3    H135444   3.765   0.756  15.659 -0.4332  1.1802 -0.0766
 4651TIP3    H235445   3.739   0.818  15.794  0.5484  0.0406  0.6636
 4652TIP3   OH235446   1.905   3.704  15.404 -0.0491  0.3433  0.0539
 4652TIP3    H135447   1.955   3.733  15.328  0.6856  0.3184  0.5200
 4652TIP3    H235448   1.898   3.609  15.393 -0.4345  0.3994 -0.2585
 4653TIP3   OH235449   5.992   3.405  11.100 -0.3154 -0.1453 -0.9304
 4653TIP3    H135450   6.067   3.397  11.042  0.3309 -0.3768 -0.0892
 4653TIP3    H235451   5.916   3.396  11.043  0.2981 -1.0747 -1.6263
 4654TIP3   OH235452   3.947   1.736  14.811  0.0802 -0.2811 -0.0482
 4654TIP3    H135453   3.902   1.765  14.732  2.2864 -0.2668 -1.3849
 4654TIP3    H235454   4.015   1.676  14.779  0.6660 -0.7321  1.8991
 4655TIP3   OH235455   1.746   5.517   2.316  0.5811 -0.4866  0.1068
 4655TIP3    H135456   1.739   5.536   2.409  0.0669 -0.0419 -0.0139
 4655TIP3    H235457   1.720   5.425   2.308  1.2870 -0.7177  0.4814
 4656TIP3   OH235458   5.023   1.674  13.241  0.1356  0.2363  1.1772
 4656TIP3    H135459   5.052   1.583  13.235 -0.2821  0.1064  1.1368
 4656TIP3    H235460   4.938   1.676  13.198 -0.3787  0.4171  2.1842
 4657TIP3   OH235461   5.114   5.289  12.052 -0.1046 -0.4354 -0.1746
 4657TIP3    H135462   5.161   5.368  12.078 -0.3947 -0.4475  0.4245
 4657TIP3    H235463   5.104   5.239  12.133 -2.5244  0.3073  0.0777
 4658TIP3   OH235464   6.601   6.262  13.639  0.3593 -0.8546 -0.1041
 4658TIP3    H135465   6.527   6.268  13.700 -0.2454 -0.9731 -0.8120
 4658TIP3    H235466   6.631   6.352  13.629  0.5364 -0.8481  0.4517
 4659TIP3   OH235467   2.366   6.641  16.331  0.4614  0.8596  0.3318
 4659TIP3    H135468   2.319   6.700  16.272  0.8375  1.1046  0.2717
 4659TIP3    H235469   2.309   6.633  16.408  0.5157  1.4959  0.4425
 4660TIP3   OH235470   4.947   3.789  12.300 -0.3108  0.1435 -0.4862
 4660TIP3    H135471   4.934   3.743  12.217 -0.8735  0.6025 -0.6557
 4660TIP3    H235472   5.035   3.825  12.293 -0.4173  0.3138 -0.9483
 4661TIP3   OH235473   4.826   2.984   4.448 -0.2165  0.0881  0.0198
 4661TIP3    H135474   4.766   2.937   4.390 -0.1898 -1.4916  1.2143
 4661TIP3    H235475   4.785   3.069   4.461 -1.1354 -0.1979 -0.8461
 4662TIP3   OH235476   5.777   2.994   5.754 -0.3317 -0.0769 -0.0095
 4662TIP3    H135477   5.757   3.080   5.792 -0.6697 -0.3367  0.4169
 4662TIP3    H235478   5.732   2.994   5.670 -1.1265 -0.1869  0.4026
 4663TIP3   OH235479   2.942   1.436   5.347  0.4701 -0.1136  0.2325
 4663TIP3    H135480   2.969   1.424   5.255 -0.5875  0.4343 -0.1718
 4663TIP3    H235481   2.849   1.416   5.347  0.7587 -1.6289  1.5242
 4664TIP3   OH235482   0.139   3.404   2.050 -0.0482 -0.2028 -0.8426
 4664TIP3    H135483   0.079   3.448   2.110  0.9382  0.6042 -0.4182
 4664TIP3    H235484   0.151   3.466   1.978 -1.3023 -1.2009 -1.9849
 4665TIP3   OH235485   0.146   1.685   3.476 -0.4584 -0.9490  1.0950
 4665TIP3    H135486   0.211   1.694   3.546 -0.4690  1.5335  0.8814
 4665TIP3    H235487   0.073   1.740   3.504  0.2564  1.6004 -1.5391
 4666TIP3   OH235488   6.235   0.990   4.738 -0.2964 -0.7676  0.5649
 4666TIP3    H135489   6.251   1.063   4.798 -0.0357 -0.8103  0.5487
 4666TIP3    H235490   6.267   1.022   4.653 -2.5963  0.1211 -0.0634
 4667TIP3   OH235491   1.927   1.969   1.999 -0.6407 -0.1024  0.3539
 4667TIP3    H135492   1.944   2.026   2.074 -0.5480 -1.9042  1.7609
 4667TIP3    H235493   2.009   1.920   1.987 -0.9032 -0.3548 -0.4847
 4668TIP3   OH235494   0.199   1.548  14.593  0.2194 -0.4547  0.1595
 4668TIP3    H135495   0.264   1.568  14.661  0.3672 -0.1257 -0.0792
 4668TIP3    H235496   0.221   1.607  14.521 -0.5807 -0.0731  0.2199
 4669TIP3   OH235497   6.486   5.143  15.048 -0.1258  0.2466  0.1004
 4669TIP3    H135498   6.474   5.184  14.962 -0.4046  0.4485  0.2365
 4669TIP3    H235499   6.398   5.121  15.077 -0.2137  1.8453  1.1596
 4670TIP3   OH235500   0.740   6.057  14.415  0.5330 -0.2544  0.1166
 4670TIP3    H135501   0.675   6.120  14.448  1.4649  0.5252  0.5179
 4670TIP3    H235502   0.755   6.083  14.324 -0.5726 -1.1753 -0.3525
 4671TIP3   OH235503   5.376   1.293  14.523 -0.3801 -0.5605 -0.2781
 4671TIP3    H135504   5.464   1.303  14.558 -0.2543 -2.0033 -0.1201
 4671TIP3    H235505   5.387   1.305  14.428 -0.3021  0.8444 -0.1118
 4672TIP3   OH235506   2.719   5.496   2.504 -0.6686 -0.5241 -0.1720
 4672TIP3    H135507   2.718   5.562   2.574 -1.1780 -0.2677 -0.4096
 4672TIP3    H235508   2.797   5.444   2.521  1.1362  1.6377 -1.3633
 4673TIP3   OH235509   2.111   1.700  12.128  0.1550  0.4135  0.5342
 4673TIP3    H135510   2.161   1.727  12.051 -1.5828  0.7179 -0.5570
 4673TIP3    H235511   2.067   1.619  12.101  0.5873 -0.2436  1.7104
 4674TIP3   OH235512   6.753   1.516  14.773  0.1827 -0.6977 -0.4580
 4674TIP3    H135513   6.822   1.451  14.760  0.9668  0.1109 -0.4330
 4674TIP3    H235514   6.742   1.557  14.688 -0.2675 -0.8175 -0.4581
 4675TIP3   OH235515   6.008   3.041  16.896  0.2862  0.1959 -0.5184
 4675TIP3    H135516   5.993   2.995  16.978 -2.6681  0.3759 -0.8533
 4675TIP3    H235517   6.047   2.974  16.838  0.8446 -0.3865  0.5088
 4676TIP3   OH235518   2.131   5.983  11.548  0.2965  0.5518 -0.0206
 4676TIP3    H135519   2.211   5.954  11.592  0.4391 -0.8706 -1.1218
 4676TIP3    H235520   2.077   6.019  11.618  1.8983  1.6090  0.7470
 4677TIP3   OH235521   5.377   4.506   5.428 -0.7549  0.4157  0.0690
 4677TIP3    H135522   5.436   4.486   5.355  1.6730  0.8247  1.7981
 4677TIP3    H235523   5.323   4.428   5.437 -1.6083  0.6192 -2.5446
 4678TIP3   OH235524   6.686   3.364   3.523 -0.4089  0.5995  0.5891
 4678TIP3    H135525   6.693   3.357   3.619  2.3641 -0.7417  0.3803
 4678TIP3    H235526   6.708   3.277   3.491 -1.7332  0.9158 -1.2997
 4679TIP3   OH235527   3.401   3.643   0.578 -0.8336 -0.1839  0.2507
 4679TIP3    H135528   3.348   3.674   0.506 -0.2263 -0.0378 -0.1437
 4679TIP3    H235529   3.361   3.682   0.656 -0.9101  0.4567 -0.1040
 4680TIP3   OH235530   5.834   0.114   2.323  0.2391 -0.4580 -0.2140
 4680TIP3    H135531   5.899   0.053   2.359  0.5030 -0.3709 -0.5409
 4680TIP3    H235532   5.830   0.184   2.388 -1.7453 -1.8878  1.3319
 4681TIP3   OH235533   0.199   5.769   1.356  0.3683 -0.3828 -0.5271
 4681TIP3    H135534   0.168   5.846   1.308  0.9716  0.9440  1.1341
 4681TIP3    H235535   0.123   5.711   1.358 -0.5701  0.7987 -0.5500
 4682TIP3   OH235536   6.670   4.947  14.650  0.2399 -0.3770  0.1884
 4682TIP3    H135537   6.575   4.953  14.649  0.3309  2.3325  0.2866
 4682TIP3    H235538   6.694   4.951  14.743  0.4965  0.2511  0.0964
 4683TIP3   OH235539   1.823   5.597  14.042 -0.7602 -0.7542 -0.1735
 4683TIP3    H135540   1.906   5.644  14.035 -1.4803  0.5921  0.1040
 4683TIP3    H235541   1.847   5.505  14.030  0.5512 -0.2650 -1.7136
 4684TIP3   OH235542   1.457   3.488  16.728 -0.2817 -0.8453  0.0684
 4684TIP3    H135543   1.446   3.399  16.693 -0.0568 -0.2907 -1.5315
 4684TIP3    H235544   1.511   3.532  16.662  0.4045  0.2245  1.2970
 4685TIP3   OH235545   1.585   4.468   2.238  0.5691 -0.0206  0.0060
 4685TIP3    H135546   1.496   4.496   2.257  1.1075  2.2793 -0.6010
 4685TIP3    H235547   1.581   4.436   2.147  0.6332  1.4861 -0.5450
 4686TIP3   OH235548   4.034   0.050   2.688  0.0482 -0.0425  0.0381
 4686TIP3    H135549   4.052   0.049   2.594 -1.7628 -0.2318 -0.3399
 4686TIP3    H235550   4.107   0.002   2.727  1.3702  0.9029 -1.1405
 4687TIP3   OH235551   1.694   2.714  14.465  0.0048 -0.9911  0.1723
 4687TIP3    H135552   1.642   2.712  14.385 -0.1294 -0.8862  0.2580
 4687TIP3    H235553   1.672   2.797  14.507  1.3503 -0.2356 -0.5256
 4688TIP3   OH235554   4.594   2.334  11.387  0.4349 -0.0261 -0.1214
 4688TIP3    H135555   4.577   2.240  11.394 -0.2626  0.2272  3.2610
 4688TIP3    H235556   4.685   2.343  11.417  1.0970  0.2640 -2.1068
 4689TIP3   OH235557   5.535   2.907   3.741  0.0064  0.2535  0.0645
 4689TIP3    H135558   5.530   2.928   3.648 -1.8137 -0.1357  0.0284
 4689TIP3    H235559   5.492   2.981   3.784  0.4749  0.2375  0.5605
 4690TIP3   OH235560   1.336   1.247  12.592  0.0710  0.5376 -0.0791
 4690TIP3    H135561   1.351   1.339  12.613  2.2504  0.6061 -1.6724
 4690TIP3    H235562   1.286   1.214  12.667 -0.1338  2.8112  0.8778
 4691TIP3   OH235563   2.744   4.541   1.437  0.6754  0.0065  0.1921
 4691TIP3    H135564   2.754   4.487   1.359  1.8807  0.7141 -0.1831
 4691TIP3    H235565   2.793   4.621   1.417  0.6322  0.3904  1.5013
 4692TIP3   OH235566   0.343   4.513   3.609 -0.4777 -0.2089 -0.0801
 4692TIP3    H135567   0.360   4.421   3.630  0.6261  0.1321  0.5689
 4692TIP3    H235568   0.387   4.528   3.526  1.4022  0.3263  0.9594
 4693TIP3   OH235569   1.646   5.152  15.235 -0.3550  0.1154  0.4750
 4693TIP3    H135570   1.726   5.129  15.282 -0.4610  0.2617  0.7335
 4693TIP3    H235571   1.578   5.152  15.303 -0.6977 -0.6509  0.1477
 4694TIP3   OH235572   0.916   4.263   3.321 -0.3350  0.6701 -0.1676
 4694TIP3    H135573   0.984   4.330   3.321 -0.3907  0.7328  0.4910
 4694TIP3    H235574   0.934   4.210   3.243 -0.9978  2.1551 -1.3920
 4695TIP3   OH235575   6.672   4.773  12.259 -0.4271  0.4460 -0.3522
 4695TIP3    H135576   6.577   4.759  12.268 -0.4893  1.2063  0.2224
 4695TIP3    H235577   6.694   4.833  12.330  0.7746 -0.9927  0.5406
 4696TIP3   OH235578   1.649   4.863  13.898  0.2876 -0.7848 -0.1466
 4696TIP3    H135579   1.670   4.840  13.808  1.2674 -1.2542  0.1912
 4696TIP3    H235580   1.629   4.780  13.940 -0.1623 -0.5663  0.0775
 4697TIP3   OH235581   4.693   3.074   3.813 -0.3178  0.2186 -0.0706
 4697TIP3    H135582   4.779   3.102   3.781  0.3988 -1.2761  0.4521
 4697TIP3    H235583   4.707   2.984   3.843 -1.3160  0.9122  2.8019
 4698TIP3   OH235584   1.185   4.418   2.900 -0.3437  0.4113 -0.0917
 4698TIP3    H135585   1.107   4.466   2.929 -1.3363 -0.4788 -1.1846
 4698TIP3    H235586   1.221   4.382   2.981 -1.0264  0.8869  0.4495
 4699TIP3   OH235587   0.081   5.060   4.726 -0.0798  0.2538  0.3720
 4699TIP3    H135588   0.019   5.129   4.747 -0.1168  0.0838  0.8304
 4699TIP3    H235589   0.032   4.979   4.740  0.1464  0.1249  0.4189
 4700TIP3   OH235590   2.068   5.871  12.647 -0.5393  0.6489 -0.0873
 4700TIP3    H135591   2.138   5.829  12.597 -0.5261  1.1383 -0.4869
 4700TIP3    H235592   2.090   5.853  12.738  0.9253  2.0415 -0.1225
 4701TIP3   OH235593   2.831   2.928   0.102  0.1723 -0.6456  0.2523
 4701TIP3    H135594   2.779   2.848   0.114  0.4725 -0.8528  0.1798
 4701TIP3    H235595   2.813   2.955   0.013 -0.4798 -0.2351  0.4995
 4702TIP3   OH235596   2.422   0.750   1.559  0.0001  0.1064  0.1348
 4702TIP3    H135597   2.395   0.730   1.469  0.5229  1.8257 -0.4307
 4702TIP3    H235598   2.491   0.815   1.550 -0.0992  0.4858  1.7975
 4703TIP3   OH235599   6.115   1.164   3.348 -0.7000  0.3102  0.2829
 4703TIP3    H135600   6.200   1.201   3.372 -1.4711  0.9693  2.1542
 4703TIP3    H235601   6.126   1.069   3.359  0.2993  0.2094 -1.2913
 4704TIP3   OH235602   3.337   2.290   2.802  0.3730  0.1915  0.1394
 4704TIP3    H135603   3.382   2.265   2.883  0.1022 -2.9900 -0.5773
 4704TIP3    H235604   3.360   2.221   2.740 -0.2009  2.0353 -2.2612
 4705TIP3   OH235605   0.497   1.138  12.608 -0.0969  0.2167 -0.1474
 4705TIP3    H135606   0.555   1.063  12.617 -1.0770 -0.5497 -0.0950
 4705TIP3    H235607   0.543   1.209  12.653  0.9072 -0.2942 -0.3210
 4706TIP3   OH235608   4.303   4.474   3.906 -0.0749  0.3344  0.6375
 4706TIP3    H135609   4.239   4.408   3.935  1.4830 -1.7214 -0.3177
 4706TIP3    H235610   4.375   4.466   3.969  0.2305  0.9944  0.3805
 4707TIP3   OH235611   4.135   2.261  13.181 -1.1754 -0.1184  0.0689
 4707TIP3    H135612   4.118   2.178  13.224  1.1574 -0.5514  0.2801
 4707TIP3    H235613   4.158   2.238  13.091 -0.3309  0.2504  0.1751
 4708TIP3   OH235614   4.204   0.627   1.987  0.1749  0.5088  0.1512
 4708TIP3    H135615   4.287   0.663   1.955 -0.7836  0.8977 -2.0098
 4708TIP3    H235616   4.158   0.701   2.025 -0.6510  1.0752 -1.8608
 4709TIP3   OH235617   5.381   0.861   4.871 -0.1591  0.0213  0.0444
 4709TIP3    H135618   5.324   0.845   4.947 -1.0874  2.1554 -0.1530
 4709TIP3    H235619   5.435   0.935   4.897  1.1036 -0.6385 -0.5885
 4710TIP3   OH235620   1.892   5.451  14.603 -0.2416 -0.8076 -0.0330
 4710TIP3    H135621   1.942   5.510  14.660 -0.3436 -0.6643 -0.0912
 4710TIP3    H235622   1.921   5.472  14.515 -0.0701 -1.0444 -0.0346
 4711TIP3   OH235623   3.363   0.749   3.876  0.3823 -0.1715  0.8745
 4711TIP3    H135624   3.437   0.690   3.862 -0.8512 -1.4078 -0.8521
 4711TIP3    H235625   3.286   0.696   3.854 -0.9896  1.2805  1.9500
 4712TIP3   OH235626   0.570   2.128   1.821 -0.2379  0.3961  0.0514
 4712TIP3    H135627   0.533   2.204   1.866  1.8768  1.3475  0.2760
 4712TIP3    H235628   0.496   2.090   1.773 -0.8279  4.4764 -2.7488
 4713TIP3   OH235629   2.866   5.385  12.341 -0.0346  0.1997  0.1312
 4713TIP3    H135630   2.899   5.307  12.296  0.0674 -0.1381  0.7740
 4713TIP3    H235631   2.773   5.367  12.354 -0.5252  1.1496 -1.6742
 4714TIP3   OH235632   4.382   2.048  11.916  0.0470 -0.2039 -0.1693
 4714TIP3    H135633   4.460   2.041  11.971 -0.7706  1.6190  1.3379
 4714TIP3    H235634   4.318   1.989  11.956  0.3318 -1.0204 -0.8809
 4715TIP3   OH235635   0.910   0.318  11.587 -0.0176  0.0316 -0.5028
 4715TIP3    H135636   0.863   0.400  11.598 -0.0358  0.0729 -0.8716
 4715TIP3    H235637   0.929   0.313  11.493  1.3521  0.3702 -0.2609
 4716TIP3   OH235638   1.449   0.577  12.853 -0.3368  0.4444  0.4651
 4716TIP3    H135639   1.392   0.634  12.905 -1.8221  0.0114 -0.6195
 4716TIP3    H235640   1.417   0.489  12.870 -0.2800  0.2250 -0.4726
 4717TIP3   OH235641   4.134   2.845   4.669  0.0516  0.3289  0.4582
 4717TIP3    H135642   4.179   2.834   4.585  0.8872 -0.1065  0.9603
 4717TIP3    H235643   4.201   2.879   4.728 -0.5676  0.7583  0.9260
 4718TIP3   OH235644   0.090   3.122  13.349  0.0795 -0.5911  0.1629
 4718TIP3    H135645   0.167   3.074  13.381  0.0084 -0.1698  1.0008
 4718TIP3    H235646   0.092   3.111  13.254  0.7220 -1.2616  0.2472
 4719TIP3   OH235647   0.996   5.599   5.377  0.3956  0.5569 -0.3652
 4719TIP3    H135648   0.968   5.628   5.290  1.0151  2.7843  0.1087
 4719TIP3    H235649   0.977   5.674   5.434 -0.9354 -1.2006  1.6558
 4720TIP3   OH235650   5.068   2.743  13.744  0.6683 -0.0326 -0.1051
 4720TIP3    H135651   5.154   2.753  13.785  0.2964  1.5563  0.3586
 4720TIP3    H235652   5.067   2.808  13.673  0.7454 -1.7313 -1.7441
 4721TIP3   OH235653   1.796   6.229  15.445  0.4584 -0.3618 -0.0256
 4721TIP3    H135654   1.746   6.185  15.377  1.2076 -1.1900 -0.0544
 4721TIP3    H235655   1.778   6.322  15.432 -0.1453 -0.5798 -0.7573
 4722TIP3   OH235656   3.744   3.724  12.483  0.0376  0.0399 -0.0755
 4722TIP3    H135657   3.651   3.743  12.474 -0.1619 -1.5916 -2.2102
 4722TIP3    H235658   3.785   3.767  12.408  1.0185  0.6012  0.7529
 4723TIP3   OH235659   1.257   2.857  16.259 -0.2933  1.0322 -0.1500
 4723TIP3    H135660   1.316   2.831  16.188 -0.0371  1.0025  0.0701
 4723TIP3    H235661   1.206   2.929  16.223  0.2287  1.3952 -0.1848
 4724TIP3   OH235662   1.740   1.405   0.964  0.3260 -0.0153  0.2266
 4724TIP3    H135663   1.818   1.351   0.976  0.3057 -0.1951 -0.4525
 4724TIP3    H235664   1.674   1.345   0.928  0.1557  0.3542 -0.0778
 4725TIP3   OH235665   1.975   3.470   1.785 -0.1703  0.0788  0.4593
 4725TIP3    H135666   1.907   3.523   1.743  0.6962  2.4531  1.8602
 4725TIP3    H235667   1.958   3.479   1.879 -0.6659 -3.1891  0.8058
 4726TIP3   OH235668   4.367   0.591   0.525  0.0742 -0.7377  0.3962
 4726TIP3    H135669   4.305   0.520   0.512 -0.6161  0.1766 -1.7640
 4726TIP3    H235670   4.315   0.662   0.563 -0.1054 -0.1871 -0.8249
 4727TIP3   OH235671   6.079   6.289   1.100 -0.2966  0.4380 -0.0705
 4727TIP3    H135672   5.996   6.336   1.113 -0.8918  0.1738 -2.4552
 4727TIP3    H235673   6.054   6.197   1.095  0.5308  0.0634  1.8646
 4728TIP3   OH235674   3.250   4.107  15.892  0.1917  0.0748 -0.1157
 4728TIP3    H135675   3.243   4.012  15.894  1.2929 -0.0183  0.5093
 4728TIP3    H235676   3.321   4.124  15.830  1.5391  0.3361  1.4152
 4729TIP3   OH235677   1.978   6.161   5.952 -0.2633  0.7077 -0.1106
 4729TIP3    H135678   1.921   6.084   5.949 -0.8437  1.0388  1.5534
 4729TIP3    H235679   1.930   6.225   6.004  0.7854  1.7303 -0.3455
 4730TIP3   OH235680   2.371   5.825  11.598 -0.2913  0.5274 -0.0721
 4730TIP3    H135681   2.367   5.757  11.665  0.2084 -0.3300 -0.8706
 4730TIP3    H235682   2.361   5.777  11.515  0.1394  1.4192 -0.6580
 4731TIP3   OH235683   2.324   4.342  11.223 -0.0866 -0.5316  0.3717
 4731TIP3    H135684   2.371   4.351  11.139 -0.7796  0.4285  0.0665
 4731TIP3    H235685   2.233   4.362  11.202 -0.1771  0.3041  1.4567
 4732TIP3   OH235686   0.973   0.391  12.526 -0.1037 -0.2252 -0.6357
 4732TIP3    H135687   0.991   0.297  12.533  1.0128 -0.0073 -0.2461
 4732TIP3    H235688   0.917   0.399  12.449  0.7960 -1.0907 -1.4114
 4733TIP3   OH235689   4.474   0.529  13.601  0.3706  0.7127  0.1636
 4733TIP3    H135690   4.411   0.556  13.667 -0.0825  0.6178 -0.2263
 4733TIP3    H235691   4.532   0.604  13.591  0.5760  0.6495  0.8218
 4734TIP3   OH235692   3.488   2.982  16.770 -0.1715  0.3677  0.4605
 4734TIP3    H135693   3.414   3.041  16.784  0.2633  1.6302 -2.0295
 4734TIP3    H235694   3.454   2.913  16.713  0.2175  0.1742  0.4562
 4735TIP3   OH235695   1.457   4.668   4.816  0.3571 -0.2131  0.0760
 4735TIP3    H135696   1.461   4.643   4.724 -2.0821  0.5827 -0.3017
 4735TIP3    H235697   1.450   4.584   4.863  2.1466 -0.6513 -0.3616
 4736TIP3   OH235698   4.470   3.994   5.754 -0.2415  0.4258 -0.1882
 4736TIP3    H135699   4.524   4.072   5.770  0.6880 -0.2364  0.0319
 4736TIP3    H235700   4.534   3.922   5.748 -1.1296 -0.4384  0.4140
 4737TIP3   OH235701   4.388   2.366   1.110 -0.3972 -0.2315 -0.3799
 4737TIP3    H135702   4.342   2.293   1.151 -0.4781 -0.4978 -0.9275
 4737TIP3    H235703   4.320   2.429   1.090 -0.4034 -0.2392 -0.3839
 4738TIP3   OH235704   0.765   2.326   6.354 -0.3179  0.4835  0.1747
 4738TIP3    H135705   0.789   2.234   6.368 -0.7710 -0.0760 -2.2526
 4738TIP3    H235706   0.671   2.329   6.374  0.2705  1.2110  3.3303
 4739TIP3   OH235707   0.955   1.754   1.867 -0.1908  0.3281 -0.2320
 4739TIP3    H135708   1.012   1.680   1.845 -2.0343 -1.3675  0.3979
 4739TIP3    H235709   1.007   1.807   1.927  0.9352 -0.8303 -0.1355
 4740TIP3   OH235710   2.640   3.323   2.573  0.2440  0.4849  0.1649
 4740TIP3    H135711   2.691   3.252   2.613  0.5334  0.7140  0.2019
 4740TIP3    H235712   2.681   3.336   2.487  0.9128  1.3832  0.6153
 4741TIP3   OH235713   5.962   4.583   0.559  0.5522  0.2504 -0.1376
 4741TIP3    H135714   6.049   4.617   0.576  1.7026 -1.9245 -1.2437
 4741TIP3    H235715   5.915   4.656   0.519  2.1688  1.1953 -0.3791
 4742TIP3   OH235716   5.421   1.371   3.478 -0.2178  0.4718 -0.4309
 4742TIP3    H135717   5.363   1.296   3.479  0.2641  0.0897 -0.7810
 4742TIP3    H235718   5.365   1.445   3.501 -0.9281  0.1705 -1.1541
 4743TIP3   OH235719   3.939   6.404   5.728  0.5364 -0.3119 -0.3644
 4743TIP3    H135720   3.985   6.386   5.646  1.3851 -2.1935  0.4489
 4743TIP3    H235721   4.002   6.381   5.796  0.3492  2.5044  0.8876
 4744TIP3   OH235722   0.465   6.217  12.979  0.1904  0.3863  0.3115
 4744TIP3    H135723   0.490   6.249  12.893  0.2082  1.8683  0.8396
 4744TIP3    H235724   0.424   6.132  12.962 -0.1101  0.7992 -1.1788
 4745TIP3   OH235725   6.442   3.607   3.720 -0.4789  0.5178 -0.4658
 4745TIP3    H135726   6.404   3.524   3.690 -0.3895  0.8005 -1.4188
 4745TIP3    H235727   6.401   3.673   3.663 -1.0444  1.2126  0.7111
 4746TIP3   OH235728   2.901   2.129   3.817  0.0406 -0.4312 -0.5025
 4746TIP3    H135729   2.987   2.158   3.845 -0.3376  0.8962 -0.6607
 4746TIP3    H235730   2.853   2.115   3.899 -0.6270  2.1092 -0.3700
 4747TIP3   OH235731   4.043   5.213   3.229  0.1277 -0.4051  0.2105
 4747TIP3    H135732   4.103   5.278   3.192 -1.2762  0.7398 -0.1584
 4747TIP3    H235733   4.047   5.139   3.168  0.5286  0.0122 -0.2785
 4748TIP3   OH235734   1.218   4.365  11.759 -0.8433  0.3345 -0.1487
 4748TIP3    H135735   1.213   4.460  11.770 -0.0189  0.1921  1.8303
 4748TIP3    H235736   1.198   4.329  11.845  0.2103 -1.2521 -0.5097
 4749TIP3   OH235737   2.803   2.445   3.534  0.1404 -0.7826 -0.1634
 4749TIP3    H135738   2.866   2.437   3.463 -1.6163 -0.3173 -1.8573
 4749TIP3    H235739   2.738   2.377   3.518  0.9954 -2.4063  2.5228
 4750TIP3   OH235740   0.888   3.527  13.026  0.0611  0.3297 -0.4709
 4750TIP3    H135741   0.829   3.452  13.028 -0.5829  0.8337 -0.3413
 4750TIP3    H235742   0.928   3.528  13.113  0.4039 -0.1098 -0.6142
 4751TIP3   OH235743   0.824   1.768   0.744  0.5893  0.8016 -0.5610
 4751TIP3    H135744   0.749   1.734   0.695  1.9625 -0.7542 -1.7012
 4751TIP3    H235745   0.809   1.741   0.834  0.5700 -0.9910 -1.0685
 4752TIP3   OH235746   0.357   1.848  11.189 -0.3699  0.0082  0.1918
 4752TIP3    H135747   0.331   1.756  11.190 -0.2849 -0.0307  2.1005
 4752TIP3    H235748   0.453   1.845  11.182 -0.1962 -0.1463  2.1681
 4753TIP3   OH235749   0.952   4.088  12.282 -0.2814 -0.3621  0.0465
 4753TIP3    H135750   0.943   4.069  12.189  0.8300  0.0375 -0.1581
 4753TIP3    H235751   1.044   4.112  12.293 -0.0425 -1.7623  1.4933
 4754TIP3   OH235752   0.928   2.436  16.255  0.0651 -0.2701  0.4821
 4754TIP3    H135753   1.008   2.471  16.214 -0.4698 -0.4349 -0.7634
 4754TIP3    H235754   0.933   2.464  16.346  1.8619 -0.7937  0.6016
 4755TIP3   OH235755   1.864   4.047  12.439  0.2028 -0.3279 -0.1601
 4755TIP3    H135756   1.949   4.035  12.482 -0.4009 -0.9351  0.9167
 4755TIP3    H235757   1.851   4.142  12.440  1.6711 -0.0544 -2.0127
 4756TIP3   OH235758   5.902   3.797  11.927 -0.2157 -0.3909 -0.4305
 4756TIP3    H135759   5.961   3.801  12.002  0.3045  0.1664 -0.8591
 4756TIP3    H235760   5.823   3.755  11.961  0.0999 -0.3581  0.3680
 4757TIP3   OH235761   6.713   2.762  16.508 -0.1187  0.1631 -0.6402
 4757TIP3    H135762   6.783   2.821  16.481 -1.0753  1.4454 -0.4121
 4757TIP3    H235763   6.753   2.675  16.508  1.1476  0.7223 -1.6201
 4758TIP3   OH235764   6.135   2.355  13.237 -0.2109 -0.2695  0.0557
 4758TIP3    H135765   6.137   2.412  13.314 -0.6898 -0.2213  0.0360
 4758TIP3    H235766   6.086   2.278  13.265 -3.3537  1.1275 -1.0880
 4759TIP3   OH235767   2.512   2.526   4.195  0.4085  0.3603 -0.0246
 4759TIP3    H135768   2.524   2.620   4.213  1.9294  0.5224 -1.7022
 4759TIP3    H235769   2.545   2.483   4.274 -2.0366  1.1764  1.6123
 4760TIP3   OH235770   4.924   6.167  11.898 -0.6392  0.3247  0.2602
 4760TIP3    H135771   5.013   6.176  11.864 -1.0397  1.1708 -0.6009
 4760TIP3    H235772   4.933   6.179  11.992  0.0888  0.8841  0.1259
 4761TIP3   OH235773   1.010   5.323   3.245  0.5662 -0.7552 -0.0072
 4761TIP3    H135774   0.916   5.336   3.256  0.8441 -0.4852  2.5609
 4761TIP3    H235775   1.039   5.399   3.196 -0.1331  0.6666  1.7020
 4762TIP3   OH235776   2.109   2.948   0.442  0.1204  0.2997  0.0201
 4762TIP3    H135777   2.178   2.989   0.493  0.2182 -1.7973  1.6544
 4762TIP3    H235778   2.152   2.879   0.392 -0.4814  0.2590 -0.4632
 4763TIP3   OH235779   3.068   5.243  13.863  0.6707 -0.2768  0.0676
 4763TIP3    H135780   3.035   5.190  13.790 -1.4347 -0.0348  0.7946
 4763TIP3    H235781   3.158   5.264  13.838  0.8446 -2.2950 -1.2819
 4764TIP3   OH235782   2.619   0.867  13.256 -0.0516 -0.2873  0.4040
 4764TIP3    H135783   2.606   0.939  13.194  0.7916 -1.5987 -1.3509
 4764TIP3    H235784   2.710   0.842  13.245 -0.4268 -1.8928  0.6969
 4765TIP3   OH235785   4.518   2.136  13.820  0.4883  0.3524 -0.0829
 4765TIP3    H135786   4.600   2.087  13.810  0.0677 -0.4706  0.4077
 4765TIP3    H235787   4.534   2.219  13.775  1.8130  0.4744  0.5751
 4766TIP3   OH235788   6.630   5.693  13.212 -0.4896  0.0062  0.2399
 4766TIP3    H135789   6.672   5.754  13.153 -1.3880  0.9333  0.5280
 4766TIP3    H235790   6.594   5.747  13.282 -2.3450 -0.6738 -0.1009
 4767TIP3   OH235791   0.806   3.633  16.216  0.1186  0.3151 -0.1744
 4767TIP3    H135792   0.901   3.644  16.218  0.4130 -1.7737 -0.5310
 4767TIP3    H235793   0.791   3.564  16.151 -1.5942  0.1251  0.3662
 4768TIP3   OH235794   3.512   6.298  16.221 -0.2319  0.2462 -0.1248
 4768TIP3    H135795   3.567   6.338  16.288  0.6863 -2.8959  1.1995
 4768TIP3    H235796   3.438   6.260  16.270  0.2212 -1.7285 -0.8513
 4769TIP3   OH235797   5.433   1.294  16.865 -0.3316 -0.4979  0.7181
 4769TIP3    H135798   5.344   1.261  16.875 -0.2973 -0.8380 -0.0200
 4769TIP3    H235799   5.424   1.389  16.869 -0.7430 -0.5277  0.5021
 4770TIP3   OH235800   6.534   1.220  15.602 -0.2664 -0.0962 -0.0962
 4770TIP3    H135801   6.508   1.140  15.557 -0.2827  1.1833 -2.5586
 4770TIP3    H235802   6.630   1.216  15.603 -0.2729 -0.2369 -0.0450
 4771TIP3   OH235803   5.097   2.956   2.910 -0.9019  0.1946 -0.1594
 4771TIP3    H135804   5.131   2.879   2.955 -0.3987 -0.1241 -1.0677
 4771TIP3    H235805   5.063   2.922   2.827 -2.3912  0.6731  0.2162
 4772TIP3   OH235806   4.764   2.945   3.305  0.1135  0.0008  0.0072
 4772TIP3    H135807   4.689   2.988   3.345  0.7161  0.0103  1.1608
 4772TIP3    H235808   4.790   2.879   3.368  0.3695 -0.7892 -0.9059
 4773TIP3   OH235809   5.854   5.188  16.525 -0.2517  0.0240  0.5994
 4773TIP3    H135810   5.856   5.253  16.456  0.4674  1.6093  2.0402
 4773TIP3    H235811   5.773   5.139  16.510 -1.8247  2.4830  0.5495
 4774TIP3   OH235812   3.030   3.592  14.497 -0.4220  0.5982  0.1427
 4774TIP3    H135813   2.986   3.620  14.416 -0.2847  0.9818  0.2004
 4774TIP3    H235814   3.093   3.661  14.515 -1.4477  1.2442  1.3671
 4775TIP3   OH235815   1.624   0.321   4.432 -0.2517 -0.1445 -0.1927
 4775TIP3    H135816   1.612   0.372   4.351 -0.1504  0.1533 -0.0218
 4775TIP3    H235817   1.573   0.242   4.418 -1.4867  0.5909  0.0698
 4776TIP3   OH235818   1.701   4.160  13.604  0.2383  0.0512 -0.5308
 4776TIP3    H135819   1.726   4.068  13.602 -1.1790 -0.3592  0.0350
 4776TIP3    H235820   1.667   4.178  13.516 -1.5915 -0.5956  0.0127
 4777TIP3   OH235821   3.698   2.575   1.435 -0.0881 -0.1553 -0.5183
 4777TIP3    H135822   3.603   2.575   1.447 -0.1254 -0.2192 -0.8100
 4777TIP3    H235823   3.718   2.484   1.411  0.2381 -0.5210  1.0433
 4778TIP3   OH235824   4.062   2.113   3.708 -0.1337  0.6270  0.0459
 4778TIP3    H135825   4.128   2.149   3.648  0.8172 -0.2717  0.5156
 4778TIP3    H235826   4.085   2.148   3.794 -0.2499  0.2955  0.2145
 4779TIP3   OH235827   6.459   5.237   0.343 -0.3239 -0.0141 -0.0068
 4779TIP3    H135828   6.535   5.193   0.305 -1.7135 -0.6761 -2.1948
 4779TIP3    H235829   6.403   5.165   0.373 -1.2854  0.3458 -0.8983
 4780TIP3   OH235830   2.480   5.124  11.074  0.2537 -0.0901  0.3136
 4780TIP3    H135831   2.509   5.212  11.051 -0.1311  0.1059  0.5662
 4780TIP3    H235832   2.399   5.112  11.024 -0.9312  0.5703  1.9824
 4781TIP3   OH235833   2.598   6.087  13.646 -0.2385  0.6523  0.0978
 4781TIP3    H135834   2.687   6.059  13.627  0.0629  0.3080  1.8795
 4781TIP3    H235835   2.549   6.006  13.660  0.0685  0.8250  2.7888
 4782TIP3   OH235836   4.387   3.981  12.694 -0.2013  0.3255 -0.1662
 4782TIP3    H135837   4.323   3.997  12.625 -1.4711 -1.8136  0.4271
 4782TIP3    H235838   4.463   3.946  12.647 -1.0270 -1.0414 -0.5523
 4783TIP3   OH235839   6.055   0.863  13.594  0.1210  0.1420 -0.2122
 4783TIP3    H135840   6.007   0.780  13.602  0.2844 -0.1150 -1.5725
 4783TIP3    H235841   6.068   0.892  13.684 -1.3287 -0.5064  0.2373
 4784TIP3   OH235842   5.316   1.177   1.520  0.4141 -0.1938  0.4462
 4784TIP3    H135843   5.376   1.219   1.457  0.4095 -0.2851  0.3812
 4784TIP3    H235844   5.256   1.127   1.465 -0.8204  1.2772  0.3883
 4785TIP3   OH235845   6.529   3.878   5.239  0.3092 -0.4996 -0.6017
 4785TIP3    H135846   6.488   3.906   5.157 -2.3531 -1.0641  0.4054
 4785TIP3    H235847   6.569   3.794   5.218 -0.1143 -0.5151 -1.4120
 4786TIP3   OH235848   0.443   6.021  12.139 -0.1247  0.2490 -0.4701
 4786TIP3    H135849   0.531   6.056  12.131  0.6453 -0.7275  2.6223
 4786TIP3    H235850   0.452   5.928  12.116 -0.4246  0.2201 -0.4797
 4787TIP3   OH235851   2.526   2.990   1.474  0.4536  0.3566 -0.2526
 4787TIP3    H135852   2.544   2.897   1.460  0.8425  0.3533  0.2529
 4787TIP3    H235853   2.495   2.995   1.564 -0.7096  0.5671 -0.6382
 4788TIP3   OH235854   4.257   6.383   1.335 -0.3646  0.2276  0.2992
 4788TIP3    H135855   4.258   6.452   1.401 -1.3539 -0.1982  0.7838
 4788TIP3    H235856   4.337   6.398   1.284  0.5294  0.4512  1.6989
 4789TIP3   OH235857   3.618   2.579  15.401  0.0570  0.2116  0.5732
 4789TIP3    H135858   3.584   2.625  15.324  1.1176 -1.3743 -0.8887
 4789TIP3    H235859   3.582   2.629  15.475 -1.8855  1.1554 -0.8971
 4790TIP3   OH235860   3.221   1.386  13.530  0.0250  0.1183 -0.2558
 4790TIP3    H135861   3.218   1.448  13.603 -0.9315  0.0259 -0.2033
 4790TIP3    H235862   3.141   1.403  13.481 -1.4218 -2.5529  0.9878
 4791TIP3   OH235863   1.188   5.790   0.167 -0.3875 -0.1233 -0.0773
 4791TIP3    H135864   1.185   5.857   0.236  1.1225  0.4286 -0.4910
 4791TIP3    H235865   1.247   5.723   0.201 -1.0455 -0.7351 -0.1159
 4792TIP3   OH235866   3.162   5.159  12.098 -0.3606  0.3600  0.3988
 4792TIP3    H135867   3.170   5.124  12.010  0.1140 -0.8774  0.9192
 4792TIP3    H235868   3.070   5.187  12.104 -1.2373 -2.2466  0.4500
 4793TIP3   OH235869   2.118   1.922   5.253  0.7406  0.9864  0.5662
 4793TIP3    H135870   2.135   1.987   5.321  2.2632  0.6826  0.4965
 4793TIP3    H235871   2.162   1.843   5.283  2.8007  1.2706 -1.4483
 4794TIP3   OH235872   6.254   5.409  16.733  0.3308  0.4219  0.8913
 4794TIP3    H135873   6.257   5.390  16.827  0.2467 -0.0634  0.7973
 4794TIP3    H235874   6.190   5.347  16.698 -0.2847  1.1695  0.6468
 4795TIP3   OH235875   1.960   1.324   4.163  0.1026  0.0621 -0.1379
 4795TIP3    H135876   2.027   1.356   4.103  1.1639  1.7393  1.8040
 4795TIP3    H235877   1.971   1.229   4.162  0.9723  0.1506 -1.5711
 4796TIP3   OH235878   0.496   0.780   1.270  0.2576  0.7876  0.4609
 4796TIP3    H135879   0.531   0.799   1.356  0.2763 -0.5358  0.7642
 4796TIP3    H235880   0.564   0.730   1.226 -0.4809 -0.1548  0.3591
 4797TIP3   OH235881   1.571   3.596   4.140  0.4055  0.2109  0.4177
 4797TIP3    H135882   1.557   3.592   4.234 -1.9351  2.5125  0.2583
 4797TIP3    H235883   1.523   3.521   4.105  0.0506  0.1832  0.9606
 4798TIP3   OH235884   5.047   4.149   3.631  0.7844  0.6864 -0.0326
 4798TIP3    H135885   4.994   4.101   3.696 -0.0940 -0.3940 -1.4774
 4798TIP3    H235886   4.987   4.215   3.596  1.0833  0.8892 -0.1623
 4799TIP3   OH235887   6.240   2.113   2.229 -0.3989  0.0877  0.2239
 4799TIP3    H135888   6.286   2.032   2.252 -0.9549  0.5628  3.4820
 4799TIP3    H235889   6.264   2.129   2.138  2.0857 -2.1846  0.3507
 4800TIP3   OH235890   0.442   5.216   1.463 -0.1982  0.3119 -0.6679
 4800TIP3    H135891   0.454   5.272   1.386 -1.2546 -0.0390 -1.1049
 4800TIP3    H235892   0.529   5.210   1.502 -0.0936  2.4304 -0.4831
 4801TIP3   OH235893   3.617   6.669   4.588 -0.7236  0.0204  0.1121
 4801TIP3    H135894   3.696   6.631   4.550  0.2334  1.7900  0.2234
 4801TIP3    H235895   3.641   6.759   4.607 -2.0093 -0.0436  2.3991
 4802TIP3   OH235896   4.562   3.886  16.717  0.0688 -0.0124 -0.1220
 4802TIP3    H135897   4.638   3.937  16.744 -0.3872  0.3520  0.5274
 4802TIP3    H235898   4.536   3.838  16.796  0.0657 -0.7092 -0.5354
 4803TIP3   OH235899   1.570   4.423  13.700  0.3187 -0.1714 -0.3891
 4803TIP3    H135900   1.650   4.397  13.655  2.0866  1.7592  1.4025
 4803TIP3    H235901   1.507   4.437  13.630  2.1501  0.1802 -2.0558
 4804TIP3   OH235902   0.869   5.012  12.099 -0.1702  0.4327  0.1571
 4804TIP3    H135903   0.879   5.015  12.194 -1.6322 -1.1538  0.4057
 4804TIP3    H235904   0.775   5.021  12.084 -0.1266 -0.7892 -1.0230
 4805TIP3   OH235905   3.664   1.497   2.335 -0.2624  0.4032  0.2330
 4805TIP3    H135906   3.679   1.542   2.418 -0.2459  1.7433 -0.4651
 4805TIP3    H235907   3.605   1.556   2.286 -1.5523 -1.1004 -0.0931
 4806TIP3   OH235908   0.505   2.102  11.655 -0.1729 -0.2882 -0.3116
 4806TIP3    H135909   0.418   2.062  11.650  0.7506 -2.4621 -0.4088
 4806TIP3    H235910   0.555   2.058  11.586  0.7437  1.6756 -0.9542
 4807TIP3   OH235911   4.730   4.228  11.947  0.5243  0.3475  0.6803
 4807TIP3    H135912   4.639   4.226  11.915  0.5157 -1.6776  0.6506
 4807TIP3    H235913   4.726   4.278  12.028 -0.7431 -0.1484  0.9591
 4808TIP3   OH235914   1.903   1.595   0.582  0.1262  0.5154  0.3497
 4808TIP3    H135915   1.986   1.549   0.581  0.9723  1.9630 -0.9177
 4808TIP3    H235916   1.856   1.563   0.505 -0.5885 -0.4061  1.1414
 4809TIP3   OH235917   4.566   5.391  15.359 -0.2271 -0.4638 -0.0018
 4809TIP3    H135918   4.635   5.361  15.300  1.6470 -0.8030  2.2537
 4809TIP3    H235919   4.492   5.409  15.301  0.7686 -2.8780 -2.2193
 4810TIP3   OH235920   1.005   4.245  13.431  0.2198 -0.2434  0.4064
 4810TIP3    H135921   1.010   4.337  13.457  1.4650 -0.0319 -0.4936
 4810TIP3    H235922   1.094   4.212  13.442 -0.1224 -1.2293  0.3104
 4811TIP3   OH235923   3.008   2.292  14.725 -0.1781  0.2267 -0.1931
 4811TIP3    H135924   2.928   2.321  14.681 -0.0916  0.6827 -0.0511
 4811TIP3    H235925   3.051   2.373  14.754 -0.1687 -0.0547  0.6154
 4812TIP3   OH235926   2.721   4.455   0.943 -0.2678 -0.5059 -0.3432
 4812TIP3    H135927   2.631   4.453   0.912 -0.5829 -0.8740  0.5433
 4812TIP3    H235928   2.766   4.517   0.886 -2.1712  3.5264  2.0736
 4813TIP3   OH235929   4.425   6.760  14.968 -0.1098 -0.4091  0.1128
 4813TIP3    H135930   4.373   6.828  14.926  1.2577 -0.4373 -1.7221
 4813TIP3    H235931   4.514   6.773  14.936  1.0109 -0.6229  2.8453
 4814TIP3   OH235932   1.573   5.872  10.594 -0.1883  0.1145 -0.0261
 4814TIP3    H135933   1.668   5.868  10.600 -0.2525 -0.3767  0.7388
 4814TIP3    H235934   1.556   5.944  10.532  0.6582  0.6882  0.3886
 4815TIP3   OH235935   1.586   0.561   3.977  0.2075 -0.4610  0.2200
 4815TIP3    H135936   1.636   0.636   3.944  0.0318 -0.3060  0.3077
 4815TIP3    H235937   1.544   0.593   4.057 -0.5873 -0.3813 -0.2211
 4816TIP3   OH235938   5.822   3.367   0.822 -0.4150 -0.0808 -0.4035
 4816TIP3    H135939   5.894   3.399   0.767 -1.7603 -1.4385 -3.1907
 4816TIP3    H235940   5.811   3.435   0.889  2.7817  0.6205 -0.4195
 4817TIP3   OH235941   0.723   5.661   2.666  0.6924  0.4483 -0.8192
 4817TIP3    H135942   0.744   5.745   2.709  1.1250  0.1577 -0.4512
 4817TIP3    H235943   0.632   5.670   2.640  0.5671  0.8242 -0.2780
 4818TIP3   OH235944   2.185   3.329   6.163 -0.0098  0.6053  0.2534
 4818TIP3    H135945   2.109   3.365   6.208 -0.8571  1.7236 -1.9243
 4818TIP3    H235946   2.152   3.298   6.079  1.8900  1.0900 -0.7469
 4819TIP3   OH235947   5.535   4.931  15.089 -0.4635 -0.3669  0.2221
 4819TIP3    H135948   5.484   4.970  15.161  0.0487 -1.6443  1.3113
 4819TIP3    H235949   5.625   4.931  15.120 -0.3565 -1.7832 -0.0152
 4820TIP3   OH235950   0.295   0.803   3.574  0.0502 -0.3630 -0.2370
 4820TIP3    H135951   0.252   0.719   3.558 -0.7577 -0.1740  0.8233
 4820TIP3    H235952   0.386   0.789   3.547  0.1306 -1.8376  0.6894
 4821TIP3   OH235953   5.048   5.288   5.056 -0.0945 -0.3448  0.6434
 4821TIP3    H135954   4.965   5.314   5.096 -0.2091  0.7048 -0.2334
 4821TIP3    H235955   5.107   5.274   5.130 -1.3125 -2.1772  1.3431
 4822TIP3   OH235956   4.363   6.392   6.335  0.2901 -0.2644 -0.0950
 4822TIP3    H135957   4.391   6.303   6.317  0.4129 -0.3500  0.4976
 4822TIP3    H235958   4.438   6.447   6.309  0.5615 -0.4041  0.3771
 4823TIP3   OH235959   6.806   0.139  16.486  0.2402 -0.3754  0.4040
 4823TIP3    H135960   6.887   0.105  16.449 -0.0661 -0.8785  0.1818
 4823TIP3    H235961   6.805   0.107  16.576  0.2407 -0.4595  0.3739
 4824TIP3   OH235962   2.290   4.042  13.397 -0.4310  0.0023 -0.1899
 4824TIP3    H135963   2.322   3.960  13.361 -2.0596 -1.2639  1.0766
 4824TIP3    H235964   2.366   4.100  13.399  1.1006 -1.9649  0.2884
 4825TIP3   OH235965   0.001   5.116   5.093  0.1102  0.3272  0.0166
 4825TIP3    H135966   0.054   5.187   5.131 -0.2029  0.7120 -0.2649
 4825TIP3    H235967  -0.075   5.110   5.151 -0.3975  0.9553 -0.5695
 4826TIP3   OH235968   4.968   5.725  14.410 -0.0563  0.2978 -0.0574
 4826TIP3    H135969   5.045   5.716  14.353 -0.7430 -0.2235 -0.9313
 4826TIP3    H235970   4.998   5.781  14.481  0.5501  1.8679 -1.4616
 4827TIP3   OH235971   6.227   5.197   4.766 -0.4458  0.8738  0.1262
 4827TIP3    H135972   6.274   5.118   4.739 -1.8340 -0.0795  0.3707
 4827TIP3    H235973   6.186   5.173   4.849 -0.1190  2.1888  0.6911
 4828TIP3   OH235974   1.393   0.044  14.134  0.5023 -0.0021  0.2936
 4828TIP3    H135975   1.308   0.063  14.096  0.8322  0.2243 -0.3454
 4828TIP3    H235976   1.451   0.112  14.099  0.6567  0.6822  1.8290
 4829TIP3   OH235977   0.071   5.303   4.467  0.3511  0.3880 -0.6453
 4829TIP3    H135978   0.013   5.365   4.423  2.1057  0.8692 -2.4243
 4829TIP3    H235979   0.126   5.268   4.397  0.4673 -2.0208  0.5668
 4830TIP3   OH235980   2.654   5.813  14.681 -0.3852 -0.0632 -0.6557
 4830TIP3    H135981   2.575   5.805  14.627 -1.1817  0.2334  0.4342
 4830TIP3    H235982   2.637   5.887  14.739  0.4980 -0.2911 -0.0798
 4831TIP3   OH235983   5.128   3.865  11.876  0.8686  0.7201  0.0608
 4831TIP3    H135984   5.217   3.897  11.887  1.5823 -0.8823 -0.6403
 4831TIP3    H235985   5.125   3.833  11.786 -0.0858 -0.1385  0.3734
 4832TIP3   OH235986   5.341   3.270   0.096  0.1698  0.3364  0.5835
 4832TIP3    H135987   5.376   3.356   0.120  0.6246  0.1589  0.5628
 4832TIP3    H235988   5.345   3.220   0.177  0.0383  0.2906  0.5610
 4833TIP3   OH235989   0.139   2.622   3.161  0.2602  0.2880 -0.3193
 4833TIP3    H135990   0.190   2.572   3.097  0.7591 -0.3266  0.5495
 4833TIP3    H235991   0.069   2.562   3.187 -1.3653  1.3352 -1.9843
 4834TIP3   OH235992   6.324   2.223  16.296  0.5718 -0.3963 -0.0269
 4834TIP3    H135993   6.336   2.183  16.382  0.9770 -0.6539 -0.1956
 4834TIP3    H235994   6.233   2.206  16.273  0.8750 -1.7532 -0.3435
 4835TIP3   OH235995   0.097   4.598   5.944 -0.1567  0.4181  0.6916
 4835TIP3    H135996   0.092   4.673   6.004 -0.1471  1.8122 -0.9711
 4835TIP3    H235997   0.185   4.603   5.907 -0.6025  0.3746 -0.4046
 4836TIP3   OH235998   1.200   4.156   4.149  0.2377 -0.1703 -0.3446
 4836TIP3    H135999   1.176   4.091   4.083  2.3485  0.0523 -1.4541
 4836TIP3    H236000   1.293   4.138   4.167  0.2395  1.0716  1.0541
 4837TIP3   OH236001   1.884   0.481  12.861 -0.0738  0.2551 -0.8980
 4837TIP3    H136002   1.957   0.426  12.890  0.3532  1.6928  0.9668
 4837TIP3    H236003   1.813   0.459  12.921 -0.7915 -0.2522 -1.9216
 4838TIP3   OH236004   3.481   0.426   3.017  0.2172  0.3343  0.1489
 4838TIP3    H136005   3.435   0.507   3.039  0.6568  1.1760 -1.8192
 4838TIP3    H236006   3.553   0.454   2.961  0.3245 -1.4400 -0.6490
 4839TIP3   OH236007   5.559   6.150   0.841 -0.4707 -0.4078  0.6315
 4839TIP3    H136008   5.624   6.160   0.772  0.1843 -1.8982  0.9898
 4839TIP3    H236009   5.479   6.124   0.796 -0.7453  1.0682  0.2230
 4840TIP3   OH236010   5.887   6.339   3.045  0.4653 -0.0135  0.0135
 4840TIP3    H136011   5.792   6.340   3.056  0.5595  1.6512  1.1735
 4840TIP3    H236012   5.915   6.253   3.076 -0.8687 -1.8587 -3.3402
 4841TIP3   OH236013   6.772   5.324  11.503  0.4085 -0.2303  0.0086
 4841TIP3    H136014   6.779   5.394  11.438  2.3956  0.3403  0.7595
 4841TIP3    H236015   6.836   5.347  11.570  0.2991 -2.1867  0.8529
 4842TIP3   OH236016   6.529   2.049   5.168 -0.6043 -0.4213 -0.4495
 4842TIP3    H136017   6.527   2.071   5.262  2.0733 -0.6871 -0.2537
 4842TIP3    H236018   6.438   2.055   5.140 -1.2533  1.3504  1.7803
 4843TIP3   OH236019   0.305   6.859  16.139  0.6771 -0.4185 -0.1502
 4843TIP3    H136020   0.368   6.825  16.075  1.2839  0.1183  0.1598
 4843TIP3    H236021   0.335   6.948  16.158  1.4177 -1.0746  2.0426
 4844TIP3   OH236022   3.428   3.341  14.332  0.0279  0.2749  0.3289
 4844TIP3    H136023   3.469   3.256  14.314 -0.0976  0.3471 -0.3202
 4844TIP3    H236024   3.372   3.325  14.408 -2.8563 -1.1686 -1.9095
 4845TIP3   OH236025   6.214   1.178   6.034 -0.1211 -0.2376 -0.1655
 4845TIP3    H136026   6.134   1.202   6.081  0.9182  2.1251  0.4935
 4845TIP3    H236027   6.222   1.243   5.964  0.6665 -1.1360 -0.9485
 4846TIP3   OH236028   6.881   2.768   1.634  0.2442  0.8583 -0.2072
 4846TIP3    H136029   6.862   2.788   1.725 -1.0856  0.2917 -0.3439
 4846TIP3    H236030   6.951   2.829   1.610  0.5884  1.0395  1.1655
 4847TIP3   OH236031   4.511   2.717  11.183  0.2085  0.3542 -0.1584
 4847TIP3    H136032   4.514   2.811  11.170  0.3506  0.5285  0.9900
 4847TIP3    H236033   4.576   2.700  11.252 -1.5379 -0.2314  1.4354
 4848TIP3   OH236034   3.585   3.977   6.477  0.0712 -0.1309  0.3079
 4848TIP3    H136035   3.599   3.895   6.524  1.1724 -0.6222 -0.8208
 4848TIP3    H236036   3.493   4.000   6.495 -0.0888 -1.3120  1.0841
 4849TIP3   OH236037   4.505   4.519  15.341  0.2388  0.0303 -0.0632
 4849TIP3    H136038   4.410   4.508  15.350  0.1943  0.6013  0.2087
 4849TIP3    H236039   4.539   4.508  15.430  0.5470 -1.2302 -0.3264
 4850TIP3   OH236040   0.008   5.932   2.456 -0.0459 -0.0350 -0.4513
 4850TIP3    H136041  -0.087   5.922   2.451 -0.3766  2.0275  0.8405
 4850TIP3    H236042   0.031   5.905   2.545 -0.1182  3.7300  0.8490
 4851TIP3   OH236043   3.977   1.329   5.749  0.1116 -0.8159 -0.2449
 4851TIP3    H136044   3.887   1.340   5.720  0.4278  0.3572 -0.8447
 4851TIP3    H236045   4.007   1.249   5.705 -0.2733 -0.5566 -0.9896
 4852TIP3   OH236046   0.507   5.872  16.707 -0.2707  0.1314  0.0463
 4852TIP3    H136047   0.581   5.825  16.745 -0.1593 -0.8925 -1.3435
 4852TIP3    H236048   0.471   5.922  16.779 -0.0151 -1.6277  1.4691
 4853TIP3   OH236049   0.112   0.270  14.173 -0.0424  0.0178 -0.4087
 4853TIP3    H136050   0.202   0.254  14.146  0.1914  1.1197 -0.3152
 4853TIP3    H236051   0.063   0.195  14.140  0.6886  0.0349 -1.5763
 4854TIP3   OH236052   3.689   3.923  15.315 -0.5308  0.3784 -0.1481
 4854TIP3    H136053   3.631   3.956  15.383 -0.4952 -2.3519  1.3656
 4854TIP3    H236054   3.639   3.852  15.274  0.4157  0.3166 -1.2252
 4855TIP3   OH236055   5.280   3.385   0.617 -0.5614  0.2859  1.0902
 4855TIP3    H136056   5.281   3.432   0.700 -0.6216  1.1233  0.6270
 4855TIP3    H236057   5.372   3.368   0.598 -0.5476  0.0858  1.3306
 4856TIP3   OH236058   0.438   5.074   0.030  0.6884 -0.3163 -0.2058
 4856TIP3    H136059   0.461   4.982   0.015 -0.1137 -0.5194 -0.2846
 4856TIP3    H236060   0.420   5.079   0.124 -0.8167 -0.6331 -0.4456
 4857TIP3   OH236061   0.306   6.186  16.473  0.1493  0.1825 -0.0305
 4857TIP3    H136062   0.367   6.133  16.422  0.3652 -0.9331  1.3380
 4857TIP3    H236063   0.363   6.238  16.531 -0.1425 -0.1329  0.5524
 4858TIP3   OH236064   2.583   5.499  10.473 -0.1900 -0.1777  0.1176
 4858TIP3    H136065   2.629   5.424  10.436  0.6439  0.6074 -0.4800
 4858TIP3    H236066   2.617   5.575  10.425 -1.9497  0.4684 -0.1925
 4859TIP3   OH236067   5.585   4.624   2.680  0.4246  0.3712 -0.4465
 4859TIP3    H136068   5.653   4.559   2.699 -0.5002 -0.3660  0.4462
 4859TIP3    H236069   5.567   4.614   2.587 -0.0007 -0.9616 -0.2347
 4860TIP3   OH236070   4.784   6.839   2.728  0.4442  0.4489  0.1171
 4860TIP3    H136071   4.877   6.829   2.748  0.6975  0.8908 -0.7867
 4860TIP3    H236072   4.743   6.858   2.812  1.0928 -0.2742  0.6039
 4861TIP3   OH236073   2.117   6.780  14.890 -0.1215  0.2659 -0.0566
 4861TIP3    H136074   2.179   6.817  14.828  0.5413 -0.1742  0.3372
 4861TIP3    H236075   2.061   6.723  14.837  1.4647 -1.3826 -0.0344
 4862TIP3   OH236076   1.232   6.699  11.499  0.1999 -0.0409 -0.3385
 4862TIP3    H136077   1.325   6.715  11.516  0.3267  0.5566 -1.4831
 4862TIP3    H236078   1.190   6.784  11.513 -0.0917 -0.1877 -0.3168
 4863TIP3   OH236079   5.218   0.748  16.499 -0.2628 -0.4635 -0.9875
 4863TIP3    H136080   5.142   0.770  16.445 -0.5502  0.7396 -0.1210
 4863TIP3    H236081   5.182   0.737  16.587  0.3922 -1.1225 -0.7972
 4864TIP3   OH236082   3.870   0.035  11.363 -0.0278  0.6533  1.0222
 4864TIP3    H136083   3.848   0.124  11.389 -1.2880  0.5966  0.2465
 4864TIP3    H236084   3.948   0.013  11.415 -0.5193  1.6896  2.2469
 4865TIP3   OH236085   4.866   4.915   4.638 -0.4625 -0.0317  0.3341
 4865TIP3    H136086   4.903   5.003   4.653  0.5118 -0.4679  0.5821
 4865TIP3    H236087   4.787   4.913   4.692 -0.9715  0.9946 -0.3515
 4866TIP3   OH236088   5.321   1.087   5.137 -0.5203 -0.2587  0.1251
 4866TIP3    H136089   5.328   1.061   5.229 -0.0930 -0.5883  0.0064
 4866TIP3    H236090   5.263   1.163   5.138  0.0850  0.2122  0.7552
 4867TIP3   OH236091   1.705   3.809   5.398  0.1627  0.1743 -0.0029
 4867TIP3    H136092   1.728   3.860   5.476 -1.2577  1.4539 -0.3716
 4867TIP3    H236093   1.648   3.739   5.430  1.4554 -0.7248  0.3941
 4868TIP3   OH236094   6.000   1.526  12.599  0.7581  0.1343 -0.0556
 4868TIP3    H136095   5.954   1.442  12.589  1.1909 -0.3047  1.4489
 4868TIP3    H236096   6.089   1.502  12.623  1.0794  1.0238 -0.3333
 4869TIP3   OH236097   2.448   3.940   6.173  0.3975 -0.4056 -0.1771
 4869TIP3    H136098   2.356   3.914   6.168  0.0898  0.4884  0.5364
 4869TIP3    H236099   2.483   3.919   6.087 -0.8498  0.5924 -0.9753
 4870TIP3   OH236100   2.908   0.504  12.870 -0.1241 -0.2157  0.6652
 4870TIP3    H136101   2.938   0.433  12.927  0.7780 -0.7488 -0.4230
 4870TIP3    H236102   2.851   0.557  12.925 -2.1069 -2.6252  1.1169
 4871TIP3   OH236103   4.952   4.673  12.727  0.9774  0.7433 -0.2022
 4871TIP3    H136104   4.873   4.726  12.717 -1.1604 -1.9116  0.9199
 4871TIP3    H236105   4.959   4.658  12.822  1.3868 -0.9816 -0.4620
 4872TIP3   OH236106   2.541   3.552   0.810 -0.2650 -0.3526  0.0849
 4872TIP3    H136107   2.455   3.563   0.768  0.2571 -1.2246 -1.2983
 4872TIP3    H236108   2.531   3.591   0.896 -1.4804  1.3587 -0.7680
 4873TIP3   OH236109   0.731   1.614  14.907 -0.1705 -0.4014  0.4768
 4873TIP3    H136110   0.716   1.699  14.865  0.7008 -0.4212  0.0958
 4873TIP3    H236111   0.704   1.627  14.998  1.0573  0.6437  0.7197
 4874TIP3   OH236112   2.248   5.274  11.998 -0.1608 -0.6094  0.6584
 4874TIP3    H136113   2.236   5.233  11.913  1.4749  1.5371 -0.6967
 4874TIP3    H236114   2.169   5.252  12.047 -1.2542 -1.6958 -1.4882
 4875TIP3   OH236115   4.184   0.939   2.282 -0.1266 -0.2663  0.0644
 4875TIP3    H136116   4.139   1.014   2.322 -0.9364  0.5513 -2.1734
 4875TIP3    H236117   4.264   0.977   2.245  0.7238 -1.0390  1.0668
 4876TIP3   OH236118   0.124   4.058   1.270 -0.1359  0.4162  0.8373
 4876TIP3    H136119   0.135   4.066   1.365  0.0136 -0.0711  0.8633
 4876TIP3    H236120   0.036   4.093   1.253 -0.7633 -0.8622  1.3455
 4877TIP3   OH236121   6.015   1.283  15.085 -0.6448  0.1548 -0.4834
 4877TIP3    H136122   6.091   1.301  15.029 -0.3510 -1.5501 -0.7081
 4877TIP3    H236123   6.053   1.262  15.171 -1.0047  1.3131 -0.0272
 4878TIP3   OH236124   2.000   3.835   2.937  0.6061  0.0429 -0.3409
 4878TIP3    H136125   1.958   3.921   2.943  0.8883  0.1727 -0.1977
 4878TIP3    H236126   2.082   3.852   2.889  2.0539  0.3922  2.0719
 4879TIP3   OH236127   0.293   6.209   4.429 -0.5344  0.4696 -0.1875
 4879TIP3    H136128   0.223   6.207   4.364 -1.8265  1.2787  1.0975
 4879TIP3    H236129   0.356   6.272   4.395 -1.7593  1.7709 -0.1663
 4880TIP3   OH236130   0.778   4.682   2.516  0.2565  0.1534  0.6004
 4880TIP3    H136131   0.766   4.587   2.517  0.8054  0.0825  2.1325
 4880TIP3    H236132   0.798   4.703   2.424  0.6634 -1.2732  0.3512
 4881TIP3   OH236133   0.718   1.929   2.342 -0.2706 -0.3467 -0.1147
 4881TIP3    H136134   0.631   1.943   2.381  0.5268 -0.0945  1.6918
 4881TIP3    H236135   0.700   1.885   2.259 -2.0748 -1.3115  0.7258
 4882TIP3   OH236136   0.428   0.355   2.012 -0.0976 -0.3949 -0.6847
 4882TIP3    H136137   0.513   0.357   2.057  0.6192 -1.1654 -1.9465
 4882TIP3    H236138   0.376   0.422   2.057  1.4371  0.6717 -0.3825
 4883TIP3   OH236139   0.802   1.858   1.180 -0.2825 -0.2699 -0.5651
 4883TIP3    H136140   0.817   1.764   1.176 -1.3298 -0.4166 -1.7312
 4883TIP3    H236141   0.713   1.869   1.146  0.3381  1.2586 -1.7973
 4884TIP3   OH236142   2.827   4.960  14.345  0.0072 -0.2751 -0.1690
 4884TIP3    H136143   2.751   4.957  14.403 -0.4829 -0.6077 -0.8123
 4884TIP3    H236144   2.798   4.916  14.265 -0.0585  2.0943 -1.5228
 4885TIP3   OH236145   2.029   3.823  16.062  0.1582  0.5112 -0.0169
 4885TIP3    H136146   2.027   3.737  16.022 -0.2798 -0.1064  1.2559
 4885TIP3    H236147   1.937   3.850  16.065  0.2992  1.0704 -0.4817
 4886TIP3   OH236148   3.983   0.345  12.703 -0.3188  0.0966  0.2475
 4886TIP3    H136149   3.927   0.274  12.671 -1.5277  1.4134 -0.6904
 4886TIP3    H236150   4.072   0.309  12.699 -0.9880 -1.7202  0.8400
 4887TIP3   OH236151   0.345   0.124   0.363  0.8341 -0.1899 -0.3955
 4887TIP3    H136152   0.352   0.091   0.453  0.5993 -0.1369 -0.3566
 4887TIP3    H236153   0.309   0.050   0.313  0.4722 -0.0535 -0.3423
 4888TIP3   OH236154   2.893   6.747  14.337 -0.4033 -0.4712 -0.6512
 4888TIP3    H136155   2.959   6.755  14.268 -0.2027  0.3773 -0.3811
 4888TIP3    H236156   2.934   6.691  14.403  0.0160 -0.0364 -0.5331
 4889TIP3   OH236157   5.126   6.659   1.401  0.5562 -0.5365 -0.9400
 4889TIP3    H136158   5.118   6.634   1.493  1.5124 -0.9201 -0.9441
 4889TIP3    H236159   5.038   6.650   1.365 -0.0731  0.7232  0.2013
 4890TIP3   OH236160   5.530   3.906  15.549  0.0292  0.5076 -0.1803
 4890TIP3    H136161   5.492   3.875  15.467 -0.2897  1.4298 -0.3862
 4890TIP3    H236162   5.499   3.843  15.615  0.1854 -0.1617 -0.7383
 4891TIP3   OH236163   2.914   6.656  15.682 -0.4071 -0.0570  0.0918
 4891TIP3    H136164   2.852   6.691  15.619 -0.4880  0.9708  0.7150
 4891TIP3    H236165   2.883   6.567  15.700 -0.9792  0.0146 -0.5173
 4892TIP3   OH236166   4.118   6.587  15.602  0.0558 -0.0923  0.4967
 4892TIP3    H136167   4.191   6.642  15.631 -1.3218  2.3749 -0.4207
 4892TIP3    H236168   4.116   6.514  15.665  4.0321 -1.0033 -0.1844
 4893TIP3   OH236169   0.909   0.319   1.724 -0.5327  0.3935  0.4309
 4893TIP3    H136170   0.825   0.351   1.757  0.3502  0.9294  2.3382
 4893TIP3    H236171   0.943   0.391   1.671 -1.0117  0.4078  0.1440
 4894TIP3   OH236172   6.822   3.361   0.877  0.4577 -0.1891  0.1248
 4894TIP3    H136173   6.899   3.318   0.914  0.6307 -0.5043 -0.5953
 4894TIP3    H236174   6.748   3.308   0.909  0.5752 -0.2243  0.3430
 4895TIP3   OH236175   0.342   2.884  11.062  0.2958  0.9938  0.2423
 4895TIP3    H136176   0.321   2.805  11.013  2.6334 -0.2549  1.1129
 4895TIP3    H236177   0.347   2.953  10.996  4.2700 -0.7852 -1.6100
 4896TIP3   OH236178   3.038   2.177   1.716  0.6675 -0.0043  0.3997
 4896TIP3    H136179   3.056   2.269   1.698  0.3119 -0.4487 -2.7243
 4896TIP3    H236180   2.949   2.177   1.753 -0.9242  0.7905 -2.9722
 4897TIP3   OH236181   4.912   1.418   1.298 -0.0784 -0.4232 -0.1259
 4897TIP3    H136182   4.938   1.506   1.271 -0.0851 -0.7342 -1.1817
 4897TIP3    H236183   4.972   1.396   1.369 -0.7591  0.8375  0.8760
 4898TIP3   OH236184   2.974   3.766   1.269  0.1113  0.0319  0.2859
 4898TIP3    H136185   2.914   3.789   1.198  1.4979  1.3094 -0.5390
 4898TIP3    H236186   2.971   3.670   1.273 -1.2714  0.0149 -0.3212
 4899TIP3   OH236187   1.663   2.583   4.032 -0.4295 -0.3739 -0.4182
 4899TIP3    H136188   1.626   2.622   4.111  2.0228 -0.0180  0.6327
 4899TIP3    H236189   1.659   2.489   4.048 -1.3454 -0.3696 -0.5693
 4900TIP3   OH236190   6.517   1.272  11.908  0.0640 -0.0571 -0.3303
 4900TIP3    H136191   6.493   1.363  11.890  1.5795 -0.1584 -3.8508
 4900TIP3    H236192   6.598   1.277  11.959  0.4369  0.6136 -0.9726
 4901TIP3   OH236193   5.046   5.002   3.322  0.0421 -0.1375 -0.3923
 4901TIP3    H136194   5.031   5.006   3.417 -0.0317 -1.1705 -0.3476
 4901TIP3    H236195   5.117   5.065   3.307 -2.1414  2.5315 -0.1775
 4902TIP3   OH236196   1.268   3.373   5.815  0.2715  0.0248  0.0795
 4902TIP3    H136197   1.178   3.367   5.785  0.8157 -0.3632 -1.5524
 4902TIP3    H236198   1.274   3.308   5.886 -0.4236 -0.8133 -0.6130
 4903TIP3   OH236199   2.391   5.752   0.467  0.5174 -0.0696  0.4459
 4903TIP3    H136200   2.382   5.738   0.373 -0.4412 -1.0354  0.6722
 4903TIP3    H236201   2.408   5.846   0.475  0.3440  0.0716 -0.6670
 4904TIP3   OH236202   4.748   4.007  16.869 -0.7579  0.0051 -0.0608
 4904TIP3    H136203   4.716   4.097  16.858  2.0264  1.0883 -0.0556
 4904TIP3    H236204   4.799   4.009  16.950  0.2324 -1.2969 -0.6216
 4905TIP3   OH236205   4.584   2.623   0.469 -0.5699  0.6452  0.4983
 4905TIP3    H136206   4.667   2.625   0.421 -0.7415  1.2771  0.2063
 4905TIP3    H236207   4.607   2.650   0.558 -0.4249  0.6128  0.4706
 4906TIP3   OH236208   2.418   6.134  15.207  0.3022 -0.5232  0.4865
 4906TIP3    H136209   2.393   6.071  15.275  1.1125  0.3425  1.6246
 4906TIP3    H236210   2.380   6.216  15.235 -0.4862 -0.4087 -0.8347
 4907TIP3   OH236211   3.974   1.122   2.361 -1.0171 -0.0242  0.6008
 4907TIP3    H136212   3.915   1.186   2.322  0.4812  1.1045  0.0618
 4907TIP3    H236213   4.009   1.166   2.438  1.7318  0.8426 -0.9707
 4908TIP3   OH236214   1.505   4.181  11.862 -0.1335 -0.0882  0.2786
 4908TIP3    H136215   1.439   4.138  11.916 -1.6887  2.7991  0.8531
 4908TIP3    H236216   1.456   4.217  11.789  1.1124  0.6214 -0.2361
 4909TIP3   OH236217   3.333   1.636  13.686  0.4042 -0.3281 -0.3053
 4909TIP3    H136218   3.339   1.731  13.685 -0.9412 -0.2289 -0.1399
 4909TIP3    H236219   3.423   1.606  13.668  0.5683  0.9475 -1.7949
 4910TIP3   OH236220   4.760   2.818   3.838  0.2866 -0.0923 -0.3590
 4910TIP3    H136221   4.829   2.778   3.785  0.9656 -0.5708  0.8612
 4910TIP3    H236222   4.731   2.748   3.896 -0.4424  0.4266 -0.0906
 4911TIP3   OH236223   5.905   0.948  16.052  0.0992 -0.3053  0.6039
 4911TIP3    H136224   5.826   1.002  16.046 -0.3741 -1.0862 -0.4786
 4911TIP3    H236225   5.907   0.918  16.143 -2.4324 -2.5455  0.0481
 4912TIP3   OH236226   1.420   2.707  16.103  0.4716 -0.7348 -0.1128
 4912TIP3    H136227   1.461   2.778  16.054 -1.8940  0.1404 -0.9535
 4912TIP3    H236228   1.493   2.663  16.146  2.2514  0.7867 -1.3967
 4913TIP3   OH236229   1.793   0.107  15.523  0.0129  0.0753  0.4488
 4913TIP3    H136230   1.779   0.201  15.527  1.2127  0.4222 -1.8245
 4913TIP3    H236231   1.729   0.076  15.459  0.3311 -0.4974  0.4059
 4914TIP3   OH236232   2.139   4.832  11.000 -0.1489  0.5215 -0.1130
 4914TIP3    H136233   2.052   4.816  10.964 -1.5815  0.3936  3.0334
 4914TIP3    H236234   2.151   4.926  10.994  1.1450  0.2782 -3.7122
 4915TIP3   OH236235   1.665   5.492  13.020 -1.2620 -0.5880  0.5564
 4915TIP3    H136236   1.730   5.421  13.021  0.0883  0.5182 -1.2923
 4915TIP3    H236237   1.669   5.529  13.108  3.3046  1.6208 -0.2799
 4916TIP3   OH236238   5.321   6.496  10.974  0.1400  0.4282 -0.1580
 4916TIP3    H136239   5.305   6.531  10.886 -1.0905 -1.7906 -0.8947
 4916TIP3    H236240   5.237   6.504  11.019  0.0004 -0.9306 -0.1396
 4917TIP3   OH236241   6.380   3.720   4.846  0.1215 -0.4402 -0.0789
 4917TIP3    H136242   6.418   3.634   4.827  0.2358 -0.2397 -0.7908
 4917TIP3    H236243   6.310   3.730   4.782 -1.0098 -0.7179  1.0940
 4918TIP3   OH236244   2.820   3.350  15.976  0.1224 -0.2951  0.0611
 4918TIP3    H136245   2.750   3.390  16.026  0.5941 -1.4947  1.7738
 4918TIP3    H236246   2.897   3.403  15.997 -0.2062  0.9698 -1.7498
 4919TIP3   OH236247   1.566   1.057  15.982 -0.3722 -0.0116  0.4907
 4919TIP3    H136248   1.589   0.989  15.919 -1.1857 -0.4368  0.6319
 4919TIP3    H236249   1.616   1.133  15.954  0.2216 -0.5430  0.0703
 4920TIP3   OH236250   2.197   6.169  15.758  0.1428  0.1417  0.8901
 4920TIP3    H136251   2.134   6.185  15.828 -0.1793 -0.0622  0.6484
 4920TIP3    H236252   2.236   6.255  15.741 -2.1586  0.9087 -0.9792
 4921TIP3   OH236253   2.879   5.112   2.293  0.2911 -0.3179 -0.4066
 4921TIP3    H136254   2.839   5.192   2.257  1.9666  1.1109  0.7490
 4921TIP3    H236255   2.954   5.096   2.236  0.7360 -0.2746  0.1708
 4922TIP3   OH236256   5.157   1.631  14.458  0.1547 -0.4146 -0.0092
 4922TIP3    H136257   5.176   1.701  14.395 -2.0703  1.5019  1.2796
 4922TIP3    H236258   5.188   1.665  14.541 -2.3963 -0.1312  0.9239
 4923TIP3   OH236259   2.915   2.889  14.380 -0.3931  0.5310  0.2994
 4923TIP3    H136260   2.998   2.856  14.346 -0.4392  1.0766 -0.3525
 4923TIP3    H236261   2.864   2.910  14.302 -0.2259  2.5046  0.6751
 4924TIP3   OH236262   0.156   6.013  16.647  0.5152 -0.4336 -0.1765
 4924TIP3    H136263   0.100   6.081  16.684 -0.3639 -1.7401  1.0376
 4924TIP3    H236264   0.234   6.059  16.617  0.1783  1.0343  1.0810
 4925TIP3   OH236265   4.019   3.788  12.850 -0.2987  0.1490  0.1171
 4925TIP3    H136266   4.023   3.700  12.889  0.1494  0.3466  0.5271
 4925TIP3    H236267   4.096   3.793  12.794 -1.6268 -0.6136 -1.8753
 4926TIP3   OH236268   0.887   2.695   4.932 -0.0576  0.1088  0.3563
 4926TIP3    H136269   0.799   2.667   4.909  0.3042 -1.4838  0.7634
 4926TIP3    H236270   0.920   2.625   4.988  2.4085 -0.7096 -1.8938
 4927TIP3   OH236271   0.207   5.603  12.524 -0.3801  0.0294 -0.7242
 4927TIP3    H136272   0.278   5.659  12.556 -0.3859  1.3850 -2.9446
 4927TIP3    H236273   0.242   5.564  12.444 -2.0903  0.6265 -1.7959
 4928TIP3   OH236274   6.484   1.697  10.992  0.1438  0.1680  0.2902
 4928TIP3    H136275   6.485   1.791  11.009 -0.1400 -0.0413  1.4973
 4928TIP3    H236276   6.575   1.669  11.007  1.0098  0.7190 -3.0656
 4929TIP3   OH236277   5.788   4.337  10.691  0.2408 -0.1374  0.6511
 4929TIP3    H136278   5.843   4.416  10.691  0.1263  0.0707  3.6441
 4929TIP3    H236279   5.707   4.365  10.649  0.9392  0.7133 -0.2039
 4930TIP3   OH236280   0.515   6.361   4.407  0.1263 -0.1643 -0.3286
 4930TIP3    H136281   0.559   6.301   4.467 -0.6559 -1.5842 -1.1186
 4930TIP3    H236282   0.586   6.414   4.370  0.7294  0.0442  1.0564
 4931TIP3   OH236283   3.564   3.364   5.249  0.0584 -0.1689 -0.4831
 4931TIP3    H136284   3.530   3.437   5.302  0.7652  0.3324 -0.6966
 4931TIP3    H236285   3.566   3.290   5.309  2.5420  0.8050  0.7844
 4932TIP3   OH236286   2.571   5.336   1.745  0.9488 -0.1918 -0.1981
 4932TIP3    H136287   2.554   5.303   1.656  1.6539 -1.6959  0.2058
 4932TIP3    H236288   2.653   5.385   1.736  0.9764 -0.2689 -0.3854
 4933TIP3   OH236289   5.809   6.722  14.060  0.0234 -0.2274 -0.2515
 4933TIP3    H136290   5.820   6.677  14.144  2.0502 -0.0212 -0.3667
 4933TIP3    H236291   5.788   6.812  14.083  0.5721 -0.1736  0.0305
 4934TIP3   OH236292   5.101   3.221  16.090  0.0879  0.0496 -0.3175
 4934TIP3    H136293   5.061   3.183  16.012  1.2253 -0.5304 -0.6346
 4934TIP3    H236294   5.113   3.148  16.150  1.4246  0.0458 -0.5606
 4935TIP3   OH236295   3.654   1.135  11.905 -0.3253 -0.1609  0.0367
 4935TIP3    H136296   3.728   1.150  11.965  0.7350 -0.8951 -1.0417
 4935TIP3    H236297   3.695   1.124  11.819 -1.9404  3.3995 -1.3618
 4936TIP3   OH236298   5.404   5.473  11.862 -0.1621  0.4168 -0.6071
 4936TIP3    H136299   5.374   5.382  11.864  0.5031  0.1847 -1.0481
 4936TIP3    H236300   5.373   5.509  11.945  3.0440 -1.3557  1.6160
 4937TIP3   OH236301   1.063   2.131  13.699 -0.0067 -0.4016  0.5377
 4937TIP3    H136302   1.031   2.213  13.736 -1.1248 -0.7450  0.3542
 4937TIP3    H236303   0.986   2.091  13.659  0.8331 -0.8042 -0.7569
 4938TIP3   OH236304   0.898   5.017   5.945  0.0122  0.0657 -0.3337
 4938TIP3    H136305   0.880   5.002   6.038  4.2558 -1.7314  0.4293
 4938TIP3    H236306   0.872   4.935   5.902 -2.9016  1.2396 -1.1124
 4939TIP3   OH236307   6.031   4.644  14.377 -0.5977  0.0212  0.2678
 4939TIP3    H136308   6.087   4.649  14.300 -0.5991 -0.6757  0.2137
 4939TIP3    H236309   6.092   4.648  14.451 -0.5359 -0.0325  0.2198
 4940TIP3   OH236310   2.150   1.591  16.199 -0.3245 -0.0230 -0.1569
 4940TIP3    H136311   2.097   1.538  16.140 -2.1106  0.8482  0.6128
 4940TIP3    H236312   2.124   1.563  16.286  0.6030  0.3289  0.2406
 4941TIP3   OH236313   1.236   4.649   4.353 -0.0975  0.1795  0.3513
 4941TIP3    H136314   1.238   4.701   4.273  0.2603 -0.5518 -0.1312
 4941TIP3    H236315   1.226   4.559   4.322 -1.1360 -0.0022  1.1837
 4942TIP3   OH236316   1.651   2.709  10.956 -0.4180  0.3803  0.1200
 4942TIP3    H136317   1.679   2.660  11.033  0.9251  0.0885 -0.5200
 4942TIP3    H236318   1.711   2.680  10.887  0.3914  2.8520 -0.3009
 4943TIP3   OH236319   1.425   4.761   4.531  0.6661  0.2988 -0.2296
 4943TIP3    H136320   1.383   4.845   4.519  0.8856  0.6157  1.0461
 4943TIP3    H236321   1.366   4.698   4.490 -0.3633  0.8891  0.3049
 4944TIP3   OH236322   1.932   6.804  10.763  0.0928 -0.1661 -0.7805
 4944TIP3    H136323   1.937   6.755  10.681  0.0544  0.9942 -1.5035
 4944TIP3    H236324   1.984   6.883  10.747  1.8556 -0.8715  1.0412
 4945TIP3   OH236325   1.727   4.755   2.083 -0.0523 -0.0321  0.1041
 4945TIP3    H136326   1.755   4.687   2.020 -0.8084  0.4474 -0.7794
 4945TIP3    H236327   1.751   4.720   2.168 -0.4316 -1.4405 -0.3320
 4946TIP3   OH236328   1.723   3.913   5.075 -0.5028  0.4250  0.0412
 4946TIP3    H136329   1.709   3.956   5.159 -1.5832  0.4942 -0.1531
 4946TIP3    H236330   1.790   3.847   5.092  0.7469  1.7707  0.4837
 4947TIP3   OH236331   4.148   2.663   0.819 -0.1317  0.0943  0.2351
 4947TIP3    H136332   4.150   2.693   0.728 -1.4866 -0.5030 -0.0229
 4947TIP3    H236333   4.056   2.670   0.845 -0.1340 -1.6702  0.8741
 4948TIP3   OH236334   1.601   1.898  14.623  0.0195 -0.1734 -0.5381
 4948TIP3    H136335   1.628   1.939  14.541 -1.3263 -0.2708 -1.0578
 4948TIP3    H236336   1.513   1.930  14.638  0.1823 -0.2950  0.8019
 4949TIP3   OH236337   2.800   1.111  13.271 -0.6350  0.2274  0.6787
 4949TIP3    H136338   2.883   1.132  13.228 -1.5542 -0.5172 -1.5671
 4949TIP3    H236339   2.809   1.020  13.297 -0.5581  0.2990  0.9032
 4950TIP3   OH236340   1.052   5.803   2.638  0.0297 -0.2889  0.4491
 4950TIP3    H136341   1.073   5.735   2.573 -0.2401  0.3003 -0.2671
 4950TIP3    H236342   1.063   5.885   2.591  0.7285  0.1857  1.4223
 4951TIP3   OH236343   0.845   1.480   5.339 -0.0494  0.1398 -0.5034
 4951TIP3    H136344   0.940   1.491   5.346  0.1100  0.6026 -2.6019
 4951TIP3    H236345   0.819   1.443   5.423  2.1137 -0.7922 -0.1639
 4952TIP3   OH236346   2.561   4.382   6.734 -0.4358  0.5308 -0.3187
 4952TIP3    H136347   2.508   4.306   6.758  0.2284 -0.2502 -1.2732
 4952TIP3    H236348   2.625   4.349   6.671 -0.3891  1.9621 -1.0796
 4953TIP3   OH236349   1.656   0.273  14.648 -0.4180 -0.2057  0.5560
 4953TIP3    H136350   1.563   0.297  14.651  0.2284  2.9567 -0.5185
 4953TIP3    H236351   1.689   0.315  14.569  1.7878 -2.0573  0.3796
 4954TIP3   OH236352   1.619   0.639  11.385 -0.4898  0.3282  0.1866
 4954TIP3    H136353   1.667   0.573  11.434  0.2988  0.3114 -0.5877
 4954TIP3    H236354   1.574   0.692  11.452  0.2438  0.0702  0.8898
 4955TIP3   OH236355   0.460   1.207  11.998  0.1450  0.3744 -0.0797
 4955TIP3    H136356   0.381   1.179  11.951  1.0030 -0.1295 -1.2762
 4955TIP3    H236357   0.459   1.154  12.078  0.2200 -1.0249 -0.9556
 4956TIP3   OH236358   2.115   4.919   5.578  0.1867 -0.3374 -0.6757
 4956TIP3    H136359   2.099   4.847   5.639 -1.6171  0.1229 -0.5340
 4956TIP3    H236360   2.203   4.950   5.599 -0.2742 -0.3688  1.5584
 4957TIP3   OH236361   4.246   2.473   1.941 -0.1207  0.0718 -0.4034
 4957TIP3    H136362   4.268   2.412   2.011  0.8683  0.6845 -0.1665
 4957TIP3    H236363   4.328   2.518   1.921 -0.2461 -0.4505 -2.3117
 4958TIP3   OH236364   2.274   5.777  15.065  0.0630 -0.1691  0.0476
 4958TIP3    H136365   2.207   5.838  15.035 -0.4350  0.1678  1.7150
 4958TIP3    H236366   2.317   5.823  15.138  0.4090 -1.3623  0.6190
 4959TIP3   OH236367   4.309   1.274  16.381 -0.2089  0.1685 -0.8458
 4959TIP3    H136368   4.313   1.343  16.447 -1.1848 -0.0328 -0.5552
 4959TIP3    H236369   4.244   1.306  16.317  0.8660  0.4511 -1.8293
 4960TIP3   OH236370   0.944   5.105   4.397 -0.3834  0.2508  0.3285
 4960TIP3    H136371   0.876   5.039   4.392 -1.4295  1.3721 -0.9066
 4960TIP3    H236372   0.908   5.171   4.456 -0.6947  1.1714 -0.8559
 4961TIP3   OH236373   5.913   6.358  12.710 -0.0756 -0.4266 -0.1953
 4961TIP3    H136374   5.834   6.392  12.668 -0.5360 -0.8487  0.3073
 4961TIP3    H236375   5.977   6.352  12.640 -0.4683  0.0025 -0.5946
 4962TIP3   OH236376   3.041   6.228   3.897 -0.0135  0.0655 -0.3169
 4962TIP3    H136377   3.103   6.229   3.970  0.4695  1.0428 -0.7165
 4962TIP3    H236378   2.955   6.229   3.939  0.2175 -1.2528  0.2445
 4963TIP3   OH236379   1.489   4.942   2.099 -0.9819  0.1822 -0.1951
 4963TIP3    H136380   1.479   4.942   2.194 -3.1066  0.3901 -0.3591
 4963TIP3    H236381   1.555   4.876   2.081 -1.8073 -1.1234  1.3599
 4964TIP3   OH236382   6.395   6.860   4.641  0.2938  0.4377 -0.4673
 4964TIP3    H136383   6.314   6.899   4.674 -0.0012  0.2390 -0.9433
 4964TIP3    H236384   6.457   6.867   4.713 -0.5729 -0.7322  0.4240
 4965TIP3   OH236385   3.839   0.816  16.745 -0.0440 -0.0863 -0.0239
 4965TIP3    H136386   3.803   0.876  16.679 -1.1211 -0.8732 -0.1837
 4965TIP3    H236387   3.924   0.790  16.710 -0.4336 -0.1862 -0.9250
 4966TIP3   OH236388   4.460   6.260   2.994 -0.0223 -0.8363  0.9459
 4966TIP3    H136389   4.427   6.328   3.054 -0.2388 -1.7008  1.8406
 4966TIP3    H236390   4.556   6.268   2.999  0.0011  1.3028 -1.2193
 4967TIP3   OH236391   2.165   5.971   3.928  0.3322 -0.3426 -0.3667
 4967TIP3    H136392   2.094   6.031   3.954  1.7975  0.7267  1.4037
 4967TIP3    H236393   2.227   6.027   3.882  1.3920 -0.6452  0.6726
 4968TIP3   OH236394   2.442   0.304   1.742 -0.4798 -0.1502 -0.4066
 4968TIP3    H136395   2.382   0.372   1.712  0.0126  1.1537  1.4067
 4968TIP3    H236396   2.521   0.351   1.768  0.9521 -1.7133 -1.6695
 4969TIP3   OH236397   2.106   5.901   0.462  0.0247 -0.0807 -0.0759
 4969TIP3    H136398   2.143   5.820   0.497  2.5154 -0.0577 -2.3362
 4969TIP3    H236399   2.085   5.880   0.371 -2.3467  0.9678  0.1670
 4970TIP3   OH236400   2.411   6.184  13.910  0.5661  0.0125  0.1002
 4970TIP3    H136401   2.482   6.139  13.865 -0.2760 -0.8513 -0.4227
 4970TIP3    H236402   2.339   6.184  13.847  0.0307  0.6702  0.6910
 4971TIP3   OH236403   5.783   3.579  12.283  1.0274  0.0509  0.0477
 4971TIP3    H136404   5.860   3.525  12.263  1.6469  0.3582  1.4445
 4971TIP3    H236405   5.715   3.548  12.224  1.5274 -1.8857  0.4213
 4972TIP3   OH236406   6.370   2.266  14.269 -0.2003 -0.4744 -0.8115
 4972TIP3    H136407   6.352   2.266  14.363  0.1820 -1.5100 -0.7293
 4972TIP3    H236408   6.285   2.255  14.228 -0.4695  0.7553 -0.6264
 4973TIP3   OH236409   4.748   0.951   0.080 -0.1767  0.4595  0.5100
 4973TIP3    H136410   4.764   1.045   0.086 -0.8688  0.5252  1.6148
 4973TIP3    H236411   4.829   0.910   0.110 -0.5961  0.7478  2.1647
 4974TIP3   OH236412   5.028   3.441   1.044 -0.1396 -0.1958  0.1971
 4974TIP3    H136413   5.080   3.514   1.077 -0.8100 -0.5136  2.0794
 4974TIP3    H236414   4.971   3.479   0.977 -0.6381  1.0665  1.3056
 4975TIP3   OH236415   1.748   0.445  14.081 -0.2697 -0.1704  0.0388
 4975TIP3    H136416   1.736   0.443  13.986 -0.4054  0.2502  0.0490
 4975TIP3    H236417   1.753   0.352  14.106 -0.8209 -0.2949 -0.3046
 4976TIP3   OH236418   4.158   4.969  14.118 -0.3055  0.0598  0.3384
 4976TIP3    H136419   4.172   4.876  14.101  1.5721  0.1637  1.0908
 4976TIP3    H236420   4.163   4.977  14.214 -1.9225  0.7494  0.4034
 4977TIP3   OH236421   2.655   6.242   1.858  0.0126  0.4851 -0.3926
 4977TIP3    H136422   2.640   6.152   1.830  2.2955 -0.1518  0.1752
 4977TIP3    H236423   2.722   6.274   1.797 -1.4146  2.1530 -1.1590
 4978TIP3   OH236424   0.358   6.529   5.133 -0.1839  0.1768  0.2690
 4978TIP3    H136425   0.360   6.541   5.038 -0.6736  2.2994  0.4615
 4978TIP3    H236426   0.393   6.612   5.167  0.9173 -0.9261  1.9353
 4979TIP3   OH236427   0.983   0.094   4.962 -0.5902 -0.2617  0.6229
 4979TIP3    H136428   0.973   0.184   4.933 -0.7599 -0.3258  0.4853
 4979TIP3    H236429   0.911   0.047   4.921  0.7109 -0.8964 -1.0491
 4980TIP3   OH236430   3.347   2.497  13.978 -0.4494 -0.0595  0.3645
 4980TIP3    H136431   3.311   2.559  13.914  1.3488 -0.0965 -0.7350
 4980TIP3    H236432   3.408   2.549  14.029  3.3104 -1.3006 -2.4078
 4981TIP3   OH236433   6.048   2.652   5.993 -0.1906  0.0535  0.0963
 4981TIP3    H136434   5.986   2.695   5.933  0.5493  0.7968 -0.1496
 4981TIP3    H236435   6.019   2.678   6.080  0.8403  1.9502 -0.0694
 4982TIP3   OH236436   1.685   2.417   5.120 -0.0724  0.0163  0.5053
 4982TIP3    H136437   1.617   2.441   5.184 -0.3697  1.0750 -0.1745
 4982TIP3    H236438   1.660   2.329   5.090 -0.1138 -0.3519  1.5802
 4983TIP3   OH236439   1.352   2.363   2.210 -0.3420  0.5087  0.3635
 4983TIP3    H136440   1.262   2.398   2.208 -0.5937 -0.0742  1.0916
 4983TIP3    H236441   1.351   2.292   2.146 -0.8145 -0.4429  1.4040
 4984TIP3   OH236442   4.717   4.124   1.075 -0.4151  0.1365 -0.3593
 4984TIP3    H136443   4.730   4.140   1.168 -1.9551 -0.4814  0.0004
 4984TIP3    H236444   4.773   4.049   1.055 -1.5272 -0.9735  0.5486
 4985TIP3   OH236445   4.916   0.637   0.750 -0.9852  0.9259  0.1001
 4985TIP3    H136446   4.970   0.714   0.767  0.2723  0.5572 -1.8678
 4985TIP3    H236447   4.953   0.570   0.808  0.1628  0.9107 -0.6156
 4986TIP3   OH236448   5.878   0.706  13.855 -0.2120  0.3840  0.3162
 4986TIP3    H136449   5.815   0.767  13.894  0.9573  0.6733  1.8578
 4986TIP3    H236450   5.849   0.619  13.885  0.4911  0.5773  1.6017
 4987TIP3   OH236451   4.967   2.527  15.886  1.0098 -0.7456  0.2679
 4987TIP3    H136452   5.047   2.476  15.873  1.5466 -0.4677  2.1322
 4987TIP3    H236453   4.988   2.586  15.959 -0.9622 -0.8355  0.9744
 4988TIP3   OH236454   0.417   1.802  16.324  0.3901 -0.3863  0.1968
 4988TIP3    H136455   0.323   1.813  16.314  0.5311  1.2908  0.4282
 4988TIP3    H236456   0.435   1.830  16.414  1.2902  0.8683 -0.3408
 4989TIP3   OH236457   5.168   4.481   3.135 -0.4696 -0.2037  0.4664
 4989TIP3    H136458   5.243   4.437   3.095 -0.1684  0.3465  0.4231
 4989TIP3    H236459   5.180   4.573   3.115 -1.5831 -0.1876 -0.2337
 4990TIP3   OH236460   0.247   5.377  16.425  0.0657  0.5246  0.0266
 4990TIP3    H136461   0.202   5.379  16.509  1.1914 -0.8527  0.7077
 4990TIP3    H236462   0.333   5.415  16.443  0.0724  0.8647 -0.6766
 4991TIP3   OH236463   6.180   1.398  14.434 -0.2068  0.2188 -0.2222
 4991TIP3    H136464   6.123   1.448  14.493 -0.4607  0.5749 -0.7728
 4991TIP3    H236465   6.267   1.403  14.475 -0.5641 -0.3536  0.6345
 4992TIP3   OH236466   3.391   0.303  10.075  0.6146 -0.0427  0.1945
 4992TIP3    H136467   3.386   0.209  10.058  0.6477  0.0496 -0.3453
 4992TIP3    H236468   3.304   0.326  10.107  0.6275 -0.2713  0.3950
 4993TIP3   OH236469   4.591   2.484  15.329 -0.3093 -0.1578  0.1886
 4993TIP3    H136470   4.613   2.420  15.397 -2.1137  0.2572  1.2125
 4993TIP3    H236471   4.553   2.558  15.376  0.5337  1.1611 -1.0945
 4994TIP3   OH236472   6.784   1.293  16.317 -0.4744  0.9287 -0.5591
 4994TIP3    H136473   6.859   1.238  16.293 -0.6242  1.1980 -1.6986
 4994TIP3    H236474   6.721   1.281  16.246 -1.4196  0.9128  0.2510
 4995TIP3   OH236475   2.554   4.125  13.561 -0.3148 -0.3972  0.4015
 4995TIP3    H136476   2.598   4.041  13.547  0.7995 -0.0765  1.7829
 4995TIP3    H236477   2.533   4.125  13.654  1.0039  1.4598  0.7389
 4996TIP3   OH236478   4.404   3.554  14.517 -0.9644 -0.1389  0.9052
 4996TIP3    H136479   4.340   3.608  14.472 -2.1326 -1.1119  1.3610
 4996TIP3    H236480   4.372   3.465  14.508  1.6697 -1.0242 -1.0840
 4997TIP3   OH236481   0.041   6.288  11.559 -0.3209  0.0946 -0.1208
 4997TIP3    H136482   0.068   6.378  11.544  0.1108 -0.2484 -1.5797
 4997TIP3    H236483  -0.054   6.289  11.552 -0.3944  0.5972  0.8696
 4998TIP3   OH236484   6.667   4.839   3.650  0.5736  0.0978 -0.8814
 4998TIP3    H136485   6.681   4.822   3.744  1.3622  1.8322 -0.6397
 4998TIP3    H236486   6.573   4.828   3.638  0.3659  0.3953  0.2600
 4999TIP3   OH236487   5.696   0.361  11.209  0.4668  0.2870  0.2843
 4999TIP3    H136488   5.644   0.302  11.155  0.0016  1.7248 -0.8916
 4999TIP3    H236489   5.650   0.365  11.293 -1.2168  1.3389 -0.6497
 5000TIP3   OH236490   6.478   5.319  10.946 -0.1865 -0.0221  0.0993
 5000TIP3    H136491   6.521   5.375  10.881 -1.0354  0.0848 -0.3794
 5000TIP3    H236492   6.501   5.359  11.030  0.3733  0.2263 -0.1620
 5001TIP3   OH236493   2.706   0.790  10.955 -0.5924  0.7615 -0.0077
 5001TIP3    H136494   2.710   0.813  10.862 -0.1194  0.7573  0.0055
 5001TIP3    H236495   2.797   0.771  10.979 -0.6623  1.0754  0.5355
 5002TIP3   OH236496   5.103   5.440   2.076  0.3691 -0.0881  0.0573
 5002TIP3    H136497   5.192   5.431   2.041  0.4869 -2.2776  0.7669
 5002TIP3    H236498   5.069   5.520   2.035  2.1154 -0.0324 -1.4142
 5003TIP3   OH236499   5.386   1.353  11.757  0.4589  0.3559  0.8679
 5003TIP3    H136500   5.384   1.348  11.661 -0.9219  0.2239  0.8875
 5003TIP3    H236501   5.462   1.300  11.781  0.4173 -0.1943 -0.1266
 5004TIP3   OH236502   0.348   4.108   5.683  0.0784 -0.3258  0.3398
 5004TIP3    H136503   0.305   4.186   5.719  1.2774  0.1460  0.8091
 5004TIP3    H236504   0.348   4.124   5.588  2.1737  1.3142  0.5366
 5005TIP3   OH236505   6.006   2.458  12.365 -0.2694 -0.7200 -0.1011
 5005TIP3    H136506   5.980   2.489  12.279 -0.4573  0.5374  0.3928
 5005TIP3    H236507   6.069   2.388  12.347  1.9172  1.4160 -1.2793
 5006TIP3   OH236508   3.563   5.631  16.602  0.0246 -0.0651  0.1021
 5006TIP3    H136509   3.657   5.617  16.604 -0.0412 -1.3864 -2.3213
 5006TIP3    H236510   3.532   5.595  16.685  1.6228  0.4440  0.9589
 5007TIP3   OH236511   2.392   4.501  14.969  0.3255  0.0267  0.3003
 5007TIP3    H136512   2.410   4.542  14.885 -0.3367 -2.0412 -0.9242
 5007TIP3    H236513   2.385   4.574  15.031  1.4136  1.5640 -1.2977
 5008TIP3   OH236514   1.457   3.572   1.269  0.0376 -0.2605 -0.0790
 5008TIP3    H136515   1.375   3.523   1.267 -0.3723  0.4133  0.0412
 5008TIP3    H236516   1.481   3.584   1.177 -0.0551 -0.3643 -0.1156
 5009TIP3   OH236517   5.251   5.184   0.287  0.0522  0.8202 -0.3566
 5009TIP3    H136518   5.226   5.212   0.375  0.7268 -0.6597  0.3365
 5009TIP3    H236519   5.177   5.210   0.232 -1.6854 -0.7224  1.1219
 5010TIP3   OH236520   3.187   2.332  15.951  0.3771 -0.2747 -0.8012
 5010TIP3    H136521   3.172   2.255  15.897 -0.5190  0.5593 -1.7754
 5010TIP3    H236522   3.282   2.341  15.955  0.4733 -1.1331 -1.0919
 5011TIP3   OH236523   3.881   0.583  10.976 -0.5614  0.1929  0.0403
 5011TIP3    H136524   3.890   0.673  11.007 -1.8611  0.5345 -0.5239
 5011TIP3    H236525   3.901   0.529  11.052  2.9428  0.8434 -0.2639
 5012TIP3   OH236526   4.586   1.411   3.865  0.0271  0.4725  0.2741
 5012TIP3    H136527   4.571   1.431   3.958 -1.1679 -0.6598  0.3404
 5012TIP3    H236528   4.503   1.378   3.833  1.1063 -1.6895 -0.5221
 5013TIP3   OH236529   6.476   2.855   6.188 -0.4517  0.5323 -0.0113
 5013TIP3    H136530   6.518   2.929   6.143 -0.4615 -0.5680 -1.9468
 5013TIP3    H236531   6.483   2.877   6.281  0.9381  2.2180 -0.4442
 5014TIP3   OH236532   1.361   4.402  12.437 -0.6555  0.3944 -0.6402
 5014TIP3    H136533   1.444   4.371  12.400 -0.4122  1.2094 -0.8073
 5014TIP3    H236534   1.380   4.416  12.529 -0.4155  1.1858 -0.8007
 5015TIP3   OH236535   0.770   6.769   0.473  0.0838  0.2043 -0.6175
 5015TIP3    H136536   0.752   6.824   0.550  0.0811  0.2320 -0.6375
 5015TIP3    H236537   0.833   6.704   0.504 -1.7359 -1.3257  0.0778
 5016TIP3   OH236538   0.158   5.607  11.308  0.1739 -0.2387  0.2387
 5016TIP3    H136539   0.185   5.614  11.400  0.5930 -2.4101  0.3377
 5016TIP3    H236540   0.234   5.635  11.258  1.0202 -1.8513  0.5643
 5017TIP3   OH236541   6.561   1.843   3.571  0.3220  0.2518 -0.8631
 5017TIP3    H136542   6.540   1.754   3.545  2.5217 -0.9061  0.9355
 5017TIP3    H236543   6.479   1.879   3.604 -0.2547 -1.7493  0.0152
 5018TIP3   OH236544   4.402   4.707   4.201 -0.5324  0.6533  0.3792
 5018TIP3    H136545   4.387   4.613   4.209 -3.0579  0.9445 -0.0752
 5018TIP3    H236546   4.385   4.742   4.288  2.1458  0.5920  1.0276
 5019TIP3   OH236547   0.969   5.138  15.370  0.1399 -0.3170 -0.4070
 5019TIP3    H136548   0.885   5.143  15.415  1.7927  1.2529  2.8503
 5019TIP3    H236549   1.025   5.202  15.414  3.1628 -1.4669 -2.1866
 5020TIP3   OH236550   5.631   3.682  10.928 -0.3323  0.0401 -0.3408
 5020TIP3    H136551   5.540   3.691  10.900 -0.2861 -1.6294 -1.1415
 5020TIP3    H236552   5.638   3.591  10.957  0.9172  0.3338  0.3523
 5021TIP3   OH236553   6.827   5.090  13.100  0.2182  0.5235  0.2814
 5021TIP3    H136554   6.893   5.098  13.168  0.2793  0.5780  0.2156
 5021TIP3    H236555   6.857   5.018  13.044 -0.5403 -0.4557  1.1041
 5022TIP3   OH236556   6.668   5.662   5.833  0.5308  0.2797  0.6742
 5022TIP3    H136557   6.576   5.689   5.834  0.6186  0.6230  0.1588
 5022TIP3    H236558   6.702   5.696   5.750  0.8854 -0.6664  0.4193
 5023TIP3   OH236559   1.987   0.814   3.207  0.7210 -0.6799  0.2572
 5023TIP3    H136560   1.914   0.762   3.241  0.6897 -1.0578 -0.3649
 5023TIP3    H236561   2.005   0.776   3.121 -0.9350  1.8830 -1.3734
 5024TIP3   OH236562   6.417   2.511  16.293 -0.3559  0.0391  0.7096
 5024TIP3    H136563   6.373   2.427  16.305  0.9147 -0.6656  0.5472
 5024TIP3    H236564   6.506   2.497  16.325  0.3685  0.8269 -0.8545
 5025TIP3   OH236565   2.860   4.057  16.333 -0.2592 -0.2172  0.4876
 5025TIP3    H136566   2.872   3.996  16.405  1.5996  0.0395  0.4491
 5025TIP3    H236567   2.862   4.144  16.373  1.8235 -0.0230  0.0852
 5026TIP3   OH236568   2.427   5.022  11.321 -0.4819  0.3222  0.6410
 5026TIP3    H136569   2.414   5.066  11.237  0.6689 -0.2752  0.1152
 5026TIP3    H236570   2.371   4.944  11.317 -0.0221  0.0094  0.1913
 5027TIP3   OH236571   5.477   1.797  15.120  0.3550  0.1015 -0.5623
 5027TIP3    H136572   5.559   1.790  15.071  0.9347 -1.0662  0.5114
 5027TIP3    H236573   5.432   1.715  15.104 -1.8281  1.6272 -3.0851
 5028TIP3   OH236574   5.776   0.380  11.740  0.2675  0.0845 -0.0920
 5028TIP3    H136575   5.750   0.452  11.683  2.8595  2.4022  1.4426
 5028TIP3    H236576   5.728   0.394  11.821 -0.9903 -1.3694 -0.5271
 5029TIP3   OH236577   4.930   1.472   1.952 -0.0296  0.5376  0.3631
 5029TIP3    H136578   4.993   1.514   1.894  0.2857 -0.4209 -0.0062
 5029TIP3    H236579   4.906   1.391   1.907  2.2862 -1.6781  2.7176
 5030TIP3   OH236580   2.781   1.160   0.322 -0.1392  0.4014  0.0852
 5030TIP3    H136581   2.705   1.200   0.280 -0.4008 -0.1986 -0.0200
 5030TIP3    H236582   2.745   1.103   0.390  0.2301  0.3925  0.2772
 5031TIP3   OH236583   3.714   4.821  15.826  0.8544 -0.3745  0.4881
 5031TIP3    H136584   3.686   4.754  15.764  1.5348 -0.3930  0.1922
 5031TIP3    H236585   3.634   4.848  15.870  0.7582 -2.5429  1.7848
 5032TIP3   OH236586   6.726   2.426   4.669 -0.2155  0.0173 -0.3395
 5032TIP3    H136587   6.696   2.346   4.711  1.2637 -0.7768 -0.7540
 5032TIP3    H236588   6.663   2.440   4.598 -1.3010  0.0351  0.5843
 5033TIP3   OH236589   2.329   2.212  16.150  0.5551 -0.1126 -0.1409
 5033TIP3    H136590   2.366   2.295  16.121  0.3755 -0.0335 -0.1440
 5033TIP3    H236591   2.386   2.184  16.222 -0.8574  1.2833  1.6208
 5034TIP3   OH236592   2.719   0.740   5.324  0.1779 -0.2599  0.1207
 5034TIP3    H136593   2.693   0.663   5.275 -0.1822 -0.3914  0.5109
 5034TIP3    H236594   2.668   0.812   5.287 -0.8326 -0.5323  0.9417
 5035TIP3   OH236595   2.470   2.554  16.400 -0.1583  0.1943  0.4552
 5035TIP3    H136596   2.541   2.498  16.369  0.6798  1.9481 -1.0103
 5035TIP3    H236597   2.407   2.493  16.439  1.5215 -1.5491  0.6261
 5036TIP3   OH236598   1.582   6.268  12.556 -0.2861  0.1213 -0.5932
 5036TIP3    H136599   1.613   6.312  12.477  1.0892 -0.0394 -0.1640
 5036TIP3    H236600   1.597   6.332  12.626  3.2415 -1.4364  0.3065
 5037TIP3   OH236601   3.610   6.212   0.759 -0.4357  0.1833  0.0091
 5037TIP3    H136602   3.644   6.294   0.794 -1.1191  0.1597  0.7401
 5037TIP3    H236603   3.605   6.227   0.664 -0.0926  0.8116  0.0856
 5038TIP3   OH236604   4.286   6.437   6.614 -0.0820 -0.3082 -0.3011
 5038TIP3    H136605   4.347   6.499   6.655 -1.2486 -0.7763  2.4102
 5038TIP3    H236606   4.316   6.430   6.523  1.7503  2.0907  0.0061
 5039TIP3   OH236607   5.178   6.361  12.581 -0.2640 -0.2660 -0.0807
 5039TIP3    H136608   5.136   6.275  12.585  0.3118 -0.9428 -4.1279
 5039TIP3    H236609   5.106   6.422  12.564 -0.2804 -0.5821 -1.2184
 5040TIP3   OH236610   5.043   1.859   0.735 -0.1909  0.1040  0.1722
 5040TIP3    H136611   4.976   1.815   0.787 -0.7036 -0.9154 -1.2931
 5040TIP3    H236612   5.044   1.812   0.651  1.6664  0.7235 -0.2093
 5041TIP3   OH236613   4.316   6.121   5.938  0.4057  0.1434  0.0924
 5041TIP3    H136614   4.407   6.142   5.959  0.9714 -1.1847 -0.8985
 5041TIP3    H236615   4.304   6.031   5.969 -0.3822  0.0963 -0.3263
 5042TIP3   OH236616   5.495   3.796   4.748 -0.3121  0.1535  0.1920
 5042TIP3    H136617   5.510   3.794   4.842 -0.3153  1.8808  0.2648
 5042TIP3    H236618   5.410   3.753   4.737  0.2721 -1.2231  0.8025
 5043TIP3   OH236619   5.600   0.467   5.293  0.0599 -0.2029  0.1665
 5043TIP3    H136620   5.661   0.508   5.354  0.6956  0.1613 -0.7041
 5043TIP3    H236621   5.652   0.449   5.215 -0.7587 -0.6152 -0.2929
 5044TIP3   OH236622   6.575   1.666  13.001 -0.5683 -0.5886 -0.4836
 5044TIP3    H136623   6.618   1.744  13.034 -0.4296 -1.0004  0.3269
 5044TIP3    H236624   6.547   1.619  13.079 -1.7765 -0.7291 -0.9778
 5045TIP3   OH236625   3.418   2.222  16.074  0.5805 -0.1616 -0.1214
 5045TIP3    H136626   3.361   2.146  16.084  0.2893  0.0174 -0.3805
 5045TIP3    H236627   3.445   2.244  16.163  0.5752 -0.4986 -0.0367
 5046TIP3   OH236628   0.626   3.868  14.261  0.2789  0.6291 -0.7319
 5046TIP3    H136629   0.686   3.872  14.186  1.1292 -1.2940 -0.2145
 5046TIP3    H236630   0.675   3.822  14.329 -0.9836  1.0821  0.5388
 5047TIP3   OH236631   2.926   0.940   0.625 -0.2441  0.1422 -0.0119
 5047TIP3    H136632   2.871   0.950   0.547  1.1202  0.7630 -0.9361
 5047TIP3    H236633   2.950   0.847   0.625 -1.7804 -0.3020  0.7904
 5048TIP3   OH236634   0.254   2.082   0.385  0.0597 -0.1146  0.1135
 5048TIP3    H136635   0.278   1.999   0.426 -0.0839 -0.3116 -0.1926
 5048TIP3    H236636   0.159   2.086   0.392 -0.0168 -0.3942 -0.6402
 5049TIP3   OH236637   2.815   1.534   6.118 -0.6905 -0.0290  0.0214
 5049TIP3    H136638   2.759   1.603   6.152  0.1247  1.4383 -1.4772
 5049TIP3    H236639   2.754   1.465   6.090 -1.5104  0.0424  1.5581
 5050TIP3   OH236640   3.222   4.370   4.452  0.0696  0.2259  0.3726
 5050TIP3    H136641   3.215   4.282   4.416 -0.8124 -0.1343  1.3601
 5050TIP3    H236642   3.169   4.367   4.532 -0.8106  1.9279 -0.0955
 5051TIP3   OH236643   2.194   4.708   1.096  0.2385  0.4946 -0.0011
 5051TIP3    H136644   2.280   4.667   1.106 -0.2211 -0.4302  0.2781
 5051TIP3    H236645   2.133   4.635   1.091 -0.4460  1.1199 -1.2237
 5052TIP3   OH236646   4.616   3.347   4.853 -0.2215 -0.3283  0.7821
 5052TIP3    H136647   4.581   3.435   4.841  0.4004 -0.1120  0.4807
 5052TIP3    H236648   4.690   3.343   4.792  0.3187 -0.7422  1.4567
 5053TIP3   OH236649   2.352   6.841  15.468 -0.2834 -0.3301  0.1240
 5053TIP3    H136650   2.410   6.910  15.436  1.4638 -1.1323  1.4299
 5053TIP3    H236651   2.314   6.877  15.548 -0.2153 -0.4739  0.2210
 5054TIP3   OH236652   1.106   3.897  12.853 -0.1173  0.4336 -0.2797
 5054TIP3    H136653   1.128   3.889  12.760  1.5617 -2.1154  0.2373
 5054TIP3    H236654   1.180   3.945  12.891  0.9417 -1.4974  0.2236
 5055TIP3   OH236655   2.088   4.488  10.955 -0.4557 -0.3276 -0.5922
 5055TIP3    H136656   2.098   4.494  11.050  0.2679  0.8396 -0.7205
 5055TIP3    H236657   2.131   4.566  10.921 -0.3809 -0.9063 -1.9128
 5056TIP3   OH236658   2.612   1.695  16.095 -0.3490 -0.1021  0.2210
 5056TIP3    H136659   2.612   1.711  16.189 -1.8006 -0.8254  0.3712
 5056TIP3    H236660   2.560   1.615  16.084 -0.9055  0.4257 -1.2450
 5057TIP3   OH236661   5.065   2.538   3.999  0.2582 -0.5929  0.0767
 5057TIP3    H136662   5.156   2.524   3.974  0.3772  2.9295 -2.1141
 5057TIP3    H236663   5.071   2.590   4.079  0.2307  0.1864 -0.4173
 5058TIP3   OH236664   5.007   4.745   4.078  0.4632 -0.0776  0.1104
 5058TIP3    H136665   4.986   4.834   4.048 -0.8725  0.7214  3.0398
 5058TIP3    H236666   5.064   4.758   4.153  0.9118 -1.7788  0.1005
 5059TIP3   OH236667   6.614   3.973  16.454 -0.0026  0.5569  0.0247
 5059TIP3    H136668   6.642   4.002  16.540  0.3347 -0.6160  0.3297
 5059TIP3    H236669   6.533   3.925  16.470  1.2451 -1.6884  0.0592
 5060TIP3   OH236670   6.317   1.976  14.577 -0.0592  0.8642 -0.5317
 5060TIP3    H136671   6.226   1.954  14.601  0.8280 -1.5039  1.1369
 5060TIP3    H236672   6.324   1.951  14.485 -0.8823  0.1212 -0.4177
 5061TIP3   OH236673   3.381   4.149   3.665 -0.3833 -0.1687 -0.0405
 5061TIP3    H136674   3.298   4.114   3.699 -0.8222  0.0551 -0.8634
 5061TIP3    H236675   3.355   4.205   3.592  0.4038  1.0163  0.5672
 5062TIP3   OH236676   5.705   6.201  15.373  0.0659 -0.3157  0.7390
 5062TIP3    H136677   5.693   6.259  15.298 -0.2485  0.4041  1.3270
 5062TIP3    H236678   5.778   6.145  15.349  0.2486  0.1983  0.0708
 5063TIP3   OH236679   1.873   5.272  16.370  0.0616  0.0481 -0.8884
 5063TIP3    H136680   1.780   5.295  16.383 -0.0228 -0.0936 -1.2439
 5063TIP3    H236681   1.871   5.192  16.317  0.3830 -0.1274 -0.6335
 5064TIP3   OH236682   2.081   5.516  14.380  0.0986 -0.5401  0.1471
 5064TIP3    H136683   2.092   5.608  14.356  1.5747 -0.5210  0.7705
 5064TIP3    H236684   2.096   5.468  14.298  1.3872 -0.2945  0.2058
 5065TIP3   OH236685   2.701   2.728  12.691  0.1558 -0.0968  0.3420
 5065TIP3    H136686   2.790   2.694  12.704 -0.2791 -2.0639 -1.3567
 5065TIP3    H236687   2.666   2.736  12.780  1.4161 -1.0167  0.9581
 5066TIP3   OH236688   1.650   0.157   0.792  0.5900 -0.0043 -0.1440
 5066TIP3    H136689   1.575   0.169   0.849  0.3048  1.2347 -0.7283
 5066TIP3    H236690   1.701   0.087   0.832 -0.2138  0.0229  0.9548
 5067TIP3   OH236691   4.855   3.285   5.492 -0.2921 -0.2982  0.2562
 5067TIP3    H136692   4.847   3.234   5.411 -0.2698  2.9321 -1.9426
 5067TIP3    H236693   4.881   3.372   5.464 -0.9013  1.1893  3.7396
 5068TIP3   OH236694   5.838   6.052   5.956 -0.1129  0.2851  0.1669
 5068TIP3    H136695   5.812   6.134   5.915  1.2107  0.9152  0.5456
 5068TIP3    H236696   5.835   6.069   6.050 -2.0713 -0.8279  0.3686
 5069TIP3   OH236697   5.531   2.390  16.897 -0.1402 -0.0105 -0.7088
 5069TIP3    H136698   5.509   2.423  16.985  0.7563  2.8332 -1.4356
 5069TIP3    H236699   5.626   2.391  16.895 -0.1546  0.5529 -1.8911
 5070TIP3   OH236700   1.845   3.950  14.106 -0.0614  0.8866  0.3369
 5070TIP3    H136701   1.860   4.039  14.138  3.1643  0.4861  0.2867
 5070TIP3    H236702   1.775   3.959  14.041 -2.7653  2.6115  3.2191
 5071TIP3   OH236703   5.201   6.394  11.776 -0.1723  0.1236  0.6110
 5071TIP3    H136704   5.214   6.489  11.777  1.2582 -0.0568  0.8350
 5071TIP3    H236705   5.200   6.369  11.868 -1.9661  0.0766  0.6042
 5072TIP3   OH236706   3.304   4.457  14.816  0.1534  0.1748  0.2780
 5072TIP3    H136707   3.260   4.486  14.736 -0.7023  0.8393  0.9808
 5072TIP3    H236708   3.248   4.486  14.887  0.7113 -0.7511  1.1235
 5073TIP3   OH236709   2.381   3.687   1.010 -0.3570 -0.1987  0.2242
 5073TIP3    H136710   2.296   3.723   1.035  0.3771  1.0736  0.9906
 5073TIP3    H236711   2.430   3.762   0.975  0.9844 -0.5660  1.2290
 5074TIP3   OH236712   5.739   1.633  16.247  0.2991 -0.5813 -0.4266
 5074TIP3    H136713   5.711   1.627  16.338 -2.2768 -0.4652 -1.1370
 5074TIP3    H236714   5.686   1.568  16.201  1.9461 -1.0405 -1.7977
 5075TIP3   OH236715   3.939   4.625   4.088 -0.2794  0.1899 -0.0704
 5075TIP3    H136716   3.946   4.709   4.135  0.2746  0.8696 -1.3157
 5075TIP3    H236717   4.010   4.573   4.124 -1.9368 -0.6199  2.2963
 5076TIP3   OH236718   2.810   5.591   2.126 -0.0267 -0.1303 -0.2828
 5076TIP3    H136719   2.761   5.517   2.162  1.8631 -0.2441  2.2760
 5076TIP3    H236720   2.888   5.551   2.087  0.3567  0.4071 -0.0727
 5077TIP3   OH236721   5.249   1.629   6.312  0.2552 -0.0424  0.0465
 5077TIP3    H136722   5.161   1.655   6.286  0.9520  0.3115 -2.1795
 5077TIP3    H236723   5.271   1.687   6.385 -1.3249 -0.1308  0.6279
 5078TIP3   OH236724   5.269   2.609  16.870 -0.9108  0.5843 -0.4799
 5078TIP3    H136725   5.338   2.588  16.807 -0.5349  1.5289 -0.3934
 5078TIP3    H236726   5.235   2.523  16.897 -0.0982  0.1235 -0.8740
 5079TIP3   OH236727   6.165   6.882  14.965  0.1539 -0.2533 -0.0411
 5079TIP3    H136728   6.191   6.892  15.057  0.1928 -1.6795  0.1292
 5079TIP3    H236729   6.238   6.836  14.924  0.8528  1.7549 -1.2043
 5080TIP3   OH236730   3.529   1.920  12.732 -0.2822  0.0590  0.1677
 5080TIP3    H136731   3.453   1.914  12.675 -0.0229  0.6805 -0.2525
 5080TIP3    H236732   3.493   1.940  12.819 -0.6066  0.1495  0.0106
 5081TIP3   OH236733   0.802   2.053  13.621 -0.1981  0.0124 -0.1800
 5081TIP3    H136734   0.725   2.040  13.677 -1.5513  1.2968 -1.6547
 5081TIP3    H236735   0.776   2.020  13.536 -0.8923  4.3348 -1.9279
 5082TIP3   OH236736   3.297   4.934   2.130  0.2126 -0.2110 -0.2671
 5082TIP3    H136737   3.318   4.904   2.218  0.9096  1.9012  0.3482
 5082TIP3    H236738   3.259   5.021   2.143  1.6742  0.7629 -2.1029
 5083TIP3   OH236739   6.191   5.950   1.961  0.4274  0.8091 -0.0133
 5083TIP3    H136740   6.102   5.927   1.934  0.5560  0.4355 -0.1277
 5083TIP3    H236741   6.234   5.866   1.978  0.2854  1.0247  1.6037
 5084TIP3   OH236742   5.559   2.138   0.033 -0.0316  0.0923  0.8064
 5084TIP3    H136743   5.487   2.160   0.092 -0.4748 -1.9474  1.0868
 5084TIP3    H236744   5.573   2.218  -0.018 -2.8011  0.4163  0.4049
 5085TIP3   OH236745   4.383   3.066   4.562  0.0022  0.2221  0.3688
 5085TIP3    H136746   4.311   3.047   4.502 -1.1248  0.7471  1.4943
 5085TIP3    H236747   4.429   2.983   4.572 -0.6947 -0.2279 -0.0707
 5086TIP3   OH236748   3.035   1.845  13.606 -0.1795  0.5922 -0.1435
 5086TIP3    H136749   2.999   1.906  13.541 -1.4300 -1.0692 -1.0912
 5086TIP3    H236750   3.124   1.827  13.574  0.0876  1.6195 -0.0350
 5087TIP3   OH236751   6.882   5.766  14.696  0.5380  0.3728 -0.4064
 5087TIP3    H136752   6.820   5.693  14.693 -0.5617  1.2795 -0.3197
 5087TIP3    H236753   6.850   5.828  14.630  0.3746  1.5984  0.7764
 5088TIP3   OH236754   6.832   2.306   1.746 -0.4116 -0.6010 -0.0843
 5088TIP3    H136755   6.884   2.258   1.811 -0.4218  0.4894  0.7721
 5088TIP3    H236756   6.749   2.325   1.790 -1.1531 -1.4457 -1.0875
 5089TIP3   OH236757   5.373   2.512  16.627 -0.0284  0.7158 -0.3493
 5089TIP3    H136758   5.296   2.465  16.596 -0.2081  0.5972  0.2648
 5089TIP3    H236759   5.371   2.595  16.579 -0.0981  0.3965 -0.9169
 5090TIP3   OH236760   6.836   4.337  12.598  0.2689 -0.5771  0.1713
 5090TIP3    H136761   6.856   4.269  12.533 -0.1910 -1.8739  1.3254
 5090TIP3    H236762   6.871   4.417  12.560 -0.1949 -1.2356 -1.7811
 5091TIP3   OH236763   0.250   6.389  14.788 -0.5860  0.1616  0.1307
 5091TIP3    H136764   0.235   6.341  14.869 -2.5610 -0.2251 -0.4028
 5091TIP3    H236765   0.315   6.337  14.741  0.0834  0.0394  1.1620
 5092TIP3   OH236766   4.296   1.080  15.649 -0.3163  0.7369 -0.4402
 5092TIP3    H136767   4.336   1.033  15.576  0.0282 -0.4604  0.4886
 5092TIP3    H236768   4.363   1.143  15.676 -0.0797  0.5461 -0.5771
 5093TIP3   OH236769   5.903   2.218   4.705 -0.2179  0.1212 -0.0437
 5093TIP3    H136770   5.846   2.285   4.669 -1.7003 -0.3873  1.2147
 5093TIP3    H236771   5.880   2.138   4.657 -0.0949  0.0505  0.0130
 5094TIP3   OH236772   0.891   4.390  11.504  0.5439 -0.3876 -0.3442
 5094TIP3    H136773   0.863   4.436  11.425 -0.7934 -0.2982  0.1527
 5094TIP3    H236774   0.937   4.455  11.556  2.1174 -0.6396 -1.3681
 5095TIP3   OH236775   4.005   1.254   4.911 -1.0973  0.2298 -0.4242
 5095TIP3    H136776   3.947   1.227   4.982  0.8296 -0.5720  0.8975
 5095TIP3    H236777   3.997   1.350   4.909 -2.3719  0.1494 -0.2397
 5096TIP3   OH236778   5.517   6.103   3.711 -0.0407  0.5497 -0.1076
 5096TIP3    H136779   5.488   6.074   3.798  0.8844 -1.5847 -0.4477
 5096TIP3    H236780   5.437   6.131   3.668 -1.2277 -2.2490  0.0549
 5097TIP3   OH236781   4.991   6.755   1.074 -0.1818  0.1113  0.2478
 5097TIP3    H136782   4.917   6.706   1.110  0.2729 -0.4900  0.3913
 5097TIP3    H236783   4.985   6.841   1.115 -1.7761  0.6543 -1.0222
 5098TIP3   OH236784   4.662   3.239   0.866  0.3259 -0.1298  0.4318
 5098TIP3    H136785   4.637   3.177   0.797  0.8341 -0.8020  0.8369
 5098TIP3    H236786   4.591   3.234   0.929 -1.3101  2.1741 -1.0509
 5099TIP3   OH236787   1.423   3.722  12.926  0.5507  0.2982  0.5317
 5099TIP3    H136788   1.499   3.684  12.970 -0.5323 -0.5638  1.7253
 5099TIP3    H236789   1.419   3.812  12.957  0.5572  0.0735  1.1953
 5100TIP3   OH236790   3.241   6.458  15.232  0.2871  0.5856  0.0181
 5100TIP3    H136791   3.155   6.443  15.193 -0.6801  2.7344  1.1193
 5100TIP3    H236792   3.257   6.552  15.219  1.8167  0.5161  1.0916
 5101TIP3   OH236793   2.634   0.462   1.882 -0.1087  0.0029  0.1133
 5101TIP3    H136794   2.588   0.435   1.961  0.8400 -0.6141  0.4741
 5101TIP3    H236795   2.718   0.416   1.886 -0.3541 -0.6691 -1.6578
 5102TIP3   OH236796   4.117   2.986  12.437  0.0637 -0.3458 -0.1826
 5102TIP3    H136797   4.053   2.989  12.509 -1.4232  2.6569 -1.4325
 5102TIP3    H236798   4.096   2.906  12.390 -2.4652  0.2139 -0.1680
 5103TIP3   OH236799   1.196   5.052   3.584  0.3171 -0.6199  0.2417
 5103TIP3    H136800   1.126   5.117   3.593 -0.2856 -1.3062  0.6311
 5103TIP3    H236801   1.259   5.093   3.525 -1.3478 -0.7415 -1.7374
 5104TIP3   OH236802   5.707   3.544   3.755 -0.5614 -0.3088 -0.3936
 5104TIP3    H136803   5.676   3.454   3.753  0.5408 -0.6828 -1.7505
 5104TIP3    H236804   5.682   3.576   3.842 -3.0311 -1.1513 -0.6992
 5105TIP3   OH236805   1.505   5.276  13.951 -0.0688 -0.3888  0.2113
 5105TIP3    H136806   1.420   5.248  13.918 -1.7425  1.8727  2.2215
 5105TIP3    H236807   1.516   5.365  13.919  2.0872 -0.9507 -0.8302
 5106TIP3   OH236808   5.858   2.869  12.841 -0.9553 -0.1645  0.1729
 5106TIP3    H136809   5.787   2.848  12.902 -1.0882 -0.2523 -0.0121
 5106TIP3    H236810   5.931   2.894  12.898 -0.2508 -2.7179  0.4891
 5107TIP3   OH236811   0.956   3.936  14.323  0.3543 -0.1699  0.6949
 5107TIP3    H136812   0.941   3.842  14.331 -2.1263  0.2496  1.7742
 5107TIP3    H236813   0.953   3.968  14.413 -0.8124  1.1705  0.2095
 5108TIP3   OH236814   5.241   0.455   2.098  0.7005  0.5275  0.0816
 5108TIP3    H136815   5.174   0.386   2.092 -0.8855  1.7762  2.1298
 5108TIP3    H236816   5.242   0.495   2.012  0.2403 -0.7694 -0.5554
 5109TIP3   OH236817   6.739   4.179  14.943  0.7046 -0.1562  0.0066
 5109TIP3    H136818   6.652   4.218  14.937  0.2842 -0.7628  1.6487
 5109TIP3    H236819   6.790   4.244  14.992  1.1728  0.1661 -0.8896
 5110TIP3   OH236820   5.962   6.126  16.162  0.0623  0.7429  0.1360
 5110TIP3    H136821   5.897   6.056  16.150  1.4813 -0.4190 -1.3276
 5110TIP3    H236822   5.930   6.199  16.110 -0.6256  0.5889  0.3414
 5111TIP3   OH236823   6.605   5.073  14.366  0.0316 -0.4332  0.2838
 5111TIP3    H136824   6.610   5.139  14.297 -0.6403  0.4071  1.0003
 5111TIP3    H236825   6.616   4.990  14.321  0.7461  0.1544 -0.6676
 5112TIP3   OH236826   1.953   5.155  11.667 -0.0902 -0.2214 -0.0722
 5112TIP3    H136827   1.956   5.160  11.571 -1.2462 -0.7249 -0.1518
 5112TIP3    H236828   2.023   5.213  11.696  0.2026  0.0298 -1.2185
 5113TIP3   OH236829   6.565   0.847   4.122  0.7548 -0.0418 -0.3038
 5113TIP3    H136830   6.521   0.840   4.207 -0.3217  3.5463 -0.3792
 5113TIP3    H236831   6.658   0.851   4.143  0.4538  2.0277  0.9584
 5114TIP3   OH236832   2.010   0.932  15.361 -0.0572  0.0232 -0.5481
 5114TIP3    H136833   2.001   1.021  15.394 -1.4787 -0.2467 -0.1527
 5114TIP3    H236834   1.997   0.939  15.266  0.5474  0.3238 -0.6116
 5115TIP3   OH236835   3.235   5.146  11.587 -0.0801  0.4023  0.1806
 5115TIP3    H136836   3.213   5.213  11.522  0.2314  0.1665 -0.1672
 5115TIP3    H236837   3.264   5.071  11.536 -0.6044 -0.0681  0.5663
 5116TIP3   OH236838   3.613   1.047  13.923  0.3539 -0.0627  0.0521
 5116TIP3    H136839   3.562   1.054  13.843  0.8947 -0.9706 -0.3869
 5116TIP3    H236840   3.584   0.966  13.964 -0.1003  0.5217  0.9239
 5117TIP3   OH236841   1.081   6.019  13.776  0.1741 -0.0543  0.4057
 5117TIP3    H136842   1.162   6.069  13.788  0.3307  0.1274 -1.2024
 5117TIP3    H236843   1.012   6.079  13.803  0.4793  0.3744  0.2464
 5118TIP3   OH236844   2.068   4.796  15.007 -0.1153  0.1388  0.0587
 5118TIP3    H136845   2.004   4.868  15.006 -0.7969 -0.4388 -1.8102
 5118TIP3    H236846   2.090   4.785  15.100 -1.9831  1.0234  0.6605
 5119TIP3   OH236847   1.035   1.266  15.005  0.7634 -0.1858  0.1730
 5119TIP3    H136848   1.063   1.317  14.929  1.8064  0.1972  0.7946
 5119TIP3    H236849   0.940   1.275  15.007  1.0012  3.6258  1.5565
 5120TIP3   OH236850   6.834   6.052   1.117 -0.4189 -0.1122 -0.2062
 5120TIP3    H136851   6.873   6.096   1.041 -0.7676  0.8275  0.1490
 5120TIP3    H236852   6.885   5.972   1.127  1.7138  1.2531  0.4905
 5121TIP3   OH236853   5.705   3.049  13.676 -0.5385 -0.0821  0.1041
 5121TIP3    H136854   5.699   2.960  13.640  1.7908 -0.2709  0.0822
 5121TIP3    H236855   5.666   3.104  13.608  1.2971 -0.7354 -1.5640
 5122TIP3   OH236856   6.412   6.745  12.369  0.6425  0.1151 -0.2573
 5122TIP3    H136857   6.396   6.838  12.352 -0.6901 -0.1089 -0.3779
 5122TIP3    H236858   6.453   6.713  12.289  0.8038  0.5285 -0.3426
 5123TIP3   OH236859   0.589   2.205   3.179 -0.5124  0.0251  0.1867
 5123TIP3    H136860   0.533   2.271   3.221 -0.1192 -0.8518  2.2548
 5123TIP3    H236861   0.527   2.139   3.148 -0.7494 -0.0673  0.8263
 5124TIP3   OH236862   0.467   6.644  11.947 -0.1978 -0.4717  0.2249
 5124TIP3    H136863   0.377   6.664  11.970 -0.0237  0.6211 -0.0076
 5124TIP3    H236864   0.465   6.631  11.852 -0.1791 -0.8458  0.2750
 5125TIP3   OH236865   4.221   2.447  12.313  0.0825 -0.1230 -0.1548
 5125TIP3    H136866   4.166   2.504  12.368 -0.4191 -0.8385  0.0931
 5125TIP3    H236867   4.300   2.433  12.366  0.7062  1.2319 -0.6772
 5126TIP3   OH236868   5.543   0.010  12.512  0.6951 -0.5275 -0.5373
 5126TIP3    H136869   5.463   0.051  12.479  0.3869 -0.7329 -0.0582
 5126TIP3    H236870   5.573  -0.047  12.441  1.0501  0.4042 -1.1613
 5127TIP3   OH236871   2.613   3.637   7.099  0.0658  0.5225  0.3125
 5127TIP3    H136872   2.662   3.554   7.098  1.7473  1.4517  1.0557
 5127TIP3    H236873   2.651   3.688   7.027 -0.3419  0.9929  0.4249
 5128TIP3   OH236874   0.340   3.249  13.659 -0.1344 -0.2069  0.0518
 5128TIP3    H136875   0.370   3.271  13.748 -2.5770 -2.9237  1.7334
 5128TIP3    H236876   0.353   3.154  13.653 -0.2367 -0.1098 -2.4621
 5129TIP3   OH236877   3.623   2.230  12.795  0.3726  0.2506 -0.1221
 5129TIP3    H136878   3.589   2.157  12.743  0.0350  0.0817  0.3309
 5129TIP3    H236879   3.546   2.284  12.815 -0.1736 -1.4392  3.0252
 5130TIP3   OH236880   0.457   4.183  10.963 -0.2131  0.0047  0.3907
 5130TIP3    H136881   0.418   4.136  10.889 -0.8262  2.0031 -0.6241
 5130TIP3    H236882   0.533   4.227  10.926  0.9951 -1.0105  1.5795
 5131TIP3   OH236883   6.515   3.372  14.167 -0.5132  0.0026 -0.3219
 5131TIP3    H136884   6.598   3.418  14.172  0.1653 -1.1200 -1.0410
 5131TIP3    H236885   6.449   3.442  14.171  0.3321  0.8073  2.5483
 5132TIP3   OH236886   1.219   3.268   2.747 -0.2511  0.0129 -1.2629
 5132TIP3    H136887   1.264   3.184   2.759  1.0795  0.5730 -2.1533
 5132TIP3    H236888   1.288   3.329   2.721 -1.3876  1.1255 -1.7583
 5133TIP3   OH236889   6.067   6.534  16.004 -0.2291 -0.3554  0.1352
 5133TIP3    H136890   6.030   6.591  15.937 -0.0089  0.4930  0.7148
 5133TIP3    H236891   6.080   6.450  15.960 -0.7541 -0.0205 -0.6792
 5134TIP3   OH236892   0.251   1.093   5.150  0.5955 -0.7352 -0.2043
 5134TIP3    H136893   0.217   1.115   5.064  1.4704 -0.6914 -0.5479
 5134TIP3    H236894   0.227   1.001   5.163 -1.0168 -0.2745  0.2379
 5135TIP3   OH236895   4.062   3.119  14.136  0.0331 -0.2159  0.0078
 5135TIP3    H136896   4.108   3.203  14.143  0.1672 -0.3022  0.1791
 5135TIP3    H236897   4.116   3.068  14.076  0.1365 -0.2990  0.1693
 5136TIP3   OH236898   6.153   4.991   2.787 -0.2388 -0.3231  0.4331
 5136TIP3    H136899   6.069   4.952   2.810  0.1521 -0.6111  1.4201
 5136TIP3    H236900   6.154   4.990   2.691 -1.2312 -0.5762  0.4090
 5137TIP3   OH236901   2.979   0.056  14.585  0.4734  0.3765  0.4176
 5137TIP3    H136902   3.045  -0.003  14.548  1.2618  1.8010 -0.5352
 5137TIP3    H236903   2.990   0.138  14.537 -2.4308  0.5095 -0.2015
 5138TIP3   OH236904   2.292   1.605  12.394  0.0084 -0.7371 -0.0558
 5138TIP3    H136905   2.296   1.688  12.347  0.4802 -1.1713 -0.8131
 5138TIP3    H236906   2.317   1.626  12.483 -3.9739  0.7308  0.9238
 5139TIP3   OH236907   4.849   6.556  16.816  0.4141 -0.4606 -0.3641
 5139TIP3    H136908   4.925   6.610  16.797  0.7117 -0.2547  1.2902
 5139TIP3    H236909   4.776   6.602  16.774  0.7740  0.8324  0.3844
 5140TIP3   OH236910   3.854   6.858   2.014  0.2140 -0.4153 -0.1410
 5140TIP3    H136911   3.760   6.845   2.025  0.4544 -0.4524  2.4091
 5140TIP3    H236912   3.866   6.953   2.014  0.3422 -0.3823  2.0072
 5141TIP3   OH236913   1.039   0.764   3.865 -0.1825  0.1228 -0.7056
 5141TIP3    H136914   1.105   0.820   3.825 -0.1528 -0.1595 -1.0577
 5141TIP3    H236915   1.044   0.682   3.816 -1.0282  0.2176 -0.9720
 5142TIP3   OH236916   3.587   1.047  15.581  0.2110 -0.3666 -0.9301
 5142TIP3    H136917   3.665   0.999  15.555 -0.3012 -0.9304 -1.4675
 5142TIP3    H236918   3.620   1.120  15.633  1.1294 -0.3221 -1.5488
 5143TIP3   OH236919   5.592   4.300  11.091 -0.2963  0.8116  0.1011
 5143TIP3    H136920   5.614   4.382  11.048 -2.7921  1.0928 -0.7710
 5143TIP3    H236921   5.572   4.239  11.020 -1.0362  0.2311  0.7816
 5144TIP3   OH236922   0.723   2.983   5.652  0.4183  0.5563  1.0998
 5144TIP3    H136923   0.679   3.054   5.604  1.1860  1.1927  1.3168
 5144TIP3    H236924   0.687   2.990   5.741 -1.9356 -1.3983  0.4221
 5145TIP3   OH236925   0.817   2.772  12.635 -0.3614 -0.6946  0.2391
 5145TIP3    H136926   0.862   2.819  12.565 -3.3278 -1.5388 -2.4429
 5145TIP3    H236927   0.870   2.693  12.648  0.2308 -0.5462 -1.1104
 5146TIP3   OH236928   2.904   5.694  11.103  0.4253  0.3693  0.4920
 5146TIP3    H136929   2.938   5.756  11.167 -3.4115  1.6405  1.5634
 5146TIP3    H236930   2.889   5.746  11.025 -0.9768  0.3921  0.7534
 5147TIP3   OH236931   1.842   5.573  11.016  0.3976 -0.0841 -0.1273
 5147TIP3    H136932   1.856   5.624  10.937  0.1701 -1.2419 -0.9433
 5147TIP3    H236933   1.778   5.623  11.067  2.8470  2.3093  0.8908
 5148TIP3   OH236934   6.741   6.023  16.954  0.4127 -0.5080  0.1537
 5148TIP3    H136935   6.666   5.979  16.915  0.3280  0.0101 -0.2796
 5148TIP3    H236936   6.817   5.971  16.925  0.0964 -2.5108  2.6112
 5149TIP3   OH236937   5.479   4.102   4.089 -0.1498 -0.3139 -0.2232
 5149TIP3    H136938   5.482   4.198   4.081  2.5781 -0.3191 -0.0376
 5149TIP3    H236939   5.495   4.070   4.001 -1.0321 -0.6349 -0.2804
 5150TIP3   OH236940   0.653   4.294   3.778  0.0913 -0.1538  0.3421
 5150TIP3    H136941   0.579   4.266   3.832  0.0284  0.6099  0.6760
 5150TIP3    H236942   0.699   4.358   3.833  0.1508  0.4723 -0.4173
 5151TIP3   OH236943   0.160   6.670   5.760  0.3884 -0.3596  0.9871
 5151TIP3    H136944   0.135   6.578   5.755 -1.5699  0.1131  1.2608
 5151TIP3    H236945   0.149   6.693   5.852  0.9406  0.1572  0.9350
 5152TIP3   OH236946   1.577   2.058  16.649  0.2038 -0.1017  0.1131
 5152TIP3    H136947   1.530   2.075  16.731 -0.0459  1.2138 -0.2822
 5152TIP3    H236948   1.547   2.127  16.589 -0.4092 -1.6399 -1.4361
 5153TIP3   OH236949   6.300   0.577  15.407 -0.4588 -0.4271  0.3946
 5153TIP3    H136950   6.215   0.572  15.364  0.9147  2.0747 -3.0503
 5153TIP3    H236951   6.295   0.655  15.463  0.3296  1.5342 -2.1046
 5154TIP3   OH236952   2.760   6.707  11.057 -0.0536  0.3028 -0.0484
 5154TIP3    H136953   2.794   6.706  10.967  2.1189 -3.1727  0.6132
 5154TIP3    H236954   2.838   6.699  11.112 -1.4404  0.6327  2.0959
 5155TIP3   OH236955   6.579   3.623  11.214 -0.3814 -0.2893 -0.3304
 5155TIP3    H136956   6.510   3.671  11.168 -1.4134 -2.4658 -1.2338
 5155TIP3    H236957   6.660   3.655  11.176 -0.9971  0.9082 -0.6946
 5156TIP3   OH236958   1.711   2.836   3.955  0.3907  0.3179  0.0450
 5156TIP3    H136959   1.679   2.839   3.865  1.2895  1.5723 -0.2697
 5156TIP3    H236960   1.698   2.745   3.983  0.3366 -0.1532 -1.4366
 5157TIP3   OH236961   3.051   2.413   2.506  0.4463 -0.2979  0.1721
 5157TIP3    H136962   2.976   2.380   2.557 -1.3938 -1.1863 -2.8415
 5157TIP3    H236963   3.123   2.355   2.529 -0.1209 -0.3102  2.1059
 5158TIP3   OH236964   4.739   1.765  12.426  0.3357  0.4401 -0.0396
 5158TIP3    H136965   4.740   1.733  12.516 -1.5090 -1.0211 -0.4747
 5158TIP3    H236966   4.694   1.696  12.376  0.4088  1.6578 -1.9036
 5159TIP3   OH236967   1.954   5.245   4.795  0.3613  0.2148  0.4762
 5159TIP3    H136968   1.891   5.304   4.754  0.4607  0.6498  0.9377
 5159TIP3    H236969   2.035   5.297   4.803  0.7758 -0.3346 -0.1016
 5160TIP3   OH236970   5.599   5.369  13.305 -0.1641  0.6048  0.6565
 5160TIP3    H136971   5.506   5.374  13.282 -0.2861  0.5743  1.1338
 5160TIP3    H236972   5.632   5.294  13.256 -0.5912  0.0886  1.1462
 5161TIP3   OH236973   1.415   2.052   1.784  0.2338  0.1113  0.3437
 5161TIP3    H136974   1.328   2.054   1.743  0.4938 -0.7689 -0.2561
 5161TIP3    H236975   1.448   1.964   1.769  0.5165 -0.1216  2.1089
 5162TIP3   OH236976   5.269   1.611   3.561 -0.2331 -0.0777 -0.2286
 5162TIP3    H136977   5.208   1.657   3.618 -2.1969 -1.0660 -1.4147
 5162TIP3    H236978   5.353   1.655   3.575 -0.5896 -0.2880  3.3581
 5163TIP3   OH236979   5.653   2.309  14.250  0.0145 -0.0731 -0.0652
 5163TIP3    H136980   5.655   2.374  14.180  0.1665  0.1438  0.1338
 5163TIP3    H236981   5.638   2.361  14.330  0.0612 -0.2910  0.0861
 5164TIP3   OH236982   3.610   1.871   4.430  0.8302  0.2923  0.5667
 5164TIP3    H136983   3.562   1.951   4.449  2.1150  1.3498 -0.4979
 5164TIP3    H236984   3.702   1.896   4.436  1.2937 -0.3808 -2.4671
 5165TIP3   OH236985   0.993   2.491  13.597 -0.0976 -0.4143 -0.1722
 5165TIP3    H136986   0.970   2.439  13.675  0.0636  0.5952  0.5655
 5165TIP3    H236987   1.075   2.453  13.566  0.8016  0.3044  1.2291
 5166TIP3   OH236988   4.614   3.155   3.017  0.3226  0.1681 -0.3425
 5166TIP3    H136989   4.552   3.095   2.977  0.1892  0.9603 -1.3586
 5166TIP3    H236990   4.681   3.099   3.056 -0.0911 -0.6469 -0.7908
 5167TIP3   OH236991   1.465   2.605   0.567 -0.1633 -0.5697  0.4960
 5167TIP3    H136992   1.441   2.543   0.636 -0.0136 -0.0439  1.0321
 5167TIP3    H236993   1.388   2.610   0.510 -0.5898 -0.4048  1.0792
 5168TIP3   OH236994   3.278   4.763  12.025  0.1072 -0.0591  0.2846
 5168TIP3    H136995   3.299   4.797  11.937  0.9226  2.7427  1.4376
 5168TIP3    H236996   3.204   4.817  12.054  1.0049  0.3108  1.9938
 5169TIP3   OH236997   2.385   5.544   3.920  0.0614 -0.0207 -0.3884
 5169TIP3    H136998   2.351   5.459   3.947 -3.6656 -0.0006 -3.9851
 5169TIP3    H236999   2.322   5.607   3.954  1.3388  1.0726  0.0483
 5170TIP3   OH237000   3.273   4.720  13.729 -0.5511 -0.1721 -0.1040
 5170TIP3    H137001   3.183   4.690  13.713 -1.0261  0.7112  0.8391
 5170TIP3    H237002   3.311   4.652  13.785 -0.6764 -0.4605 -0.3633
 5171TIP3   OH237003   4.792   6.578   1.881  0.0747 -0.0043 -0.4126
 5171TIP3    H137004   4.858   6.638   1.915 -0.9076  1.7136 -1.4226
 5171TIP3    H237005   4.825   6.553   1.794 -0.0748 -0.0028 -0.4701
 5172TIP3   OH237006   5.410   3.527   1.153  0.0790  0.4269 -0.1832
 5172TIP3    H137007   5.317   3.542   1.136 -0.0959 -1.0720 -0.6915
 5172TIP3    H237008   5.432   3.589   1.222 -0.9466  1.7778 -1.0131
 5173TIP3   OH237009   6.336   5.628   0.272 -0.3026 -0.4063  0.0855
 5173TIP3    H137010   6.245   5.651   0.293 -0.7395 -0.5690 -1.4737
 5173TIP3    H237011   6.359   5.685   0.199 -0.0149 -2.0352 -1.1596
 5174TIP3   OH237012   3.752   4.163  12.744 -0.4356  0.0784 -0.0892
 5174TIP3    H137013   3.751   4.124  12.656 -0.4300 -0.4867  0.1570
 5174TIP3    H237014   3.661   4.158  12.773 -0.0068 -2.4644  1.1016
 5175TIP3   OH237015   6.699   5.377  16.014  0.0667 -0.7560  0.3708
 5175TIP3    H137016   6.713   5.328  15.933 -0.5326 -0.9359  0.3739
 5175TIP3    H237017   6.778   5.361  16.066  0.6321 -0.3180 -0.3332
 5176TIP3   OH237018   4.913   5.895  15.142 -0.0683  0.4525 -0.1219
 5176TIP3    H137019   4.925   5.968  15.203 -0.8709  0.8232 -0.3962
 5176TIP3    H237020   4.829   5.856  15.167 -0.4015  0.5965 -0.9592
 5177TIP3   OH237021   6.688   2.882  14.064 -0.3955  0.3068 -0.1534
 5177TIP3    H137022   6.636   2.952  14.024 -0.2651 -0.0056 -0.8844
 5177TIP3    H237023   6.626   2.835  14.119 -0.5532  0.8141  0.1086
 5178TIP3   OH237024   3.511   4.509   0.420  0.1276 -0.6872  0.0174
 5178TIP3    H137025   3.606   4.503   0.428  0.1578  0.4892  0.7444
 5178TIP3    H237026   3.484   4.568   0.490 -1.2092 -1.4101  0.1627
 5179TIP3   OH237027   6.460   2.168   0.538 -0.5650 -0.4111  1.1183
 5179TIP3    H137028   6.512   2.245   0.560  0.0521 -0.1995 -0.8854
 5179TIP3    H237029   6.479   2.105   0.608 -0.8332  1.0989  2.6162
 5180TIP3   OH237030   2.224   3.486  14.192 -0.7175  0.1733 -0.2487
 5180TIP3    H137031   2.258   3.546  14.126  1.6463 -3.1492 -2.4049
 5180TIP3    H237032   2.300   3.434  14.218 -2.5115 -1.6965  1.6568
 5181TIP3   OH237033   2.080   5.421  16.175  1.1408 -0.4518 -0.0828
 5181TIP3    H137034   2.018   5.400  16.245 -0.6556 -0.5759 -1.6309
 5181TIP3    H237035   2.160   5.374  16.198 -0.0965 -2.2023  0.8092
 5182TIP3   OH237036   3.192   1.188   2.792  0.8633 -0.0318  0.3381
 5182TIP3    H137037   3.106   1.146   2.798  1.0358 -0.3666  0.5145
 5182TIP3    H237038   3.217   1.206   2.883  0.2220  1.6624  0.2171
 5183TIP3   OH237039   5.435   3.125  16.840 -0.6280 -0.7428  0.1565
 5183TIP3    H137040   5.376   3.158  16.908 -1.2501 -0.8787 -0.3105
 5183TIP3    H237041   5.518   3.112  16.885 -0.4298  1.1809  0.4208
 5184TIP3   OH237042   3.444   3.611  13.817  0.0224 -0.2972 -0.1634
 5184TIP3    H137043   3.507   3.543  13.794  2.1789  1.2170  0.8784
 5184TIP3    H237044   3.380   3.567  13.873  1.3635 -1.4723  0.5053
 5185TIP3   OH237045   6.360   4.901   5.919  0.1636 -0.3608  0.7827
 5185TIP3    H137046   6.417   4.974   5.942 -1.8786  1.1869  1.2975
 5185TIP3    H237047   6.388   4.830   5.976  1.0905  0.5742  1.5439
 5186TIP3   OH237048   1.192   0.144  13.924  0.0245  1.1550  0.0815
 5186TIP3    H137049   1.223   0.131  13.835  1.3815  1.3906  0.4997
 5186TIP3    H237050   1.137   0.222  13.920  1.0798  1.8909 -0.3281
 5187TIP3   OH237051   4.956   6.186  16.848  0.4288  0.2197  0.0026
 5187TIP3    H137052   4.930   6.163  16.758  0.4040  0.6780 -0.1103
 5187TIP3    H237053   4.903   6.129  16.903  0.4639 -0.0877 -0.2752
 5188TIP3   OH237054   3.674   3.074  16.026 -0.0924  0.6349 -0.5325
 5188TIP3    H137055   3.731   3.040  15.957 -0.4648  0.1847 -0.6184
 5188TIP3    H237056   3.604   3.009  16.035  1.0719 -0.4173  1.7674
 5189TIP3   OH237057   4.114   4.062   0.036 -0.2356  0.1571 -0.0674
 5189TIP3    H137058   4.198   4.018   0.048 -0.0654  1.0727  2.7943
 5189TIP3    H237059   4.137   4.152   0.016 -0.4218  0.8475  2.5238
 5190TIP3   OH237060   5.879   6.186  13.338  0.2081 -0.2756 -0.0753
 5190TIP3    H137061   5.966   6.146  13.338  0.3472 -0.3219  3.5747
 5190TIP3    H237062   5.893   6.275  13.370 -1.0207 -0.1898  0.2966
 5191TIP3   OH237063   3.727   3.588  13.616 -0.0226  0.1841 -0.5870
 5191TIP3    H137064   3.814   3.579  13.576 -0.7407 -1.1539 -1.9244
 5191TIP3    H237065   3.745   3.628  13.701  1.8625  0.3461 -1.0042
 5192TIP3   OH237066   0.296   5.432  10.842 -0.5224  0.1960  0.8477
 5192TIP3    H137067   0.237   5.358  10.861 -1.4666  1.1404  1.7271
 5192TIP3    H237068   0.249   5.509  10.876  1.5505  0.9025  2.2873
 5193TIP3   OH237069   3.451   1.129   1.105  0.2451 -0.1035  0.1852
 5193TIP3    H137070   3.530   1.174   1.076  0.9928 -0.8917  0.9087
 5193TIP3    H237071   3.386   1.148   1.038  0.5118  2.0260  0.4655
 5194TIP3   OH237072   0.947   3.459   3.132  0.2972 -0.0887 -0.0152
 5194TIP3    H137073   0.944   3.378   3.182  0.8409 -0.5607 -0.7192
 5194TIP3    H237074   1.010   3.441   3.061  0.7556  1.0852  0.0688
 5195TIP3   OH237075   6.846   5.323  13.977 -0.0705  0.0071 -0.0303
 5195TIP3    H137076   6.902   5.268  13.923  0.0366 -0.4577  0.5457
 5195TIP3    H237077   6.897   5.339  14.057 -0.6290 -0.1641  0.3666
 5196TIP3   OH237078   5.401   4.208   5.971  0.3873 -0.7639 -0.2901
 5196TIP3    H137079   5.475   4.262   5.997 -1.1740  0.9434  0.8573
 5196TIP3    H237080   5.440   4.132   5.928  2.7327  0.5180 -0.5707
 5197TIP3   OH237081   0.528   5.174   5.551 -0.3953 -0.3243  0.2166
 5197TIP3    H137082   0.532   5.123   5.470  1.2066 -1.0200  0.6852
 5197TIP3    H237083   0.510   5.109   5.619  2.4899 -0.5442  0.9411
 5198TIP3   OH237084   6.219   1.748   1.760 -0.6554 -0.3543 -0.1562
 5198TIP3    H137085   6.154   1.805   1.719  0.5752  1.5771  0.4331
 5198TIP3    H237086   6.193   1.659   1.735 -0.3520  0.5903 -4.6882
 5199TIP3   OH237087   0.606   2.748  16.190  0.4701 -0.2737  0.1484
 5199TIP3    H137088   0.519   2.758  16.150  0.3747  1.2334  0.6783
 5199TIP3    H237089   0.665   2.731  16.117  0.2035  1.8256 -0.5909
 5200TIP3   OH237090   0.815   2.945  14.447  0.0825 -0.1413  0.3152
 5200TIP3    H137091   0.860   2.915  14.527  2.1890  0.6138 -0.5059
 5200TIP3    H237092   0.741   2.997  14.479 -0.8472 -2.1919  1.7370
 5201TIP3   OH237093   4.442   1.652   4.414 -0.2478 -0.4686  0.3354
 5201TIP3    H137094   4.424   1.605   4.333  0.3473 -0.6264  0.2910
 5201TIP3    H237095   4.458   1.743   4.387  2.1019 -0.9320  0.0120
 5202TIP3   OH237096   5.737   6.452   4.049 -0.1279 -0.0043 -0.1718
 5202TIP3    H137097   5.797   6.487   3.983  0.9751 -0.2467  0.6703
 5202TIP3    H237098   5.785   6.458   4.132 -2.9364  4.3476  1.5027
 5203TIP3   OH237099   0.105   2.532  11.641 -0.8270 -0.5488  0.7737
 5203TIP3    H137100   0.165   2.605  11.629  0.1203 -0.9274  2.7601
 5203TIP3    H237101   0.148   2.458  11.599 -1.0703 -0.3004  0.0788
 5204TIP3   OH237102   2.156   5.115  12.275 -0.1380 -0.0774  0.1529
 5204TIP3    H137103   2.082   5.153  12.228 -0.4928 -1.6354 -0.6166
 5204TIP3    H237104   2.130   5.120  12.367 -1.1184 -0.4128 -0.0908
 5205TIP3   OH237105   0.249   4.111   5.408 -0.0617  0.0961  0.0095
 5205TIP3    H137106   0.185   4.121   5.337 -0.9558 -0.3424  0.7301
 5205TIP3    H237107   0.329   4.082   5.364 -1.0149 -1.6158 -0.6956
 5206TIP3   OH237108   2.049   0.956   5.709  0.3970  0.3951  0.4780
 5206TIP3    H137109   1.994   1.034   5.715  1.2236  1.0102  0.3005
 5206TIP3    H237110   2.138   0.988   5.724  0.9001 -0.3027 -0.8415
 5207TIP3   OH237111   0.959   4.595   0.339  0.1378 -0.2276  0.1310
 5207TIP3    H137112   0.993   4.507   0.322 -0.0715 -0.4363  0.7738
 5207TIP3    H237113   1.037   4.650   0.345  0.2794 -0.4033 -0.0857
 5208TIP3   OH237114   3.285   2.424   0.135  0.2213 -0.1297  0.1105
 5208TIP3    H137115   3.233   2.423   0.215  0.3638  1.8836  0.2948
 5208TIP3    H237116   3.362   2.371   0.156  0.1694  0.2191  1.2571
 5209TIP3   OH237117   3.909   1.539  12.146  0.0469 -0.5242  0.5971
 5209TIP3    H137118   4.000   1.537  12.114 -0.0609  0.1932  0.2142
 5209TIP3    H237119   3.911   1.601  12.219  0.2144 -1.8815  1.7752
 5210TIP3   OH237120   2.363   4.327  14.296 -0.6791 -0.4583 -0.6883
 5210TIP3    H137121   2.273   4.332  14.330 -0.4686 -1.6732  0.1291
 5210TIP3    H237122   2.352   4.317  14.201 -1.4718 -1.5597 -0.5105
 5211TIP3   OH237123   4.470   5.928   4.085  0.1107 -0.2455  0.0552
 5211TIP3    H137124   4.565   5.939   4.095  0.0352 -1.2630  2.3351
 5211TIP3    H237125   4.435   6.016   4.102  0.5870  0.0077 -0.2245
 5212TIP3   OH237126   2.914   2.724   4.141  0.2508 -0.3091  0.0001
 5212TIP3    H137127   2.922   2.664   4.066 -0.7405 -0.6718  0.1726
 5212TIP3    H237128   2.974   2.689   4.207  0.1175 -0.7643 -0.1201
 5213TIP3   OH237129   1.265   2.319   0.994  0.2418  0.2892  0.3311
 5213TIP3    H137130   1.172   2.330   0.977  0.4216  2.6731  0.5804
 5213TIP3    H237131   1.287   2.235   0.954 -1.9570 -0.2423  0.1213
 5214TIP3   OH237132   6.418   4.515  14.235 -0.1229 -0.3989 -0.2636
 5214TIP3    H137133   6.507   4.517  14.270 -0.5150 -1.1511  0.8601
 5214TIP3    H237134   6.384   4.429  14.262 -1.1728 -0.1343 -0.6855
 5215TIP3   OH237135   3.233   4.305   1.753  0.5582  0.0900  0.3468
 5215TIP3    H137136   3.159   4.289   1.811  0.5433 -1.2047  0.0092
 5215TIP3    H237137   3.193   4.321   1.667  0.6526 -1.3700 -0.0017
 5216TIP3   OH237138   2.630   6.512  13.931  0.1984  0.2231  0.0323
 5216TIP3    H137139   2.652   6.423  13.902  1.8575  0.5596  0.1437
 5216TIP3    H237140   2.627   6.506  14.027 -3.2065 -0.4312 -0.0048
 5217TIP3   OH237141   6.184   3.054   2.322 -0.3283  0.4517 -0.1039
 5217TIP3    H137142   6.125   3.122   2.353 -2.5853 -1.3512 -0.1046
 5217TIP3    H237143   6.241   3.035   2.397 -1.4072  0.5736  0.7740
 5218TIP3   OH237144   5.008   0.286  11.587  0.4737 -0.7178 -0.4842
 5218TIP3    H137145   4.948   0.276  11.514 -0.4714 -1.4759  0.3740
 5218TIP3    H237146   4.960   0.338  11.651  0.6731 -1.4379  0.2640
 5219TIP3   OH237147   6.679   4.156  16.214  0.3813 -0.3155 -0.0785
 5219TIP3    H137148   6.635   4.123  16.292  1.3088 -0.1504  0.5302
 5219TIP3    H237149   6.609   4.167  16.149 -0.7234  1.3039  1.3024
 5220TIP3   OH237150   4.392   0.903  12.119  0.7171 -0.1656  0.0844
 5220TIP3    H137151   4.411   0.813  12.144 -0.8761 -0.5940 -0.1655
 5220TIP3    H237152   4.453   0.921  12.047 -1.2633 -2.2819 -2.2968
 5221TIP3   OH237153   1.246   4.431  13.081 -0.5135 -0.3780  0.1662
 5221TIP3    H137154   1.310   4.500  13.065  0.4564 -0.9587  1.4539
 5221TIP3    H237155   1.183   4.470  13.142 -1.1140  0.0074 -0.6717
 5222TIP3   OH237156   1.063   6.883   2.142  0.6928  0.0515  0.5153
 5222TIP3    H137157   1.104   6.969   2.153 -1.5391  1.2160  0.1518
 5222TIP3    H237158   1.065   6.867   2.048  1.0553 -0.2788  0.5773
 5223TIP3   OH237159   2.154   4.397   4.520 -0.1805  0.1559 -0.2786
 5223TIP3    H137160   2.100   4.476   4.529  1.1222  1.1928 -1.1154
 5223TIP3    H237161   2.244   4.428   4.529  0.4477 -0.9770 -2.0630
 5224TIP3   OH237162   3.744   2.288  15.151  0.1951  0.3932 -0.3890
 5224TIP3    H137163   3.660   2.308  15.109 -0.3378 -2.1536 -0.7142
 5224TIP3    H237164   3.761   2.197  15.127  2.5204  0.5116  0.6072
 5225TIP3   OH237165   3.690   6.444   5.384  0.4540 -0.0278 -0.1329
 5225TIP3    H137166   3.706   6.352   5.365  2.4219  0.2988 -0.1936
 5225TIP3    H237167   3.676   6.447   5.479 -1.9763 -0.6542 -0.4065
 5226TIP3   OH237168   3.634   3.785   5.374  0.3114 -0.9984 -0.1055
 5226TIP3    H137169   3.704   3.719   5.378  0.8315 -0.4492 -0.0906
 5226TIP3    H237170   3.628   3.806   5.281  0.4818 -0.7119 -0.0520
 5227TIP3   OH237171   4.187   6.393  15.797  0.2359  0.4539  0.3631
 5227TIP3    H137172   4.191   6.349  15.882  0.7724 -0.9229 -0.3564
 5227TIP3    H237173   4.277   6.391  15.764 -0.2277 -0.4903 -0.9412
 5228TIP3   OH237174   4.331   0.852   5.869  0.2138  0.3647  0.0303
 5228TIP3    H137175   4.258   0.911   5.890  0.4074  0.2087  1.1867
 5228TIP3    H237176   4.289   0.779   5.823 -0.4034  0.1971  0.8235
 5229TIP3   OH237177   2.203   1.804  11.854 -0.7941 -0.5531  0.0168
 5229TIP3    H137178   2.129   1.783  11.797  0.7655 -0.9778 -1.9586
 5229TIP3    H237179   2.280   1.785  11.801  0.7548 -0.1165  2.0009
 5230TIP3   OH237180   4.149   0.355  16.584  0.4557 -0.5107  0.0247
 5230TIP3    H137181   4.203   0.410  16.641  0.8949 -1.1621  0.2426
 5230TIP3    H237182   4.212   0.309  16.528  0.0025  0.5590 -1.4035
 5231TIP3   OH237183   3.351   1.986  12.473  0.6012  0.2308 -0.4427
 5231TIP3    H137184   3.321   1.904  12.512  0.0038  0.5129 -0.2965
 5231TIP3    H237185   3.307   1.990  12.388  1.3418 -0.0354 -0.8523
 5232TIP3   OH237186   5.639   5.236  13.702 -0.0043  0.0573 -0.7323
 5232TIP3    H137187   5.548   5.239  13.733 -0.4025  0.4462 -1.8761
 5232TIP3    H237188   5.651   5.320  13.657  1.6072  0.9205  1.1854
 5233TIP3   OH237189   4.359   0.600  11.951 -0.0658 -0.8805 -0.5126
 5233TIP3    H137190   4.318   0.529  11.900  0.9985 -2.1294  0.3029
 5233TIP3    H237191   4.448   0.605  11.916 -0.5528  1.1141 -1.5779
 5234TIP3   OH237192   1.642   2.040   5.225  0.2183  0.2789 -0.3786
 5234TIP3    H137193   1.677   2.056   5.137  2.3717  2.0798  0.7040
 5234TIP3    H237194   1.715   2.000   5.273  0.4004  2.6507  1.5383
 5235TIP3   OH237195   1.257   1.206   1.602  0.2270 -0.6807 -0.0471
 5235TIP3    H137196   1.259   1.113   1.626 -0.2810 -0.6186  0.2448
 5235TIP3    H237197   1.349   1.232   1.601  0.2646 -0.3810  3.0528
 5236TIP3   OH237198   1.536   0.831   4.634 -0.1435 -0.2256 -0.2866
 5236TIP3    H137199   1.564   0.748   4.596 -0.0793  0.2553 -1.3410
 5236TIP3    H237200   1.456   0.854   4.586 -1.1032 -0.4843  1.1423
 5237TIP3   OH237201   2.488   1.608   2.984 -0.1886 -0.1757 -0.0607
 5237TIP3    H137202   2.406   1.639   2.946  0.1915  0.7896 -0.1224
 5237TIP3    H237203   2.556   1.646   2.929  0.3403  0.3242  0.9081
 5238TIP3   OH237204   5.020   4.323   0.674  0.3341 -0.4962 -0.2573
 5238TIP3    H137205   4.943   4.267   0.675  1.0604 -1.5170  1.0169
 5238TIP3    H237206   5.094   4.262   0.677  1.1522  0.5029  0.4807
 5239TIP3   OH237207   3.403   0.622   2.489 -0.5059 -0.1991  0.1494
 5239TIP3    H137208   3.493   0.613   2.518  0.1419  1.8734 -1.0338
 5239TIP3    H237209   3.385   0.540   2.443 -0.0670 -1.6140  2.3440
 5240TIP3   OH237210   1.434   6.189  16.893 -0.1825 -0.1327 -0.4012
 5240TIP3    H137211   1.418   6.139  16.812 -0.2376  0.3473 -0.6878
 5240TIP3    H237212   1.524   6.166  16.917 -0.0499 -0.0206 -0.7833
 5241TIP3   OH237213   5.849   4.433  13.739 -0.1941 -0.1086  0.6208
 5241TIP3    H137214   5.876   4.342  13.727  0.1425  0.1237 -0.4820
 5241TIP3    H237215   5.917   4.471  13.795  0.9932  0.0625 -0.8655
 5242TIP3   OH237216   0.728   0.957  11.517  0.6446  0.3191 -0.0336
 5242TIP3    H137217   0.642   0.995  11.534  0.7366 -0.0455  1.4464
 5242TIP3    H237218   0.787   1.006  11.574  1.3704  0.3550 -0.8066
 5243TIP3   OH237219   0.638   5.145  14.612 -0.7361 -0.6667  0.7402
 5243TIP3    H137220   0.579   5.211  14.576  0.3636  0.7943  1.5097
 5243TIP3    H237221   0.725   5.183  14.605 -0.1375 -1.7380  1.8295
 5244TIP3   OH237222   1.586   1.071   3.380 -0.1050 -0.1232  0.4864
 5244TIP3    H137223   1.518   1.043   3.319  0.4125  0.0618 -0.2029
 5244TIP3    H237224   1.635   1.137   3.331  2.5887 -2.5124 -0.3305
 5245TIP3   OH237225   0.670   3.522  14.631  0.2633 -0.2179  0.1389
 5245TIP3    H137226   0.701   3.510  14.721 -0.9873 -2.7379  0.3027
 5245TIP3    H237227   0.672   3.435  14.592  2.8695  1.0646 -3.0937
 5246TIP3   OH237228   5.998   5.198  11.874  0.2845  0.5156  0.4444
 5246TIP3    H137229   6.091   5.202  11.853  0.8731  0.5000  2.7831
 5246TIP3    H237230   5.994   5.149  11.957 -2.0441 -1.6859 -0.8171
 5247TIP3   OH237231   2.103   2.714   0.320 -0.0300 -0.2684 -0.7583
 5247TIP3    H137232   2.078   2.669   0.240 -0.9037  0.3839 -0.8634
 5247TIP3    H237233   2.029   2.704   0.379  0.0331  0.4432 -0.5409
 5248TIP3   OH237234   1.038   3.937   5.470  0.5297  0.3762  0.0682
 5248TIP3    H137235   0.978   3.863   5.475 -1.0994  1.7012  1.2073
 5248TIP3    H237236   1.009   3.986   5.393 -1.1481  1.9845  1.6086
 5249TIP3   OH237237   0.060   0.173  11.584 -0.3117 -0.1198 -0.2087
 5249TIP3    H137238   0.080   0.158  11.492  1.9704 -2.0585  0.4891
 5249TIP3    H237239   0.134   0.225  11.617 -1.4848  1.2445  0.4216
 5250TIP3   OH237240   4.427   6.745   1.221  0.0170  0.2276 -0.7578
 5250TIP3    H137241   4.438   6.824   1.275  1.5181 -0.5362  0.1219
 5250TIP3    H237242   4.381   6.776   1.143  1.9028  2.3020 -1.1408
 5251TIP3   OH237243   4.003   3.896   0.645 -0.1748  0.2990 -0.5085
 5251TIP3    H137244   3.924   3.867   0.690 -0.5184 -0.1105 -1.3499
 5251TIP3    H237245   4.075   3.870   0.703 -0.5925 -0.4713 -0.3206
 5252TIP3   OH237246   5.188   1.754   3.348  0.3177 -0.3105 -0.0708
 5252TIP3    H137247   5.095   1.756   3.369  0.3118  1.6110 -0.1390
 5252TIP3    H237248   5.224   1.686   3.405 -1.0878 -0.9642  0.0744
 5253TIP3   OH237249   1.801   0.496   2.281 -0.0230 -0.1685  0.4922
 5253TIP3    H137250   1.877   0.511   2.336 -0.1572  0.2352  0.5711
 5253TIP3    H237251   1.726   0.502   2.340 -0.1847  0.5157  0.2274
 5254TIP3   OH237252   0.851   6.608   5.904 -0.2396 -0.4768  0.0924
 5254TIP3    H137253   0.806   6.534   5.864  0.0293 -0.1502 -0.8539
 5254TIP3    H237254   0.856   6.586   5.997 -0.7555 -1.3323 -0.0715
 5255TIP3   OH237255   6.035   2.592  12.935  0.0023  0.2118  0.0372
 5255TIP3    H137256   6.000   2.510  12.970 -0.5602  0.4915  0.1442
 5255TIP3    H237257   5.989   2.604  12.853 -2.4587  2.1126  1.5684
 5256TIP3   OH237258   1.827   0.489  11.013 -0.3446  0.3394  0.3918
 5256TIP3    H137259   1.820   0.410  10.959 -0.8294 -0.1692  1.1874
 5256TIP3    H237260   1.802   0.560  10.953 -2.5499 -0.3772  0.3523
 5257TIP3   OH237261   5.203   3.272   1.852  0.2106 -0.2885  0.3766
 5257TIP3    H137262   5.278   3.331   1.852  0.2984 -0.2872 -2.0673
 5257TIP3    H237263   5.191   3.248   1.943  2.5419  0.5053  0.9579
 5258TIP3   OH237264   2.132   5.951   4.217 -0.0369 -0.1070 -0.0802
 5258TIP3    H137265   2.040   5.935   4.197 -0.4045  2.3268 -0.6187
 5258TIP3    H237266   2.132   5.975   4.310 -0.5678  3.3091 -0.8203
 5259TIP3   OH237267   3.074   6.442  13.773 -0.2265 -0.0582 -0.2138
 5259TIP3    H137268   3.156   6.436  13.823 -0.1072 -0.5880 -0.4752
 5259TIP3    H237269   3.006   6.417  13.835 -0.0148 -1.3550 -0.4915
 5260TIP3   OH237270   4.155   5.920   1.009 -0.2392 -0.6722 -0.1983
 5260TIP3    H137271   4.067   5.924   0.972  0.1161  0.0998 -0.9887
 5260TIP3    H237272   4.164   6.001   1.058  0.1647 -0.5858 -0.4143
 5261TIP3   OH237273   1.098   5.259  11.144 -0.0911 -0.0285  0.0352
 5261TIP3    H137274   1.168   5.209  11.185 -2.2900 -0.8666  3.2282
 5261TIP3    H237275   1.051   5.195  11.090 -1.8607 -1.2250  2.7443
 5262TIP3   OH237276   2.754   0.614  12.550 -0.2745 -0.1588 -0.1878
 5262TIP3    H137277   2.815   0.665  12.604 -0.1455 -0.3064 -0.1942
 5262TIP3    H237278   2.797   0.529  12.539  0.4800  0.3926 -1.8825
 5263TIP3   OH237279   3.299   3.363  14.880  0.6329 -0.4027  0.3982
 5263TIP3    H137280   3.341   3.434  14.928  1.7223 -1.1519  0.5902
 5263TIP3    H237281   3.212   3.396  14.859  0.8812  0.7211  1.0766
 5264TIP3   OH237282   6.021   0.337   1.353 -0.0586 -0.3140 -0.2439
 5264TIP3    H137283   5.952   0.403   1.361  1.1858  0.9223  0.8390
 5264TIP3    H237284   5.994   0.267   1.412 -1.1016 -0.5141 -0.9467
 5265TIP3   OH237285   3.093   5.716  11.650  0.0655 -0.1267 -0.2793
 5265TIP3    H137286   3.065   5.631  11.683  1.7086 -1.0352 -1.1000
 5265TIP3    H237287   3.027   5.739  11.584  0.6992 -1.8134 -1.5867
 5266TIP3   OH237288   5.750   2.661  14.784 -0.0919  0.6751 -0.6510
 5266TIP3    H137289   5.698   2.586  14.815  2.1241 -0.7759 -0.2061
 5266TIP3    H237290   5.707   2.737  14.822 -1.7918 -0.4488 -0.1820
 5267TIP3   OH237291   6.851   4.017   5.058  0.0973  0.2042 -0.0765
 5267TIP3    H137292   6.940   4.052   5.053  0.7112 -1.1823  0.6646
 5267TIP3    H237293   6.856   3.932   5.014 -0.2911 -0.9056  1.9062
 5268TIP3   OH237294   6.762   5.599   2.622 -0.2162 -0.3452  0.0806
 5268TIP3    H137295   6.719   5.524   2.580 -0.5507 -0.3174  0.3641
 5268TIP3    H237296   6.689   5.657   2.647  0.0087 -0.1604  0.3087
 5269TIP3   OH237297   0.858   0.868   1.000  0.6704 -0.1893  0.5461
 5269TIP3    H137298   0.919   0.940   0.986 -1.3198  1.7985  1.6505
 5269TIP3    H237299   0.785   0.886   0.941  0.3367 -1.5789  0.4947
 5270TIP3   OH237300   0.204   3.194  11.590 -0.0322  0.1790  0.3537
 5270TIP3    H137301   0.167   3.191  11.678 -0.4777  1.3191  0.2149
 5270TIP3    H237302   0.150   3.257  11.543  1.0633  0.6225 -0.3440
 5271TIP3   OH237303   2.070   6.828  12.736  0.0326  0.0174 -0.3283
 5271TIP3    H137304   1.998   6.857  12.792  0.3114  0.1995 -0.0610
 5271TIP3    H237305   2.046   6.739  12.711 -0.4080  0.1628 -0.4453
 5272TIP3   OH237306   1.691   1.333   3.321  0.1903  0.2795 -0.7434
 5272TIP3    H137307   1.744   1.390   3.265  1.2602  0.2481  0.2183
 5272TIP3    H237308   1.742   1.323   3.401 -0.5622 -1.0235 -0.3999
 5273TIP3   OH237309   0.648   6.862  12.633 -0.5995  0.5658  0.4522
 5273TIP3    H137310   0.590   6.786  12.640  0.6543 -0.2988  2.2246
 5273TIP3    H237311   0.691   6.851  12.548  0.5232 -1.4906  1.2156
 5274TIP3   OH237312   1.166   1.643   6.408  0.3818  0.6873 -0.5036
 5274TIP3    H137313   1.217   1.698   6.349  0.3718  1.2722  0.0095
 5274TIP3    H237314   1.200   1.555   6.396  0.9712  0.9418 -0.7424
 5275TIP3   OH237315   2.599   1.823   5.397  0.1110  0.4361 -0.2385
 5275TIP3    H137316   2.557   1.870   5.469  1.4276  0.3609  0.6149
 5275TIP3    H237317   2.688   1.859   5.394  1.1114 -1.7969  0.3041
 5276TIP3   OH237318   3.416   1.814   5.041 -0.4166 -0.5955 -0.0185
 5276TIP3    H137319   3.465   1.845   4.965  0.1457 -0.8752  0.2211
 5276TIP3    H237320   3.465   1.738   5.072 -1.1865 -1.0844  0.0381
 5277TIP3   OH237321   5.606   6.316  11.939  0.5090  0.8219 -0.0387
 5277TIP3    H137322   5.613   6.223  11.960  2.3406  1.0075  0.3221
 5277TIP3    H237323   5.662   6.327  11.863 -0.9862  1.3646 -1.1072
 5278TIP3   OH237324   2.413   6.325   3.994  0.5284  0.0171  0.0276
 5278TIP3    H137325   2.389   6.407   4.037 -0.8003  0.2111 -0.9993
 5278TIP3    H237326   2.372   6.257   4.047  1.4657  0.0226  0.7701
 5279TIP3   OH237327   1.372   1.412  15.946  0.2990  0.0982 -0.0205
 5279TIP3    H137328   1.306   1.456  15.891  1.5396  0.6993 -1.0810
 5279TIP3    H237329   1.357   1.319  15.931  0.1939  0.2396 -0.8882
 5280TIP3   OH237330   5.160   4.178  12.821  0.5344 -0.2369  0.3604
 5280TIP3    H137331   5.094   4.171  12.890 -1.6020  0.1184 -1.5164
 5280TIP3    H237332   5.206   4.260  12.839  1.2845 -1.0361  2.3323
 5281TIP3   OH237333   0.569   6.227   5.870  0.0325  0.2160  0.5691
 5281TIP3    H137334   0.477   6.215   5.844 -0.2860  0.7699  1.3973
 5281TIP3    H237335   0.618   6.174   5.807 -0.8565 -0.1573  0.1601
 5282TIP3   OH237336   5.323   1.833   5.164 -0.9493 -0.3475  0.1020
 5282TIP3    H137337   5.415   1.828   5.189 -0.2517 -1.5919 -2.3725
 5282TIP3    H237338   5.298   1.742   5.148 -1.3288  0.2404 -3.2929
 5283TIP3   OH237339   0.924   5.559   3.112 -0.2975  0.0564  0.5880
 5283TIP3    H137340   0.902   5.530   3.024  1.3883 -0.4558  0.2968
 5283TIP3    H237341   0.943   5.653   3.103  0.1469 -0.0541  0.3356
 5284TIP3   OH237342   5.608   0.932   5.063  0.1777  0.0267  0.5028
 5284TIP3    H137343   5.515   0.950   5.050  0.5355  0.6383 -1.4970
 5284TIP3    H237344   5.631   0.979   5.143 -0.9842  0.7703  0.4158
 5285TIP3   OH237345   5.318   3.157  14.020  0.0095 -0.2260  0.3379
 5285TIP3    H137346   5.327   3.062  14.011  1.6806  0.0645 -1.9002
 5285TIP3    H237347   5.404   3.192  13.995 -0.9841  1.9271 -0.3206
 5286TIP3   OH237348   3.924   6.118  16.884  0.2513 -0.6681 -0.2029
 5286TIP3    H137349   3.962   6.206  16.874  0.5490 -0.6316  1.0340
 5286TIP3    H237350   3.983   6.061  16.835 -0.2106 -0.1337 -1.4222
 5287TIP3   OH237351   5.986   2.218   2.175 -0.7364 -0.0615 -0.0260
 5287TIP3    H137352   5.959   2.233   2.266  0.4417 -0.7952  0.4585
 5287TIP3    H237353   6.075   2.183   2.181 -1.5427 -2.6190 -1.2996
 5288TIP3   OH237354   0.492   6.611   0.019  0.1738  0.8735  0.0226
 5288TIP3    H137355   0.553   6.636  -0.050 -0.4644  1.9651 -0.1780
 5288TIP3    H237356   0.540   6.623   0.100  1.4203 -1.8115 -0.2364
 5289TIP3   OH237357   3.340   1.366   2.992  0.6225 -0.0220  0.4758
 5289TIP3    H137358   3.340   1.354   3.087  0.9459 -0.3333  0.4384
 5289TIP3    H237359   3.389   1.291   2.958 -0.0215 -0.2463  0.0200
 5290TIP3   OH237360   4.133   4.496   4.220  0.2972 -0.3827  0.4369
 5290TIP3    H137361   4.220   4.456   4.231  0.8265  0.8556  0.9214
 5290TIP3    H237362   4.093   4.490   4.307  0.0387 -0.6369  0.2990
 5291TIP3   OH237363   2.594   1.682   6.233 -0.3526 -0.5281  0.1864
 5291TIP3    H137364   2.612   1.618   6.302 -1.4171 -1.7048 -0.5857
 5291TIP3    H237365   2.591   1.766   6.279  2.6339 -0.7556  0.9944
 5292TIP3   OH237366   2.410   6.532  10.526 -0.5115 -0.0194 -0.1906
 5292TIP3    H137367   2.440   6.461  10.469  0.7091 -0.4079  0.8909
 5292TIP3    H237368   2.326   6.558  10.489 -0.6869 -1.5981 -1.0043
 5293TIP3   OH237369   1.463   3.416  13.501 -0.1092 -0.0494 -0.0444
 5293TIP3    H137370   1.523   3.343  13.489  1.1506  1.1066 -1.0696
 5293TIP3    H237371   1.519   3.494  13.500 -1.5929  1.0694 -0.9877
 5294TIP3   OH237372   1.494   5.563  16.032  0.2906 -0.6277 -0.5604
 5294TIP3    H137373   1.542   5.625  15.977  0.3905  0.1490  0.3825
 5294TIP3    H237374   1.423   5.615  16.071  0.8631 -0.8935  0.8828
 5295TIP3   OH237375   4.130   4.013  12.265 -0.6116 -0.2244  0.0858
 5295TIP3    H137376   4.084   4.069  12.202 -3.6164 -0.4139  1.9346
 5295TIP3    H237377   4.207   3.983  12.217 -1.5322  1.4170 -2.7025
 5296TIP3   OH237378   4.058   3.360   1.852  0.4195 -0.5029 -0.0012
 5296TIP3    H137379   4.082   3.363   1.760 -1.6796 -1.6807 -0.6432
 5296TIP3    H237380   3.979   3.414   1.858  0.2535 -0.8391  1.0156
 5297TIP3   OH237381   5.025   6.566   2.624 -0.2571  0.2333 -0.7261
 5297TIP3    H137382   5.012   6.645   2.572 -2.2404  1.0206  0.8362
 5297TIP3    H237383   5.036   6.496   2.558 -2.2573  1.2384 -2.2418
 5298TIP3   OH237384   6.692   4.577   4.132  0.0414  0.7129  0.4972
 5298TIP3    H137385   6.778   4.535   4.144 -0.0165  0.4888  0.1157
 5298TIP3    H237386   6.686   4.638   4.206 -0.5523 -1.0503  1.9581
 5299TIP3   OH237387   4.552   3.652   1.492  0.3522 -0.4024  0.0191
 5299TIP3    H137388   4.591   3.652   1.404  2.2084 -1.6602  0.7810
 5299TIP3    H237389   4.517   3.741   1.502  1.7237  0.3423 -1.3237
 5300TIP3   OH237390   5.581   5.604  10.733  0.0627  0.6159 -0.4233
 5300TIP3    H137391   5.506   5.558  10.696  0.6538 -0.0538 -0.8072
 5300TIP3    H237392   5.640   5.618  10.660  0.1637  1.4575 -0.1900
 5301TIP3   OH237393   5.809   1.172  13.340 -0.0453  0.5944  0.2351
 5301TIP3    H137394   5.720   1.145  13.319 -0.1680  1.4974 -0.4821
 5301TIP3    H237395   5.830   1.239  13.274  0.6550  1.3997  1.2331
 5302TIP3   OH237396   2.243   3.354  12.967 -0.0725  0.2002  0.2531
 5302TIP3    H137397   2.321   3.305  12.996  0.4310  1.2071  0.6733
 5302TIP3    H237398   2.172   3.318  13.019  0.6151  1.1417  1.9357
 5303TIP3   OH237399   2.449   4.149   5.445  0.1290 -0.6253 -0.2915
 5303TIP3    H137400   2.544   4.150   5.434  0.1812  0.1626  0.1305
 5303TIP3    H237401   2.434   4.188   5.531 -0.5356 -1.6723  0.0911
 5304TIP3   OH237402   3.007   1.829   0.506  0.2278  0.2067 -0.3013
 5304TIP3    H137403   2.980   1.855   0.594  1.2106 -1.2151  0.4451
 5304TIP3    H237404   3.077   1.890   0.484  2.1204 -1.3152  1.2057
 5305TIP3   OH237405   4.105   1.812  15.529  0.2646 -0.5857  0.1393
 5305TIP3    H137406   4.058   1.749  15.583  0.7589 -0.4278  0.7648
 5305TIP3    H237407   4.188   1.770  15.510  0.0903 -0.6423 -0.5145
 5306TIP3   OH237408   5.013   5.969  10.286  0.9736 -0.0075  0.0013
 5306TIP3    H137409   4.981   5.914  10.215 -0.2756  0.9983 -0.2665
 5306TIP3    H237410   5.057   6.042  10.242  1.1535  0.0604  0.2898
 5307TIP3   OH237411   3.500   0.807  10.285 -0.9120 -0.0539  0.0983
 5307TIP3    H137412   3.452   0.782  10.363 -0.3640 -0.2460  0.3774
 5307TIP3    H237413   3.508   0.726  10.234 -1.5149  0.1261 -0.3027
 5308TIP3   OH237414   4.904   3.642  16.057  0.3047  0.2711 -0.2390
 5308TIP3    H137415   4.870   3.730  16.074  0.1653  0.2005 -0.1453
 5308TIP3    H237416   4.842   3.604  15.995 -1.6260 -0.9872  2.2229
 5309TIP3   OH237417   2.874   3.571  12.737  0.9006 -0.3982  0.0410
 5309TIP3    H137418   2.791   3.528  12.755  0.5548  0.5341  0.7816
 5309TIP3    H237419   2.860   3.619  12.656  0.6238 -0.0591  0.2815
 5310TIP3   OH237420   0.772   3.854   5.485 -0.0022 -0.7100  0.0659
 5310TIP3    H137421   0.792   3.918   5.554  0.2896  0.8655 -1.4048
 5310TIP3    H237422   0.725   3.784   5.530  2.6800 -1.1961  2.4014
 5311TIP3   OH237423   1.877   3.337  12.414 -0.2898 -0.1085  0.0825
 5311TIP3    H137424   1.824   3.260  12.394  2.8377 -2.5812  0.3628
 5311TIP3    H237425   1.938   3.344  12.340  1.8171 -0.2681  1.6852
 5312TIP3   OH237426   1.484   0.324   4.763 -0.1312  0.7146  0.0484
 5312TIP3    H137427   1.471   0.405   4.714  0.2982  1.3283  0.9272
 5312TIP3    H237428   1.570   0.334   4.803 -0.7131  0.5043  1.4083
 5313TIP3   OH237429   0.993   0.409   2.029 -0.0622  0.6265 -0.8019
 5313TIP3    H137430   1.010   0.498   1.998 -1.8506  0.7521 -1.4981
 5313TIP3    H237431   0.987   0.356   1.950 -0.2841  0.1156 -0.4506
 5314TIP3   OH237432   1.174   3.538   1.775  0.4191  0.3707 -0.1025
 5314TIP3    H137433   1.197   3.570   1.688 -1.8551  0.4510 -0.7335
 5314TIP3    H237434   1.238   3.469   1.793  1.5581  1.0465 -1.3581
 5315TIP3   OH237435   4.400   0.342   5.711  0.1946 -0.5821 -0.0550
 5315TIP3    H137436   4.409   0.390   5.629  0.4730  1.8126  1.2883
 5315TIP3    H237437   4.486   0.305   5.727  0.8611  1.0739  0.3589
 5316TIP3   OH237438   6.483   6.080  13.418  0.4551 -0.1887 -0.0140
 5316TIP3    H137439   6.553   6.106  13.359  0.5151  0.1530  0.2077
 5316TIP3    H237440   6.504   6.121  13.501  0.0167 -0.1148  0.0666
 5317TIP3   OH237441   5.081   5.713   4.122 -0.2982 -0.3814  0.1575
 5317TIP3    H137442   5.058   5.723   4.030 -2.1902  0.6310  0.6987
 5317TIP3    H237443   5.176   5.728   4.124 -0.1442 -0.8168 -1.6464
 5318TIP3   OH237444   3.472   5.639   2.469 -0.0795 -0.0950  0.1522
 5318TIP3    H137445   3.554   5.684   2.486 -0.0002  0.4044 -1.3661
 5318TIP3    H237446   3.468   5.569   2.534  0.9503  0.6229  1.0091
 5319TIP3   OH237447   3.947   4.064   3.233 -0.5034  0.3923 -0.5322
 5319TIP3    H137448   3.932   4.131   3.300 -0.2927  0.5331 -0.6268
 5319TIP3    H237449   3.977   4.112   3.156  0.4426  0.1259 -0.3485
 5320TIP3   OH237450   3.619   2.885   2.837  0.2378  0.0723 -0.3563
 5320TIP3    H137451   3.584   2.920   2.919  1.6847  0.2040  0.2509
 5320TIP3    H237452   3.604   2.791   2.843  0.0441  0.1188 -0.0845
 5321TIP3   OH237453   1.192   3.129   2.050 -0.1280 -0.2221  0.1953
 5321TIP3    H137454   1.099   3.150   2.037  0.1832  0.0356 -1.8543
 5321TIP3    H237455   1.192   3.038   2.078 -1.0045 -0.1590  0.4414
 5322TIP3   OH237456   6.146   2.871  16.739  0.1751 -0.0084  0.5655
 5322TIP3    H137457   6.129   2.877  16.645 -1.5533 -0.2607  0.8243
 5322TIP3    H237458   6.224   2.925  16.753  2.3717 -2.4011 -1.4445
 5323TIP3   OH237459   3.782   6.295  11.310 -0.1393 -0.1753 -0.5449
 5323TIP3    H137460   3.807   6.385  11.328 -1.8364  0.2060  0.1307
 5323TIP3    H237461   3.859   6.243  11.331  0.3727  0.9773  0.5269
 5324TIP3   OH237462   2.738   3.898  15.369  0.2979  0.2952 -0.0049
 5324TIP3    H137463   2.681   3.968  15.338  1.1768  1.1596  0.2611
 5324TIP3    H237464   2.709   3.820  15.323 -3.2671 -0.0881  2.4903
 5325TIP3   OH237465   4.566   0.303   2.715 -0.0417 -0.2103  0.3665
 5325TIP3    H137466   4.493   0.314   2.655  0.7718 -0.1526 -0.6506
 5325TIP3    H237467   4.563   0.210   2.740 -0.3899 -0.2327  0.2415
 5326TIP3   OH237468   6.549   0.246  12.254 -0.5801  0.3258  0.1395
 5326TIP3    H137469   6.597   0.183  12.308  2.3973 -0.1848 -2.7472
 5326TIP3    H237470   6.604   0.324  12.256 -1.6634  1.1089 -0.2433
 5327TIP3   OH237471   4.648   2.208  16.407 -0.0614  0.1558 -0.3298
 5327TIP3    H137472   4.563   2.164  16.403 -0.9415  1.8307 -1.1418
 5327TIP3    H237473   4.671   2.207  16.499 -0.8859 -0.4673 -0.1134
 5328TIP3   OH237474   6.695   6.659  16.399  0.8492  0.1331 -0.0450
 5328TIP3    H137475   6.708   6.750  16.375  1.4853 -0.1220 -0.6885
 5328TIP3    H237476   6.625   6.629  16.341  1.1344  0.0196 -0.3350
 5329TIP3   OH237477   2.917   0.354  13.620  0.0200 -0.0310 -0.2529
 5329TIP3    H137478   2.824   0.341  13.637  0.0812 -1.0881 -0.6824
 5329TIP3    H237479   2.952   0.266  13.611  1.4123  0.2523  1.6682
 5330TIP3   OH237480   5.175   4.682   3.597 -0.5452  0.1438  0.4623
 5330TIP3    H137481   5.206   4.720   3.515  0.0189  1.1659  1.1411
 5330TIP3    H237482   5.084   4.711   3.604 -0.4927  0.3278  0.3709
 5331TIP3   OH237483   0.029   2.081  16.340  0.2240  0.0277  0.2637
 5331TIP3    H137484  -0.063   2.083  16.366 -0.0841  3.5184 -0.5973
 5331TIP3    H237485   0.071   2.147  16.395  1.7400  0.0643 -0.8685
 5332TIP3   OH237486   4.808   2.226   2.248 -0.2400  0.0812  0.2627
 5332TIP3    H137487   4.889   2.277   2.237  0.4125 -0.8096  0.8171
 5332TIP3    H237488   4.779   2.248   2.337 -2.2095  2.5984 -0.8583
 5333TIP3   OH237489   4.206   6.640   3.291 -0.0165 -0.2086 -0.2141
 5333TIP3    H137490   4.278   6.665   3.350 -1.6627  3.5442  0.4827
 5333TIP3    H237491   4.160   6.571   3.338  1.1774 -0.3234  0.8744
 5334TIP3   OH237492   3.408   1.845  14.220  0.3872 -0.6469  0.5041
 5334TIP3    H137493   3.333   1.805  14.263 -0.9235  0.8947 -0.2458
 5334TIP3    H237494   3.482   1.788  14.242 -1.1070 -2.6047  0.6914
 5335TIP3   OH237495   2.914   3.029   2.075 -0.1573 -0.5542  0.0516
 5335TIP3    H137496   2.988   3.041   2.016 -0.8026 -0.3300 -0.7301
 5335TIP3    H237497   2.916   2.936   2.098  0.3014 -0.5686 -0.0516
 5336TIP3   OH237498   6.143   6.752   3.439 -0.1224  0.3921  0.0764
 5336TIP3    H137499   6.061   6.800   3.429  0.2431  0.9576 -0.2927
 5336TIP3    H237500   6.124   6.664   3.404 -0.5019  0.5910 -0.2243
 5337TIP3   OH237501   0.160   1.050  15.866  0.1285 -0.4781  0.7709
 5337TIP3    H137502   0.131   1.140  15.882  0.0677 -0.4436  0.4733
 5337TIP3    H237503   0.184   1.017  15.952  2.2368  0.5522  0.6504
 5338TIP3   OH237504   2.278   2.836  11.103 -0.0367  0.0743  0.3123
 5338TIP3    H137505   2.199   2.784  11.118  0.5612 -1.4135 -1.3242
 5338TIP3    H237506   2.246   2.917  11.064 -0.8955  0.4998  1.7970
 5339TIP3   OH237507   6.323   6.778   3.121  0.4060  0.5837  0.1446
 5339TIP3    H137508   6.349   6.870   3.114 -0.7686  0.8299 -1.3951
 5339TIP3    H237509   6.236   6.780   3.160  1.3075 -0.0701  2.3870
 5340TIP3   OH237510   5.016   2.440   5.418 -0.0804 -0.7711 -0.1990
 5340TIP3    H137511   4.994   2.501   5.348  1.1658  0.3532  0.3383
 5340TIP3    H237512   5.109   2.455   5.434 -0.0618 -1.8942  0.8418
 5341TIP3   OH237513   5.552   1.776   4.908  0.3070 -0.6272  0.3259
 5341TIP3    H137514   5.459   1.800   4.904  0.5457  0.3471  0.5665
 5341TIP3    H237515   5.598   1.850   4.869  1.0647 -0.5907  1.2556
 5342TIP3   OH237516   0.770   1.722  13.716  0.0095 -0.0271 -0.0199
 5342TIP3    H137517   0.800   1.766  13.795 -1.4424  0.6302  0.2007
 5342TIP3    H237518   0.795   1.630  13.728  1.0972  0.3269  0.5258
 5343TIP3   OH237519   2.038   2.920   4.918 -0.6977  0.3673 -0.6826
 5343TIP3    H137520   2.032   2.957   5.006 -0.4607  1.9977 -1.3138
 5343TIP3    H237521   1.971   2.852   4.916 -0.9412  0.5392  0.6408
 5344TIP3   OH237522   4.829   3.452  15.046 -0.0799  0.0641  0.1292
 5344TIP3    H137523   4.773   3.507  15.102  1.4319  1.9071 -0.0464
 5344TIP3    H237524   4.825   3.365  15.085 -0.7139  0.8335  1.8690
 5345TIP3   OH237525   0.121   1.263  10.958 -0.5379 -0.2370 -0.5395
 5345TIP3    H137526   0.090   1.352  10.978 -1.4657 -0.9335  1.4452
 5345TIP3    H237527   0.158   1.233  11.041  0.8872 -1.2845 -1.5230
 5346TIP3   OH237528   5.806   6.476  16.176 -0.2920  0.2042  0.6678
 5346TIP3    H137529   5.782   6.387  16.151  0.7844 -0.1849  0.9298
 5346TIP3    H237530   5.885   6.494  16.125 -1.7603  1.9154 -1.1682
 5347TIP3   OH237531   6.107   1.885   3.254  0.0495 -0.5474 -0.4893
 5347TIP3    H137532   6.020   1.900   3.293  0.1314 -0.7600 -0.2231
 5347TIP3    H237533   6.116   1.955   3.189  0.0008 -0.0551  0.0255
 5348TIP3   OH237534   6.085   3.613   2.910 -1.2065  0.3616 -0.0888
 5348TIP3    H137535   6.006   3.661   2.933 -0.6880  1.5414 -0.7121
 5348TIP3    H237536   6.070   3.525   2.944 -3.5127  0.0655 -1.6274
 5349TIP3   OH237537   4.924   0.908  11.707  0.2781  0.5417  0.4303
 5349TIP3    H137538   5.019   0.914  11.719  0.7479  0.9526 -2.6784
 5349TIP3    H237539   4.900   0.825  11.747  1.6966  1.0015  2.3907
 5350TIP3   OH237540   1.283   0.985  12.405  0.6581  0.3309  0.4912
 5350TIP3    H137541   1.257   0.929  12.479 -1.4423 -0.0112 -0.4172
 5350TIP3    H237542   1.285   0.926  12.330 -1.9704  1.4104 -0.5595
 5351TIP3   OH237543   1.216   1.090  15.590 -0.2892 -0.4057 -0.3146
 5351TIP3    H137544   1.249   1.113  15.677 -2.1372  2.0783 -0.1912
 5351TIP3    H237545   1.283   1.124  15.530 -1.1914  2.1558  0.0273
 5352TIP3   OH237546   3.334   5.535  15.790 -0.2043 -0.0717  0.3161
 5352TIP3    H137547   3.387   5.565  15.716 -1.3155  1.3312  0.0356
 5352TIP3    H237548   3.356   5.443  15.800  0.0576 -0.2698 -1.6963
 5353TIP3   OH237549   0.847   0.265   5.496 -0.3326 -0.1358 -0.3396
 5353TIP3    H137550   0.855   0.200   5.426 -0.6438 -0.0619 -0.4440
 5353TIP3    H237551   0.780   0.326   5.465 -0.3907 -0.0394 -0.0257
 5354TIP3   OH237552   2.038   1.761   0.808  0.1858 -0.2723  0.0269
 5354TIP3    H137553   2.021   1.826   0.741  0.5199 -0.1334  0.0750
 5354TIP3    H237554   2.031   1.677   0.763 -0.5991 -0.2238  0.0412
 5355TIP3   OH237555   2.166   4.795  16.694  0.3176 -1.2176  0.3312
 5355TIP3    H137556   2.246   4.748  16.670  1.5570  0.5059  0.9092
 5355TIP3    H237557   2.186   4.833  16.780  0.3746  2.3822 -1.1083
 5356TIP3   OH237558   1.224   1.227  10.949 -0.1851 -0.0852 -0.0606
 5356TIP3    H137559   1.297   1.230  10.887  0.2569  3.4894  0.4383
 5356TIP3    H237560   1.173   1.305  10.930 -2.5963 -1.2444  1.2101
 5357TIP3   OH237561   2.659   2.448   3.951  0.6435  0.4229  0.4190
 5357TIP3    H137562   2.635   2.524   4.004 -1.1016  1.1649 -1.3211
 5357TIP3    H237563   2.737   2.476   3.902  0.9442  0.5067  0.9354
 5358TIP3   OH237564   0.895   6.073   6.625  0.2055  0.1773  0.0769
 5358TIP3    H137565   0.830   6.018   6.580  0.3299  0.9870 -1.1503
 5358TIP3    H237566   0.954   6.101   6.555  1.6559 -0.2207  1.1111
 5359TIP3   OH237567   1.020   1.166  13.036 -0.1494  0.1276  0.2175
 5359TIP3    H137568   1.008   1.080  13.076  2.9150  0.2001  1.5421
 5359TIP3    H237569   0.971   1.226  13.093  0.1296 -0.4039  1.0379
 5360TIP3   OH237570   1.480   1.835   2.918 -0.0939 -0.1475  0.3239
 5360TIP3    H137571   1.463   1.867   3.006 -0.9962  0.0511  0.0859
 5360TIP3    H237572   1.512   1.911   2.870 -0.4180 -0.0453  0.2632
 5361TIP3   OH237573   4.804   0.533   5.529 -0.7369  0.3920 -0.1012
 5361TIP3    H137574   4.782   0.449   5.489  0.5854 -0.8038  1.5174
 5361TIP3    H237575   4.874   0.568   5.475 -0.5045 -0.1182 -0.1340
 5362TIP3   OH237576   2.561   4.901  15.581 -0.5398  0.5346  0.2017
 5362TIP3    H137577   2.599   4.878  15.665  1.4058  1.6449 -0.3244
 5362TIP3    H237578   2.512   4.981  15.598 -0.9318  0.2566  0.4310
 5363TIP3   OH237579   1.336   6.692  13.549 -0.0184 -0.5878  0.0041
 5363TIP3    H137580   1.373   6.682  13.637  0.2593  0.3636  0.0075
 5363TIP3    H237581   1.254   6.642  13.552  1.1421 -2.5551  0.0537
 5364TIP3   OH237582   2.460   3.747   3.186 -0.0828  0.1686 -0.0104
 5364TIP3    H137583   2.526   3.811   3.212  0.4356  0.5630 -2.1112
 5364TIP3    H237584   2.379   3.797   3.180  0.5679  1.0449 -2.9553
 5365TIP3   OH237585   5.203   5.427  15.732 -0.2435 -0.0190 -0.1944
 5365TIP3    H137586   5.213   5.522  15.736  1.2123 -0.1739  0.8925
 5365TIP3    H237587   5.151   5.411  15.653 -2.5684  1.8010  0.8318
 5366TIP3   OH237588   3.296   0.217  13.018  0.3840 -0.1142 -0.9144
 5366TIP3    H137589   3.348   0.297  13.032 -0.8086  0.5602 -0.1755
 5366TIP3    H237590   3.319   0.161  13.092 -1.5290  1.0898  0.7047
 5367TIP3   OH237591   4.590   2.859   4.993 -0.5168 -0.0367  0.5457
 5367TIP3    H137592   4.524   2.817   5.048 -2.6070  1.1216 -0.9127
 5367TIP3    H237593   4.609   2.795   4.925 -1.9499  0.4536 -0.3553
 5368TIP3   OH237594   6.027   5.144  13.829  0.4131 -0.4398 -0.6496
 5368TIP3    H137595   5.987   5.058  13.837  0.1636 -0.2490  0.2296
 5368TIP3    H237596   6.111   5.136  13.875  0.8884 -0.5194 -1.5149
 5369TIP3   OH237597   0.001   6.564   0.824  0.4987  0.1100  0.5627
 5369TIP3    H137598  -0.004   6.526   0.912  0.9046  0.6774  0.8363
 5369TIP3    H237599  -0.059   6.639   0.826 -0.0959 -0.3383  0.1052
 5370TIP3   OH237600   5.468   0.401   0.702  0.2195  0.8513 -0.0262
 5370TIP3    H137601   5.407   0.398   0.776  0.7308  3.2663  0.5876
 5370TIP3    H237602   5.547   0.357   0.734 -1.3994 -3.3775 -1.2239
 5371TIP3   OH237603   2.781   0.616   1.316 -1.2357  0.1540  0.2181
 5371TIP3    H137604   2.780   0.541   1.377 -1.6750  0.1728  0.2368
 5371TIP3    H237605   2.733   0.585   1.239 -0.2975 -0.0221 -0.3127
 5372TIP3   OH237606   0.720   0.195  10.406  1.4586  0.3824  0.5472
 5372TIP3    H137607   0.627   0.215  10.418  1.3629 -0.4533  1.2505
 5372TIP3    H237608   0.734   0.202  10.311  0.1471 -1.6619  0.1415
 5373TIP3   OH237609   1.067   0.927  10.842  0.2194 -0.3599  0.8635
 5373TIP3    H137610   1.031   0.883  10.764 -0.5820  1.1215  0.3711
 5373TIP3    H237611   1.162   0.925  10.828  0.0635  0.5829 -0.5828
 5374TIP3   OH237612   4.452   6.711  14.386 -0.0560 -0.5925 -0.2341
 5374TIP3    H137613   4.544   6.710  14.359  0.4810 -1.0730  1.4524
 5374TIP3    H237614   4.410   6.646  14.330  0.7727 -0.8401 -0.5892
 5375TIP3   OH237615   4.673   6.458   4.270  0.7249 -0.4825  0.2183
 5375TIP3    H137616   4.698   6.366   4.280  0.5222 -0.5142  0.4494
 5375TIP3    H237617   4.590   6.466   4.317  0.1405 -0.4467 -0.7976
 5376TIP3   OH237618   3.216   2.792  14.811  0.3757  0.3252 -0.0149
 5376TIP3    H137619   3.311   2.785  14.820  0.3076  0.6346  1.0746
 5376TIP3    H237620   3.187   2.832  14.893 -0.7897 -0.6092  0.0572
 5377TIP3   OH237621   0.862   3.936  11.774  0.0531 -0.4523 -0.1104
 5377TIP3    H137622   0.876   3.879  11.699  0.0887  0.6770 -0.9893
 5377TIP3    H237623   0.861   4.024  11.738 -2.1141  0.0140  0.9011
 5378TIP3   OH237624   5.313   3.857   5.301 -0.7255 -0.0783 -0.8702
 5378TIP3    H137625   5.334   3.776   5.255  1.1203  0.1729 -0.5558
 5378TIP3    H237626   5.219   3.869   5.289 -0.9341 -2.0013 -1.3308
 5379TIP3   OH237627   1.763   0.064   5.495 -0.6042  0.8628  0.1454
 5379TIP3    H137628   1.671   0.066   5.518 -0.2868 -0.6872  1.7241
 5379TIP3    H237629   1.796  -0.018   5.531  1.2620  1.0699 -0.9200
 5380TIP3   OH237630   5.321   6.171  11.101  0.3556  0.1989  0.0757
 5380TIP3    H137631   5.312   6.100  11.036 -3.0975 -0.7797  1.4027
 5380TIP3    H237632   5.332   6.250  11.049  0.3165 -0.8633 -1.6242
 5381TIP3   OH237633   6.647   2.125   3.624 -1.0146  0.0986 -0.3824
 5381TIP3    H137634   6.724   2.132   3.680 -2.5361 -1.2943  2.0775
 5381TIP3    H237635   6.663   2.047   3.571  0.1852  1.0953 -1.5524
 5382TIP3   OH237636   0.492   0.044   5.446  0.4088 -0.1002  0.2484
 5382TIP3    H137637   0.430  -0.013   5.492  0.3682 -1.1578 -1.0591
 5382TIP3    H237638   0.578   0.004   5.463  0.7015  1.0208  1.5594
 5383TIP3   OH237639   5.367   6.205  13.957 -0.1993 -0.2287 -0.1725
 5383TIP3    H137640   5.303   6.201  14.029  0.1886 -1.9250  0.1263
 5383TIP3    H237641   5.443   6.249  13.995 -0.9017  1.1902 -0.3318
 5384TIP3   OH237642   5.075   4.851   2.296 -0.0150 -0.4555  0.1294
 5384TIP3    H137643   5.153   4.803   2.268  1.0399  0.7880  0.8490
 5384TIP3    H237644   5.004   4.786   2.292  1.1277 -1.7238 -0.0927
 5385TIP3   OH237645   5.929   1.462  12.109 -0.0402 -0.1216 -0.0997
 5385TIP3    H137646   5.981   1.392  12.150  1.4369  1.3719  0.6756
 5385TIP3    H237647   5.839   1.446  12.139  0.7008 -0.1324  2.3187
 5386TIP3   OH237648   0.624   2.476  16.300  0.5024  0.0540 -0.6871
 5386TIP3    H137649   0.590   2.541  16.238  1.7247  2.1423  0.7239
 5386TIP3    H237650   0.715   2.463  16.274  0.5680 -0.2654 -0.3012
 5387TIP3   OH237651   1.888   3.915   1.074 -0.0371  0.8176 -0.5365
 5387TIP3    H137652   1.943   3.974   1.127  0.2836 -0.3340  0.4733
 5387TIP3    H237653   1.812   3.968   1.050 -1.2261  0.8987  2.8094
 5388TIP3   OH237654   0.715   1.071  10.931  0.2229 -0.2106  0.0246
 5388TIP3    H137655   0.691   1.142  10.991  1.1731  0.6019 -0.5158
 5388TIP3    H237656   0.759   1.007  10.986  2.1716  1.0713  0.0776
 5389TIP3   OH237657   3.532   6.478   2.068 -0.4566 -0.4762 -0.5190
 5389TIP3    H137658   3.450   6.433   2.047 -1.6056  0.4315  1.6470
 5389TIP3    H237659   3.529   6.490   2.163  1.1460  1.5870 -0.6489
 5390TIP3   OH237660   3.886   2.492  13.194 -0.1237  0.5568  0.1312
 5390TIP3    H137661   3.903   2.496  13.100 -2.8447  1.4116 -0.4277
 5390TIP3    H237662   3.875   2.399  13.213 -1.5320  0.4944 -0.8579
 5391TIP3   OH237663   6.445   0.633   5.642  0.0775 -0.2407 -0.6750
 5391TIP3    H137664   6.530   0.604   5.610  0.5196  1.8916 -1.5856
 5391TIP3    H237665   6.461   0.660   5.733 -0.2212 -2.1311 -0.0071
 5392TIP3   OH237666   4.277   4.677  15.907  0.2711 -0.0075 -0.3217
 5392TIP3    H137667   4.192   4.698  15.869 -0.2718 -0.3962  0.6480
 5392TIP3    H237668   4.329   4.756  15.895 -0.3126  0.3307 -0.6827
 5393TIP3   OH237669   2.976   6.309   4.265  0.1494  0.1763 -0.6492
 5393TIP3    H137670   3.033   6.306   4.188  0.0882 -0.3253 -0.6840
 5393TIP3    H237671   2.969   6.217   4.292  0.2699  0.3599  0.0312
 5394TIP3   OH237672   6.592   1.091  11.278 -0.2925  0.5935  0.1665
 5394TIP3    H137673   6.593   1.098  11.183 -0.3338  1.8984  0.2480
 5394TIP3    H237674   6.663   1.030  11.298 -0.4712  0.0739 -0.6960
 5395TIP3   OH237675   5.624   1.695  14.316  0.0758  0.4233 -0.0878
 5395TIP3    H137676   5.657   1.708  14.404 -0.3978 -2.4685  0.6195
 5395TIP3    H237677   5.528   1.694  14.326  0.0268 -0.3458 -0.5368
 5396TIP3   OH237678   0.722   5.567  16.505  0.0412 -0.6977  0.1519
 5396TIP3    H137679   0.808   5.577  16.547 -0.1159  0.0654  0.2963
 5396TIP3    H237680   0.705   5.651  16.463 -0.2351 -1.1408 -0.6530
 5397TIP3   OH237681   4.696   6.425  15.242  0.2173  0.2331  0.2133
 5397TIP3    H137682   4.614   6.409  15.289  0.5937  0.6108  1.0243
 5397TIP3    H237683   4.674   6.413  15.150 -0.8553  0.7427  0.3894
 5398TIP3   OH237684   1.339   2.573   1.544  0.0663 -0.0374  0.0896
 5398TIP3    H137685   1.318   2.637   1.611  0.5213  0.2418 -0.0250
 5398TIP3    H237686   1.266   2.511   1.545 -0.2329  0.3175  0.4037
 5399TIP3   OH237687   3.464   0.168   0.590  0.4183 -0.2714 -0.7763
 5399TIP3    H137688   3.526   0.118   0.536  1.9387 -0.1236  0.7458
 5399TIP3    H237689   3.444   0.110   0.663 -2.6073 -0.9718 -2.0259
 5400TIP3   OH237690   4.503   0.116   4.145  0.0547 -0.4173 -0.1685
 5400TIP3    H137691   4.508   0.109   4.240 -1.0740 -1.1194 -0.1464
 5400TIP3    H237692   4.409   0.117   4.126  0.2674 -0.5841 -1.2925
 5401TIP3   OH237693   5.781   3.981   1.606  0.0219  0.1669 -0.7750
 5401TIP3    H137694   5.873   3.996   1.628 -0.4768  1.2793  0.6825
 5401TIP3    H237695   5.750   3.919   1.671 -0.4803  0.4689 -0.7187
 5402TIP3   OH237696   6.658   5.271   6.266  1.1331  0.2886 -0.1871
 5402TIP3    H137697   6.694   5.239   6.349 -0.8772  0.8334  0.9729
 5402TIP3    H237698   6.722   5.244   6.200  0.9746 -3.7113  1.0016
 5403TIP3   OH237699   0.374   0.882  11.736 -0.0766 -0.0944 -0.1330
 5403TIP3    H137700   0.310   0.948  11.763 -1.9498 -1.7837 -0.2576
 5403TIP3    H237701   0.410   0.917  11.654  0.8212  1.9079  1.0423
 5404TIP3   OH237702   0.099   1.481   0.377 -0.2485  0.1695 -0.0417
 5404TIP3    H137703   0.083   1.516   0.464  0.6856  0.9160 -0.1583
 5404TIP3    H237704   0.161   1.409   0.390 -0.0164  0.3577 -0.0961
 5405TIP3   OH237705   0.733   6.700  14.212  0.0371  0.2338 -0.0754
 5405TIP3    H137706   0.648   6.739  14.194 -0.6505 -1.3011 -0.2922
 5405TIP3    H237707   0.762   6.741  14.294 -0.6026  1.2377 -0.3413
 5406TIP3   OH237708   2.471   0.409  10.857  0.3799  0.0910 -0.3560
 5406TIP3    H137709   2.393   0.422  10.803  0.1017  0.7349  0.1792
 5406TIP3    H237710   2.516   0.335  10.817 -0.2047  0.0807 -1.0200
 5407TIP3   OH237711   2.771   2.551   4.403 -0.8669  0.6836  0.2710
 5407TIP3    H137712   2.835   2.573   4.335  0.3509 -2.4157  0.2581
 5407TIP3    H237713   2.793   2.608   4.477 -0.2953  2.0092 -0.8864
 5408TIP3   OH237714   5.688   5.685   4.545  0.3032 -0.5909 -0.2251
 5408TIP3    H137715   5.696   5.750   4.614  0.0316  0.2665 -0.9848
 5408TIP3    H237716   5.731   5.607   4.580 -1.1903 -0.6946  1.5418
 5409TIP3   OH237717   5.677   5.912   0.104  0.1775 -0.1631  0.6805
 5409TIP3    H137718   5.587   5.936   0.124 -0.4892 -0.6110 -1.4701
 5409TIP3    H237719   5.685   5.822   0.137  0.3243  0.3486  2.1193
 5410TIP3   OH237720   1.207   3.022   2.551 -0.2350  0.2884 -0.3957
 5410TIP3    H137721   1.281   3.078   2.529 -0.8716  0.8930 -1.0493
 5410TIP3    H237722   1.231   2.982   2.635  1.0697  0.0385 -0.8575
 5411TIP3   OH237723   5.772   3.839   2.659 -0.1321 -0.3467 -1.0565
 5411TIP3    H137724   5.830   3.852   2.734 -0.5225 -3.3818 -0.0873
 5411TIP3    H237725   5.695   3.892   2.679  0.9296  1.1648 -0.7833
 5412TIP3   OH237726   2.561   1.235   0.631 -0.4267  0.2127  0.1329
 5412TIP3    H137727   2.526   1.170   0.692 -0.6928 -0.5487 -0.8097
 5412TIP3    H237728   2.656   1.224   0.636 -0.4270  0.4447  0.7144
 5413TIP3   OH237729   1.383   4.069   4.815  0.4735  0.1071  0.3446
 5413TIP3    H137730   1.333   4.108   4.744 -0.8648 -0.1496  1.1194
 5413TIP3    H237731   1.444   4.009   4.771  0.2487  0.5641 -0.6225
 5414TIP3   OH237732   1.182   3.217   4.774  0.2605 -0.8059 -1.0130
 5414TIP3    H137733   1.263   3.165   4.764 -0.2881 -1.5588 -1.7003
 5414TIP3    H237734   1.207   3.289   4.832  0.7883 -2.4330  0.9051
 5415TIP3   OH237735   0.703   3.928   4.790 -0.1235  0.1224  0.2272
 5415TIP3    H137736   0.684   3.864   4.857 -2.6509  0.2609 -0.2801
 5415TIP3    H237737   0.783   3.972   4.821 -0.0259 -1.2240  2.0377
 5416TIP3   OH237738   5.701   6.853  13.473  0.1477  0.2096  0.0741
 5416TIP3    H137739   5.642   6.778  13.458 -0.8132  1.1552 -1.0116
 5416TIP3    H237740   5.726   6.844  13.565 -0.1110 -1.3310  0.0276
 5417TIP3   OH237741   5.616   4.367   0.839 -0.1112 -0.3753 -0.3986
 5417TIP3    H137742   5.597   4.307   0.768  0.9450 -0.7585 -0.3745
 5417TIP3    H237743   5.685   4.424   0.805 -1.9693  1.7405 -0.9013
 5418TIP3   OH237744   1.840   1.790  14.982  0.0343  0.2165 -0.0715
 5418TIP3    H137745   1.917   1.764  15.033 -0.4720  2.3064  1.9477
 5418TIP3    H237746   1.822   1.715  14.925  2.1659 -1.2342  1.0214
 5419TIP3   OH237747   4.591   5.102  16.712 -0.4601 -0.2250  0.6556
 5419TIP3    H137748   4.659   5.040  16.686  0.0467  0.9093 -0.8699
 5419TIP3    H237749   4.601   5.111  16.807  1.0209 -0.6583  0.5597
 5420TIP3   OH237750   2.636   1.033   1.675 -0.2770 -0.2245 -0.0164
 5420TIP3    H137751   2.705   0.972   1.652 -0.9699 -0.5286 -1.3589
 5420TIP3    H237752   2.579   0.983   1.734 -1.1767 -1.1167 -1.5918
 5421TIP3   OH237753   3.719   4.087  10.905  0.1730  0.2519  0.0480
 5421TIP3    H137754   3.794   4.031  10.890  1.1152  1.4055  0.3015
 5421TIP3    H237755   3.720   4.104  11.000  0.5825  1.5966 -0.1770
 5422TIP3   OH237756   0.793   0.861  16.502 -0.8489 -0.3171  0.2914
 5422TIP3    H137757   0.745   0.853  16.584 -0.2234  3.0847  1.1371
 5422TIP3    H237758   0.853   0.787  16.501 -2.9090 -2.0999  1.3905
 5423TIP3   OH237759   5.101   4.426  14.779  0.4043 -0.1960 -0.5274
 5423TIP3    H137760   5.128   4.445  14.689  1.4585  0.7570 -0.0353
 5423TIP3    H237761   5.178   4.448  14.832  1.0877 -3.9885  0.3455
 5424TIP3   OH237762   0.305   3.254   2.210  0.1142  0.0801 -0.0626
 5424TIP3    H137763   0.247   3.299   2.148 -0.4960 -0.7431 -0.1037
 5424TIP3    H237764   0.371   3.211   2.155 -1.2933 -1.9112 -0.3093
 5425TIP3   OH237765   1.741   2.532   2.884 -0.0065  0.3122  0.3656
 5425TIP3    H137766   1.766   2.598   2.819 -1.2145  0.5086  0.0780
 5425TIP3    H237767   1.646   2.538   2.889 -0.0532 -0.7381  1.0673
 5426TIP3   OH237768   4.401   2.332   3.151  0.1975 -0.9764 -0.3503
 5426TIP3    H137769   4.397   2.408   3.092 -1.2168  0.0357  0.9679
 5426TIP3    H237770   4.312   2.296   3.149  0.4514 -1.6420  0.2411
 5427TIP3   OH237771   4.305   6.452   3.094  0.5287  0.5298 -0.0939
 5427TIP3    H137772   4.231   6.392   3.087 -0.1836  1.2837  0.7404
 5427TIP3    H237773   4.284   6.507   3.170  1.4731  1.3896 -0.4385
 5428TIP3   OH237774   2.281   2.779   0.942 -0.1963  0.4647  0.3138
 5428TIP3    H137775   2.225   2.717   0.989  1.7549 -0.7481  1.1315
 5428TIP3    H237776   2.302   2.735   0.859 -1.0623  1.2662 -0.3616
 5429TIP3   OH237777   5.660   6.625   1.812 -0.4592 -0.1311  0.0408
 5429TIP3    H137778   5.707   6.559   1.862 -0.6285 -0.1766  0.1384
 5429TIP3    H237779   5.585   6.579   1.775 -1.3171  0.3130  1.2016
 5430TIP3   OH237780   4.301   3.820   1.943 -0.2547 -0.3208 -0.4864
 5430TIP3    H137781   4.249   3.768   1.882 -1.7684 -0.6279  1.0203
 5430TIP3    H237782   4.267   3.909   1.933  1.1602  0.1232 -1.8005
 5431TIP3   OH237783   6.542   5.270  13.854  0.1591 -0.4118 -0.1959
 5431TIP3    H137784   6.610   5.254  13.919 -1.0753 -0.2873  1.1912
 5431TIP3    H237785   6.520   5.184  13.820  0.8433 -0.4756 -0.4842
 5432TIP3   OH237786   5.796   5.893  10.716  0.5184  0.9002  0.4149
 5432TIP3    H137787   5.846   5.974  10.707  1.4393  0.2974  0.0677
 5432TIP3    H237788   5.844   5.829  10.664 -0.1236  0.0890  0.8087
 5433TIP3   OH237789   3.116   1.470  13.857 -0.2699 -0.3594  0.7796
 5433TIP3    H137790   3.041   1.527  13.839 -0.5781 -1.1576 -0.5733
 5433TIP3    H237791   3.192   1.524  13.837 -0.5580 -0.3801 -0.4370
 5434TIP3   OH237792   4.027   4.059  13.776  0.3136 -0.1361  0.3373
 5434TIP3    H137793   3.994   4.047  13.865 -0.7864  1.0385  0.1253
 5434TIP3    H237794   4.017   4.152  13.759  1.0814 -0.2385 -0.8105
 5435TIP3   OH237795   6.279   6.496   1.540  0.0708  0.0785 -0.0189
 5435TIP3    H137796   6.222   6.542   1.602  1.2099 -0.2098  1.2866
 5435TIP3    H237797   6.298   6.412   1.583  0.2505 -0.4659 -1.1229
 5436TIP3   OH237798   3.533   0.498  15.312  0.1795 -0.1011  0.0023
 5436TIP3    H137799   3.503   0.418  15.268  0.8809  0.4299 -1.5320
 5436TIP3    H237800   3.481   0.503  15.392 -0.2877 -1.7796 -0.1595
 5437TIP3   OH237801   1.149   0.256   1.106 -0.4772 -0.4561 -0.8241
 5437TIP3    H137802   1.137   0.165   1.080  1.7303 -1.3074  0.8582
 5437TIP3    H237803   1.243   0.265   1.120 -0.3190  2.6994 -2.8843
 5438TIP3   OH237804   4.688   5.032  14.834  0.1018 -0.1552 -0.1937
 5438TIP3    H137805   4.654   5.055  14.747  0.4841  1.0816 -0.0352
 5438TIP3    H237806   4.632   5.080  14.895  2.0197  1.9237  0.0691
 5439TIP3   OH237807   4.777   6.166   5.670  0.2710  0.1664 -0.5396
 5439TIP3    H137808   4.750   6.098   5.731  1.7390 -0.6568 -0.7827
 5439TIP3    H237809   4.761   6.128   5.583 -0.9242  0.9758 -0.7061
 5440TIP3   OH237810   3.480   3.547   0.871  0.3586  0.2296  0.1799
 5440TIP3    H137811   3.409   3.603   0.902  0.5622  0.3158  0.5013
 5440TIP3    H237812   3.446   3.505   0.793 -0.7103 -1.1339  1.3215
 5441TIP3   OH237813   1.873   6.089  14.445  0.1229 -0.0471 -0.0303
 5441TIP3    H137814   1.806   6.114  14.509  0.6547  1.2996  0.0151
 5441TIP3    H237815   1.826   6.083  14.362 -0.3609 -0.7448  0.2791
 5442TIP3   OH237816   5.605   5.090   5.678 -0.1869  0.3219  0.6184
 5442TIP3    H137817   5.625   5.065   5.769  0.3388  0.8133  0.6393
 5442TIP3    H237818   5.672   5.154   5.655 -0.2859  0.1618 -0.1401
 5443TIP3   OH237819   4.175   0.217   1.891  0.1283 -0.6646 -0.6912
 5443TIP3    H137820   4.218   0.290   1.845  0.9131 -0.6721  0.0016
 5443TIP3    H237821   4.137   0.164   1.821 -2.4067  1.5356 -1.1312
 5444TIP3   OH237822   1.098   3.630   5.995  0.0343 -0.4650 -0.3917
 5444TIP3    H137823   1.090   3.535   5.987  0.1920 -0.4574 -0.6528
 5444TIP3    H237824   1.135   3.644   6.082 -1.0067 -0.5870  0.0873
 5445TIP3   OH237825   4.808   0.352  15.091 -0.1563  0.3578 -0.3449
 5445TIP3    H137826   4.760   0.419  15.042 -2.4447 -2.6840 -2.6416
 5445TIP3    H237827   4.747   0.325  15.160  0.5781  0.3302  0.3031
 5446TIP3   OH237828   2.429   2.150   5.347 -0.2594 -0.1018  0.3691
 5446TIP3    H137829   2.424   2.245   5.348 -0.8136 -0.0992 -0.7407
 5446TIP3    H237830   2.338   2.121   5.354 -0.3733 -0.4705 -1.8656
 5447TIP3   OH237831   5.124   1.046   4.902 -0.3278 -0.1308 -0.5466
 5447TIP3    H137832   5.147   0.973   4.844  0.7435  1.0430 -1.6667
 5447TIP3    H237833   5.142   1.124   4.850 -1.5757  0.9535  0.5708
 5448TIP3   OH237834   4.103   0.905   3.266  0.2133  0.1074  0.3926
 5448TIP3    H137835   4.139   0.871   3.348  1.1216  1.2943  0.5099
 5448TIP3    H237836   4.079   0.995   3.286 -0.1230  0.2233 -0.4842
 5449TIP3   OH237837   4.572   5.220  15.071 -0.5298 -0.4908  0.1509
 5449TIP3    H137838   4.511   5.294  15.071 -0.1619 -0.1782 -0.5335
 5449TIP3    H237839   4.656   5.258  15.047  0.3099 -0.6549  2.5798
 5450TIP3   OH237840   5.646   0.947  14.465  0.3955 -0.1537  0.5257
 5450TIP3    H137841   5.569   0.921  14.414  0.1209 -1.4713  1.5573
 5450TIP3    H237842   5.699   0.997  14.403 -1.1929  0.6584 -0.2583
 5451TIP3   OH237843   6.767   4.537  13.537  0.3746  0.8614  0.1684
 5451TIP3    H137844   6.705   4.521  13.466 -2.4713  2.6801  1.9991
 5451TIP3    H237845   6.843   4.576  13.495 -0.5769  0.4570 -2.0370
 5452TIP3   OH237846   1.377   4.970   5.393 -0.8490  0.0195  0.2455
 5452TIP3    H137847   1.385   4.980   5.298 -0.4805  3.3099  0.5073
 5452TIP3    H237848   1.285   4.950   5.407 -0.8808 -0.6547 -0.7882
 5453TIP3   OH237849   1.688   1.481   0.703  0.0901  0.4845 -0.2019
 5453TIP3    H137850   1.779   1.500   0.683 -0.0227 -0.8669 -2.3190
 5453TIP3    H237851   1.689   1.450   0.794  1.4950  1.7009  0.2466
 5454TIP3   OH237852   2.321   4.089  14.693 -0.4047 -0.1241 -0.0160
 5454TIP3    H137853   2.230   4.093  14.723 -0.3564 -2.5607  0.6343
 5454TIP3    H237854   2.317   4.037  14.613  0.4675 -0.6477  0.2677
 5455TIP3   OH237855   4.132   6.255  16.601  0.3259 -0.4865  0.0758
 5455TIP3    H137856   4.052   6.306  16.610  0.2797 -0.5921  0.2729
 5455TIP3    H237857   4.143   6.212  16.686  2.1084  1.7119  1.0683
 5456TIP3   OH237858   1.654   1.986  14.131 -0.4545  0.1682  0.2904
 5456TIP3    H137859   1.716   2.000  14.059 -0.7275 -1.4327 -0.2760
 5456TIP3    H237860   1.611   2.071  14.142 -0.9744  0.2602 -1.9824
 5457TIP3   OH237861   0.976   6.405  15.614 -0.6749  0.6064 -0.0711
 5457TIP3    H137862   1.003   6.491  15.648 -0.1668  0.3177  0.2681
 5457TIP3    H237863   0.882   6.401  15.632 -0.5403  0.7392  0.7076
 5458TIP3   OH237864   4.432   1.642  14.282 -0.0153  0.2271 -0.2493
 5458TIP3    H137865   4.435   1.715  14.344 -0.2416 -0.0398  0.0767
 5458TIP3    H237866   4.424   1.564  14.337 -0.0789 -0.0199 -0.6094
 5459TIP3   OH237867   0.764   6.503   0.742  0.6271 -0.1776  0.9239
 5459TIP3    H137868   0.713   6.542   0.813 -0.4042 -0.5299  0.4005
 5459TIP3    H237869   0.733   6.413   0.737  0.3211 -0.0197 -0.3009
 5460TIP3   OH237870   1.706   1.854   4.962 -0.3579  0.3799 -0.2675
 5460TIP3    H137871   1.620   1.818   4.983 -1.0176  0.7288 -2.1607
 5460TIP3    H237872   1.768   1.800   5.011 -1.6108 -0.1369  0.8109
 5461TIP3   OH237873   2.301   0.270  14.465 -0.5019 -0.1949  0.0021
 5461TIP3    H137874   2.309   0.365  14.459 -2.9121  0.1446  0.9140
 5461TIP3    H237875   2.365   0.245  14.532 -0.1436  0.8518  0.0746
 5462TIP3   OH237876   6.423   2.716  13.967 -0.6077  0.2178  0.2391
 5462TIP3    H137877   6.376   2.672  14.038 -0.1148 -0.6635  0.0311
 5462TIP3    H237878   6.507   2.670  13.961  0.0473  1.3728  0.2007
 5463TIP3   OH237879   1.068   3.890  16.003 -0.9573  0.5264 -0.4653
 5463TIP3    H137880   1.082   3.816  16.062  2.0647  0.0774 -1.5780
 5463TIP3    H237881   1.060   3.850  15.916 -2.4049  1.3610 -0.7420
 5464TIP3   OH237882   1.769   6.434   5.324 -0.4426 -0.1841 -0.2310
 5464TIP3    H137883   1.684   6.460   5.359 -0.7839 -1.5843  0.0626
 5464TIP3    H237884   1.822   6.418   5.402 -0.6555 -1.5940 -0.3549
 5465TIP3   OH237885   2.448   0.278  14.164 -0.3880  0.3816  0.2504
 5465TIP3    H137886   2.362   0.255  14.198 -0.4749  0.5728  0.1623
 5465TIP3    H237887   2.504   0.288  14.241 -0.9923  2.5308  0.4673
 5466TIP3   OH237888   3.657   0.242  11.287  0.1299 -0.7010  0.4166
 5466TIP3    H137889   3.568   0.215  11.309 -0.3180  0.6499  0.3474
 5466TIP3    H237890   3.653   0.264  11.194  0.2175  0.5372  0.6916
 5467TIP3   OH237891   3.302   0.918   4.117  0.5843  0.2393 -0.2985
 5467TIP3    H137892   3.332   0.865   4.043  0.2823  1.2183 -1.1332
 5467TIP3    H237893   3.381   0.935   4.168  0.9535  0.3447 -0.9013
 5468TIP3   OH237894   1.036   6.207  11.660 -0.3212 -0.2706  0.0583
 5468TIP3    H137895   1.103   6.177  11.721 -0.5248 -0.7635  0.0422
 5468TIP3    H237896   1.049   6.302  11.655 -0.3881 -0.1987  0.9794
 5469TIP3   OH237897   2.670   6.129   4.220 -0.3683 -0.9285 -0.0885
 5469TIP3    H137898   2.647   6.185   4.294  0.2242 -0.4464 -0.2614
 5469TIP3    H237899   2.622   6.048   4.235  0.0734 -0.9917  1.0354
 5470TIP3   OH237900   1.835   4.480  14.639  0.2128 -0.2892  0.0922
 5470TIP3    H137901   1.749   4.514  14.613 -0.5488 -2.1553 -0.0279
 5470TIP3    H237902   1.873   4.549  14.693 -0.9463  0.9775 -0.6323
 5471TIP3   OH237903   3.940   6.089   6.507 -0.5448 -0.0192  0.5493
 5471TIP3    H137904   3.874   6.088   6.576 -0.4124 -0.0801  0.6742
 5471TIP3    H237905   3.990   6.169   6.522 -0.6298  0.0606  0.4161
 5472TIP3   OH237906   1.144   3.464   1.289  0.0289  0.4224 -0.0346
 5472TIP3    H137907   1.083   3.537   1.279 -0.9879 -0.5441 -1.2332
 5472TIP3    H237908   1.172   3.444   1.199  1.6356  0.4362  0.4393
 5473TIP3   OH237909   6.329   6.818  14.555  0.0636  0.4661  0.5766
 5473TIP3    H137910   6.395   6.861  14.609  1.6746 -0.0604 -0.8923
 5473TIP3    H237911   6.377   6.755  14.502 -1.4468  0.7580 -1.2835
 5474TIP3   OH237912   1.066   5.396   5.552  0.2111  0.0854  0.2907
 5474TIP3    H137913   1.042   5.463   5.488 -2.6914 -1.0273  0.0540
 5474TIP3    H237914   0.986   5.383   5.603  1.2346 -1.9688  1.4708
 5475TIP3   OH237915   2.887   6.427   1.677  0.2323 -0.2768 -0.2483
 5475TIP3    H137916   2.950   6.365   1.713  3.4171  1.7470 -1.9170
 5475TIP3    H237917   2.899   6.422   1.582 -2.0835  0.3181 -0.6495
 5476TIP3   OH237918   3.669   4.357  15.535  0.1186  0.3940  0.0044
 5476TIP3    H137919   3.673   4.348  15.440 -0.8890  0.0978 -0.0249
 5476TIP3    H237920   3.576   4.367  15.554  0.2508 -0.1252  1.0109
 5477TIP3   OH237921   3.747   4.566  13.043  0.1030  0.0805 -0.4136
 5477TIP3    H137922   3.764   4.512  12.966  1.2786  1.0031 -0.8334
 5477TIP3    H237923   3.834   4.586  13.078 -0.4170 -0.9371  1.6118
 5478TIP3   OH237924   2.505   1.484  12.146  0.5710 -0.1886  0.3480
 5478TIP3    H137925   2.492   1.573  12.113  0.3480  0.0200  0.9832
 5478TIP3    H237926   2.437   1.473  12.213 -1.2130 -1.8103 -1.5654
 5479TIP3   OH237927   0.452   4.708  12.619  0.1061  0.3607 -0.5362
 5479TIP3    H137928   0.484   4.665  12.698 -0.8694 -0.4550 -0.5521
 5479TIP3    H237929   0.526   4.707  12.559 -0.0607 -2.0778 -0.8218
 5480TIP3   OH237930   2.161   2.835   3.889  0.4951 -0.2003 -0.0277
 5480TIP3    H137931   2.192   2.911   3.938  2.1667 -0.2943 -0.8782
 5480TIP3    H237932   2.079   2.864   3.848  0.6707  0.8487  0.3451
 5481TIP3   OH237933   0.337   6.489   2.619 -1.1346  0.1165 -0.0687
 5481TIP3    H137934   0.424   6.523   2.639 -0.8130 -0.1190 -1.0303
 5481TIP3    H237935   0.327   6.413   2.677 -1.1217  0.7405  0.7718
 5482TIP3   OH237936   3.357   5.032   5.641  0.8586 -0.3938 -0.3382
 5482TIP3    H137937   3.401   4.974   5.579  0.4627  0.7600 -1.7506
 5482TIP3    H237938   3.293   5.080   5.588  1.0963  1.2519  0.7825
 5483TIP3   OH237939   3.037   5.138  12.550 -0.0272 -0.0665  0.3202
 5483TIP3    H137940   3.075   5.174  12.469  1.3648  0.1560  1.0562
 5483TIP3    H237941   2.942   5.152  12.539  0.1614  0.3067 -1.0979
 5484TIP3   OH237942   3.406   2.993  15.258  0.2870 -0.0146  0.3573
 5484TIP3    H137943   3.471   3.058  15.231  0.1061  0.4749  1.0698
 5484TIP3    H237944   3.360   3.034  15.332 -1.2849 -0.0719 -0.5319
 5485TIP3   OH237945   6.593   1.109   3.790  0.4234  0.4790  0.0366
 5485TIP3    H137946   6.652   1.184   3.788  2.4123 -1.0248 -0.3077
 5485TIP3    H237947   6.563   1.104   3.881  0.8758  1.2043  0.2322
 5486TIP3   OH237948   3.547   3.905   2.014  0.3941  0.0579 -0.2423
 5486TIP3    H137949   3.528   3.963   2.088  2.1744  0.3376  0.0376
 5486TIP3    H237950   3.600   3.959   1.955 -1.8347  0.1862 -2.2824
 5487TIP3   OH237951   1.828   1.288  13.588  0.2752  0.2575 -0.3293
 5487TIP3    H137952   1.897   1.229  13.617  1.6507  1.4910 -0.9871
 5487TIP3    H237953   1.823   1.274  13.493  1.2411  1.8000 -0.6323
 5488TIP3   OH237954   5.860   5.357  13.848  0.4165 -0.1663  0.1954
 5488TIP3    H137955   5.779   5.336  13.800  1.0253 -0.7274 -0.6185
 5488TIP3    H237956   5.900   5.272  13.866  0.2768  0.0395  1.6111
 5489TIP3   OH237957   2.327   1.235  16.302 -0.0275  0.0978 -0.1629
 5489TIP3    H137958   2.236   1.233  16.331  0.2917 -3.0964  1.0533
 5489TIP3    H237959   2.329   1.180  16.224  0.8002  0.5861 -0.4998
 5490TIP3   OH237960   6.768   4.977   0.805  0.0887  0.3769 -0.2086
 5490TIP3    H137961   6.839   4.996   0.867 -0.0518  0.3805 -0.0483
 5490TIP3    H237962   6.765   4.882   0.801 -0.9182  0.3273  0.9789
 5491TIP3   OH237963   1.668   6.872  12.062 -0.0651  0.1341 -0.4397
 5491TIP3    H137964   1.595   6.842  12.008 -0.4245 -0.8083  0.5363
 5491TIP3    H237965   1.719   6.929  12.004 -0.1658 -1.2014 -1.9394
 5492TIP3   OH237966   5.744   3.355  13.476 -0.2901 -0.2519 -0.7822
 5492TIP3    H137967   5.701   3.294  13.416  0.9802  0.9271 -2.9963
 5492TIP3    H237968   5.803   3.300  13.527 -1.3401 -1.2708 -0.6085
 5493TIP3   OH237969   5.262   1.735   0.031 -0.1005 -0.0751 -0.0762
 5493TIP3    H137970   5.285   1.800  -0.035 -1.4520  0.4286 -0.0732
 5493TIP3    H237971   5.171   1.712   0.013 -0.7369  0.5764  1.9884
 5494TIP3   OH237972   2.533   0.698   5.063 -1.1293 -0.6746  0.9600
 5494TIP3    H137973   2.593   0.766   5.032 -0.6467 -0.3938  2.4214
 5494TIP3    H237974   2.447   0.741   5.064 -1.1605 -0.6855  0.0892
 5495TIP3   OH237975   5.104   4.741  15.159 -0.1406  0.2943  0.0984
 5495TIP3    H137976   5.010   4.737  15.180  0.3097 -1.1842  2.2072
 5495TIP3    H237977   5.145   4.766  15.241  1.3848  0.3045 -0.6426
 5496TIP3   OH237978   4.013   3.872   5.607 -0.3333 -0.3993  0.4378
 5496TIP3    H137979   3.997   3.781   5.633 -0.0974 -0.5484  0.0699
 5496TIP3    H237980   4.099   3.871   5.566 -0.2511  0.0264  0.5900
 5497TIP3   OH237981   2.668   1.107   1.217 -0.4405 -0.1583  0.0194
 5497TIP3    H137982   2.744   1.050   1.228 -0.2357 -0.3061 -1.7813
 5497TIP3    H237983   2.643   1.132   1.305  2.7720  1.3239  0.6376
 5498TIP3   OH237984   4.924   1.200   1.877 -0.1229  0.2073 -0.4486
 5498TIP3    H137985   4.937   1.117   1.924  1.0704  1.0333  0.7320
 5498TIP3    H237986   4.996   1.202   1.814  0.8070  1.0354  0.5938
 5499TIP3   OH237987   2.266   6.696  11.088 -0.1369  0.0022 -0.1733
 5499TIP3    H137988   2.217   6.756  11.144  0.4566 -0.4996  0.9118
 5499TIP3    H237989   2.342   6.746  11.059 -0.8842  0.5481 -1.2802
 5500TIP3   OH237990   5.897   6.455  14.155  0.1291  0.0607 -0.4007
 5500TIP3    H137991   5.921   6.484  14.068 -1.9214  1.6545 -0.5118
 5500TIP3    H237992   5.879   6.361  14.145 -0.7813  0.3557 -1.8955
 5501TIP3   OH237993   4.827   0.996   3.997 -0.2957  0.1396 -0.6437
 5501TIP3    H137994   4.732   0.984   4.003 -0.1918 -0.8378 -0.6994
 5501TIP3    H237995   4.841   1.036   3.912 -0.5346 -1.5560 -1.5344
 5502TIP3   OH237996   4.533   2.332  11.120 -0.5713 -0.4638  0.1468
 5502TIP3    H137997   4.539   2.365  11.209  1.9589 -0.2380 -0.0396
 5502TIP3    H237998   4.476   2.394  11.075 -0.8225  0.1469  1.2848
 5503TIP3   OH237999   3.119   6.323   1.216  0.1956  0.2868  0.1154
 5503TIP3    H138000   3.107   6.236   1.179  1.5508 -0.0942  0.4869
 5503TIP3    H238001   3.056   6.378   1.171 -1.0745 -0.9896  0.2694
 5504TIP3   OH238002   3.866   6.708  13.237 -0.1828  0.3070  0.3570
 5504TIP3    H138003   3.821   6.761  13.172 -1.1274 -1.5685 -0.5936
 5504TIP3    H238004   3.808   6.707  13.313  0.3361  1.4517  0.7981
 5505TIP3   OH238005   2.691   4.316  12.979 -0.2227 -0.5498 -0.2790
 5505TIP3    H138006   2.650   4.396  13.011 -0.5752 -1.0056  0.4418
 5505TIP3    H238007   2.758   4.296  13.044  0.6707 -0.2189 -1.0608
 5506TIP3   OH238008   1.198   1.177  13.381 -0.0061  0.4312  0.1749
 5506TIP3    H138009   1.146   1.125  13.442  1.8063 -1.0704  0.5462
 5506TIP3    H238010   1.183   1.268  13.408 -0.0990 -0.1305  2.1916
 5507TIP3   OH238011   4.724   0.291   0.109  0.6950  0.1843  0.0015
 5507TIP3    H138012   4.647   0.240   0.131  0.3296  0.9035  0.4416
 5507TIP3    H238013   4.769   0.240   0.041  0.6158 -0.9525  0.7789
 5508TIP3   OH238014   4.148   0.637   5.203  0.3707 -0.2428 -0.1874
 5508TIP3    H138015   4.213   0.704   5.182  1.3375 -1.7486 -2.2700
 5508TIP3    H238016   4.185   0.589   5.277  1.4979 -0.8669 -1.1329
 5509TIP3   OH238017   6.373   0.586   1.546  0.2049 -0.3863  0.5221
 5509TIP3    H138018   6.359   0.528   1.621 -2.2002  1.6500  1.8468
 5509TIP3    H238019   6.468   0.598   1.542  0.7323 -3.6463  0.6567
 5510TIP3   OH238020   0.382   1.494  14.235  0.2667  0.1682 -0.8281
 5510TIP3    H138021   0.415   1.450  14.314  0.7277  1.1913 -0.4251
 5510TIP3    H238022   0.293   1.521  14.257  0.1296 -0.2121 -0.9261
 5511TIP3   OH238023   5.855   4.512  15.271 -0.6095  0.4253  0.3976
 5511TIP3    H138024   5.851   4.497  15.177 -0.4432 -0.0243  0.4569
 5511TIP3    H238025   5.783   4.572  15.290 -0.5309  0.6548 -0.0402
 5512TIP3   OH238026   1.977   1.641   1.068 -0.3592 -0.1360  0.0851
 5512TIP3    H138027   1.908   1.584   1.100  0.9273 -0.5234  2.3744
 5512TIP3    H238028   1.971   1.634   0.972 -0.7394 -3.5139  0.2330
 5513TIP3   OH238029   5.945   4.541  11.773 -0.7612 -0.1585 -0.1516
 5513TIP3    H138030   5.949   4.445  11.773 -1.5552 -0.2013 -0.5027
 5513TIP3    H238031   6.025   4.568  11.727 -0.5007 -0.6447  0.0067
 5514TIP3   OH238032   5.868   6.332   5.653 -0.0060 -0.0850  0.6862
 5514TIP3    H138033   5.886   6.238   5.659  0.0883 -0.1026  0.1688
 5514TIP3    H238034   5.825   6.343   5.568  0.3449  0.3948  0.5665
 5515TIP3   OH238035   2.836   0.060   0.947  0.1608  0.3220  0.0937
 5515TIP3    H138036   2.885   0.118   1.005  2.3539 -0.5988 -0.7662
 5515TIP3    H238037   2.896   0.040   0.876 -1.1810 -1.5443 -0.5963
 5516TIP3   OH238038   1.412   3.157   3.035 -0.2678 -0.4303  0.0752
 5516TIP3    H138039   1.452   3.135   3.119  0.1951  2.8183  0.8545
 5516TIP3    H238040   1.449   3.243   3.013 -0.0385 -1.3343 -3.7068
 5517TIP3   OH238041   6.552   5.786   2.637 -0.0462 -0.0512  0.1019
 5517TIP3    H138042   6.588   5.849   2.699 -0.0404 -1.6786  1.8256
 5517TIP3    H238043   6.457   5.792   2.649 -0.1215  0.5348 -0.6928
 5518TIP3   OH238044   4.789   6.105  13.448 -0.3199  0.1331 -0.2651
 5518TIP3    H138045   4.707   6.055  13.452 -0.3892  0.2837  0.3111
 5518TIP3    H238046   4.800   6.125  13.355 -1.0786  0.3332 -0.3210
 5519TIP3   OH238047   2.488   3.165  11.853 -0.0600 -0.1123  0.5114
 5519TIP3    H138048   2.484   3.158  11.948 -0.2608  0.7026  0.5669
 5519TIP3    H238049   2.557   3.229  11.836 -1.2683  1.1444  0.1823
 5520TIP3   OH238050   2.438   4.052   4.564 -0.3756 -0.7126  0.4291
 5520TIP3    H138051   2.431   3.957   4.568  0.4345 -0.7594  1.0679
 5520TIP3    H238052   2.492   4.075   4.639  2.3450 -0.0723 -1.5611
 5521TIP3   OH238053   6.746   1.010   2.800  0.1508 -0.1918  0.8407
 5521TIP3    H138054   6.763   1.071   2.871  0.2776 -0.0900  0.7251
 5521TIP3    H238055   6.808   0.938   2.814 -0.1729 -0.4166  1.1211
 5522TIP3   OH238056   1.598   3.162   2.697 -0.1278  0.1954  0.5241
 5522TIP3    H138057   1.605   3.088   2.757 -1.9851  0.9261  1.7603
 5522TIP3    H238058   1.639   3.235   2.744  1.6273  0.0156 -0.6530
 5523TIP3   OH238059   0.655   3.881   0.028  0.8723  0.2191 -0.5372
 5523TIP3    H138060   0.562   3.882   0.003  0.8209  1.4565 -0.3384
 5523TIP3    H238061   0.702   3.872  -0.054  0.6322  1.8173 -0.8656
 5524TIP3   OH238062   5.254   2.332  13.100 -0.2914  0.2095  0.1981
 5524TIP3    H138063   5.218   2.418  13.083  1.7107  0.8451 -1.2283
 5524TIP3    H238064   5.277   2.333  13.193 -3.0147  0.0511  0.9533
 5525TIP3   OH238065   2.064   0.347  13.019  0.3926 -0.4728  0.1786
 5525TIP3    H138066   2.109   0.404  13.081 -1.3828  0.4477  0.6893
 5525TIP3    H238067   2.124   0.341  12.944  1.1119  1.1509  0.5819
 5526TIP3   OH238068   0.136   1.547  14.308  0.2914 -0.1018  0.3405
 5526TIP3    H138069   0.116   1.639  14.293  1.7708  0.1319 -0.3137
 5526TIP3    H238070   0.052   1.509  14.335 -0.2483  1.5156  1.1008
 5527TIP3   OH238071   3.408   5.954  12.504 -0.1874  0.3090 -0.3092
 5527TIP3    H138072   3.412   6.002  12.422 -0.8743 -0.2662 -0.6938
 5527TIP3    H238073   3.445   6.013  12.569  2.5753 -0.0718 -1.3982
 5528TIP3   OH238074   6.549   6.422   4.476  0.2959  0.3553 -0.3073
 5528TIP3    H138075   6.463   6.382   4.458  0.7967 -1.2154  0.6382
 5528TIP3    H238076   6.593   6.422   4.390  0.1202 -0.7856 -0.4196
 5529TIP3   OH238077   2.765   1.627   2.562  1.1664 -0.1139  0.3942
 5529TIP3    H138078   2.827   1.578   2.507 -1.1267 -1.8711 -0.8083
 5529TIP3    H238079   2.709   1.560   2.601 -0.9297  1.4476  0.2403
 5530TIP3   OH238080   6.282   2.988   0.315 -0.5397 -0.0399 -0.0548
 5530TIP3    H138081   6.244   3.072   0.288 -0.5869  0.2917  1.0139
 5530TIP3    H238082   6.207   2.935   0.342 -0.4208 -0.0879  0.1840
 5531TIP3   OH238083   3.626   2.743  15.619 -0.0921 -0.2909 -0.0518
 5531TIP3    H138084   3.535   2.729  15.648  0.1511  0.3864  1.1270
 5531TIP3    H238085   3.643   2.835  15.638  0.6830 -0.2764 -0.7548
 5532TIP3   OH238086   5.249   3.745  14.030 -0.1338  0.1520 -0.6444
 5532TIP3    H138087   5.156   3.738  14.009 -0.1938 -1.5124  0.0390
 5532TIP3    H238088   5.255   3.717  14.122  1.0661 -0.0420 -0.7636
 5533TIP3   OH238089   4.665   3.106   2.076  0.0558  0.7156  0.1838
 5533TIP3    H138090   4.585   3.058   2.053  0.1450 -0.0871  1.4264
 5533TIP3    H238091   4.721   3.041   2.118  1.2147  1.3582 -0.3198
 5534TIP3   OH238092   1.755   6.834   0.920  0.4649 -0.2853 -0.9497
 5534TIP3    H138093   1.803   6.797   0.994  1.6240 -0.6083 -1.8429
 5534TIP3    H238094   1.724   6.758   0.870  0.2521 -0.0671 -1.1549
 5535TIP3   OH238095   4.297   6.877   0.313  0.4887  0.3712 -0.6439
 5535TIP3    H138096   4.326   6.872   0.404 -0.8630  1.7781 -0.1022
 5535TIP3    H238097   4.376   6.901   0.264  0.9565  0.8558  0.3243
 5536TIP3   OH238098   0.231   2.703  15.272 -0.6741 -1.0882 -0.0740
 5536TIP3    H138099   0.264   2.678  15.186  0.2683  0.5902 -0.2378
 5536TIP3    H238100   0.308   2.705  15.328 -0.6027  1.5308 -0.1323
 5537TIP3   OH238101   1.388   5.609  14.879 -0.2206  0.0675  0.3722
 5537TIP3    H138102   1.333   5.542  14.838  1.4863 -0.4422 -1.1723
 5537TIP3    H238103   1.342   5.692  14.860  0.4875 -0.1315 -2.7137
 5538TIP3   OH238104   5.667   5.781   3.797  0.2632  0.0244 -0.2352
 5538TIP3    H138105   5.733   5.851   3.800  0.6095 -0.2588 -1.0954
 5538TIP3    H238106   5.603   5.811   3.733  0.1971 -0.2650 -0.3057
 5539TIP3   OH238107   5.906   6.648  15.812 -0.3589 -0.0729  0.1648
 5539TIP3    H138108   5.839   6.580  15.814 -0.9456  0.4975  0.2779
 5539TIP3    H238109   5.863   6.726  15.848  0.2740  0.3818 -0.0362
 5540TIP3   OH238110   5.143   4.033  14.563 -0.0493  0.0724 -1.0326
 5540TIP3    H138111   5.223   4.084  14.576 -0.3809  0.4878 -0.5942
 5540TIP3    H238112   5.103   4.028  14.650 -0.6606  0.1331 -1.3048
 5541TIP3   OH238113   0.536   6.547   1.912 -0.3129 -0.3020 -0.4619
 5541TIP3    H138114   0.558   6.505   1.995  0.2134  0.7337 -0.0531
 5541TIP3    H238115   0.523   6.475   1.850  0.5383 -1.0488  0.2140
 5542TIP3   OH238116   1.208   5.901  11.919  0.0617 -0.3083  0.2461
 5542TIP3    H138117   1.213   5.810  11.948  1.3806 -0.2000  0.4235
 5542TIP3    H238118   1.299   5.928  11.908 -0.3287  0.6504 -0.8969
 5543TIP3   OH238119   4.827   3.767   4.893  0.6878  0.1040 -0.1761
 5543TIP3    H138120   4.792   3.820   4.964  1.5459 -0.7434  0.9140
 5543TIP3    H238121   4.752   3.716   4.862  0.1145  1.1048 -0.4967
 5544TIP3   OH238122   4.723   6.611  16.004 -0.0075  0.5686 -0.1672
 5544TIP3    H138123   4.633   6.620  16.036  0.9046  0.2546  2.8411
 5544TIP3    H238124   4.743   6.695  15.962 -1.1900  1.2925  0.6564
 5545TIP3   OH238125   0.715   5.650  11.216  0.2482 -0.3930 -0.2039
 5545TIP3    H138126   0.769   5.616  11.287 -1.1104 -0.2645  0.9356
 5545TIP3    H238127   0.770   5.642  11.138  2.4790  1.1175  1.0938
 5546TIP3   OH238128   0.309   2.274  13.035 -0.1847 -0.5659 -0.4972
 5546TIP3    H138129   0.332   2.300  12.946 -0.7674 -1.0232 -0.7857
 5546TIP3    H238130   0.214   2.285  13.039 -0.2295 -1.0943 -0.1116
 5547TIP3   OH238131   5.372   3.945  12.023 -0.2029  0.2562  0.5390
 5547TIP3    H138132   5.426   4.023  12.006  0.9645 -0.2332  1.7741
 5547TIP3    H238133   5.418   3.900  12.094 -2.4327 -0.0044  1.9175
 5548TIP3   OH238134   2.886   1.020   3.602 -0.2669  0.0567  0.0262
 5548TIP3    H138135   2.882   1.056   3.513 -0.9190 -1.7019 -0.7018
 5548TIP3    H238136   2.884   0.925   3.589  1.2594 -0.2764  1.8596
 5549TIP3   OH238137   0.741   3.092   3.682  0.4064  0.4342 -0.6150
 5549TIP3    H138138   0.670   3.132   3.632  0.0289 -0.6608 -0.9753
 5549TIP3    H238139   0.816   3.092   3.623 -0.3356 -1.8959 -1.6643
 5550TIP3   OH238140   0.582   4.838   5.218 -0.0846 -0.3039 -0.3049
 5550TIP3    H138141   0.624   4.883   5.292 -0.4065 -1.7329  0.8083
 5550TIP3    H238142   0.654   4.791   5.175  0.0129  0.0852 -0.5725
 5551TIP3   OH238143   3.676   3.063   6.500 -0.1403 -0.4960  0.3195
 5551TIP3    H138144   3.637   3.057   6.413  1.6223 -1.0342 -0.4808
 5551TIP3    H238145   3.609   3.029   6.559 -2.3916  2.2300 -0.4359
 5552TIP3   OH238146   4.043   4.181  14.245  0.2736 -0.3481  0.0665
 5552TIP3    H138147   4.100   4.232  14.187 -1.2434 -0.2234 -1.3582
 5552TIP3    H238148   4.087   4.096  14.253  0.8467 -0.1354 -0.7176
 5553TIP3   OH238149   0.383   0.348   5.799  0.7820  0.1157 -0.1493
 5553TIP3    H138150   0.336   0.271   5.766  2.6074 -2.1311  2.0604
 5553TIP3    H238151   0.326   0.383   5.867  1.7055 -2.0435  1.8840
 5554TIP3   OH238152   0.681   5.582   5.628 -0.5973 -0.9162  0.2146
 5554TIP3    H138153   0.768   5.558   5.659 -0.7827 -0.6185  0.9939
 5554TIP3    H238154   0.621   5.533   5.685 -0.9779  1.0954  1.6344
 5555TIP3   OH238155   6.319   3.922  15.187  0.0890 -0.3191  0.4908
 5555TIP3    H138156   6.319   3.983  15.261 -1.1122  0.0733  0.1886
 5555TIP3    H238157   6.240   3.944  15.138  0.1571 -1.4804 -0.1671
 5556TIP3   OH238158   1.238   4.706   5.225  0.1191  0.3717 -0.3761
 5556TIP3    H138159   1.180   4.643   5.182  0.3737 -1.1779  1.3947
 5556TIP3    H238160   1.326   4.677   5.201  0.3092 -1.2062  1.9381
 5557TIP3   OH238161   6.169   3.245  16.470  0.0627 -0.1001 -0.3982
 5557TIP3    H138162   6.105   3.196  16.521  2.2072 -1.1231  1.4929
 5557TIP3    H238163   6.204   3.181  16.407 -0.5841  0.3926 -1.2783
 5558TIP3   OH238164   5.196   1.441  12.355  0.3177  0.5256  0.6003
 5558TIP3    H138165   5.138   1.474  12.286  1.2330 -0.0655 -0.4853
 5558TIP3    H238166   5.137   1.402  12.419 -0.5042 -0.1957 -0.5518
 5559TIP3   OH238167   3.372   0.614   4.989  0.6405  0.1937 -0.4755
 5559TIP3    H138168   3.283   0.643   4.969 -0.1196 -2.2721 -0.9630
 5559TIP3    H238169   3.371   0.596   5.083  0.4431 -0.4358 -0.5994
 5560TIP3   OH238170   4.153   5.054  16.527  0.2317  0.0147  0.0588
 5560TIP3    H138171   4.114   5.137  16.500 -1.1337 -0.2625  1.0425
 5560TIP3    H238172   4.128   5.045  16.619 -0.1369 -1.7209 -0.1755
 5561TIP3   OH238173   4.930   5.840  16.307  0.1902  0.0935 -0.1654
 5561TIP3    H138174   4.980   5.795  16.239 -0.7474 -0.5541 -0.4482
 5561TIP3    H238175   4.986   5.913  16.333  1.4467 -0.8189 -0.1914
 5562TIP3   OH238176   2.277   1.610  13.197  0.0184 -0.0738 -0.0427
 5562TIP3    H138177   2.321   1.531  13.165  1.2561  0.2705  0.7311
 5562TIP3    H238178   2.228   1.643  13.121 -0.5574 -1.6023 -0.3553
 5563TIP3   OH238179   1.810   5.716   3.205 -0.4290  0.4283  0.7562
 5563TIP3    H138180   1.894   5.758   3.225  0.8588 -2.1284  1.1302
 5563TIP3    H238181   1.817   5.692   3.113 -1.6389  1.9436  0.2176
 5564TIP3   OH238182   5.087   0.667   4.938  0.3368 -0.5585 -0.6486
 5564TIP3    H138183   5.149   0.639   4.870 -1.0988 -3.5949 -0.8606
 5564TIP3    H238184   5.142   0.714   5.001  2.1792  0.0332 -2.5502
 5565TIP3   OH238185   0.794   2.780   2.993 -0.0219 -0.5055  0.1942
 5565TIP3    H138186   0.698   2.774   2.994 -0.2207 -2.3239 -4.3116
 5565TIP3    H238187   0.814   2.833   2.916  2.5736 -1.2234  0.2812
 5566TIP3   OH238188   1.837   1.980   4.351  0.1802  0.3642  0.0483
 5566TIP3    H138189   1.820   1.887   4.340 -1.3855  0.6141  0.1124
 5566TIP3    H238190   1.796   2.003   4.435  0.4790  1.1306  0.0007
 5567TIP3   OH238191   3.947   1.707   4.569 -0.3659 -0.0437 -0.1009
 5567TIP3    H138192   3.993   1.683   4.649 -0.9912  0.7098  0.5052
 5567TIP3    H238193   4.016   1.722   4.505  0.2961  1.5275  0.9172
 5568TIP3   OH238194   3.926   0.358   6.069 -0.0118  0.2198 -0.3642
 5568TIP3    H138195   3.980   0.279   6.073  0.1445  0.3667  1.1235
 5568TIP3    H238196   3.836   0.326   6.072  0.0515  0.0958  0.3027
 5569TIP3   OH238197   1.179   2.116  12.887 -0.1615 -0.2735 -0.3232
 5569TIP3    H138198   1.229   2.056  12.944 -0.1720 -0.9691 -1.0287
 5569TIP3    H238199   1.214   2.202  12.908  0.5785 -0.6324 -0.0196
 5570TIP3   OH238200   3.130   1.889  14.339  0.0174 -0.2259  0.2817
 5570TIP3    H138201   3.099   1.898  14.249  1.4142  0.0886 -0.1922
 5570TIP3    H238202   3.173   1.972  14.359 -0.0873 -0.3676  1.1706
 5571TIP3   OH238203   5.987   5.229   3.534 -0.1019 -0.3566  0.0276
 5571TIP3    H138204   5.924   5.262   3.471 -1.7820 -1.7300  0.9026
 5571TIP3    H238205   6.035   5.161   3.486  0.3565  0.3023 -0.4685
 5572TIP3   OH238206   3.433   2.924   1.734  0.2148  0.0903 -0.8001
 5572TIP3    H138207   3.491   2.995   1.762 -1.3352  0.3201  2.2302
 5572TIP3    H238208   3.423   2.868   1.811 -1.7023 -1.2567 -1.9099
 5573TIP3   OH238209   2.160   4.563  13.866 -0.1323 -0.2702 -0.2229
 5573TIP3    H138210   2.237   4.508  13.876 -0.5985 -0.5922  2.3362
 5573TIP3    H238211   2.094   4.506  13.826  0.2729 -0.6548 -0.3477
 5574TIP3   OH238212   5.832   3.180   3.170  0.6029 -0.0696  0.2481
 5574TIP3    H138213   5.903   3.147   3.225  1.4430  0.1942 -0.6454
 5574TIP3    H238214   5.805   3.104   3.118 -0.2083 -0.3259  1.0314
 5575TIP3   OH238215   3.559   0.733   4.737  0.1023 -0.0009  0.0768
 5575TIP3    H138216   3.636   0.760   4.688 -1.1504  1.7946 -1.0624
 5575TIP3    H238217   3.589   0.662   4.793  2.5597  0.6708 -0.2816
 5576TIP3   OH238218   1.176   0.158  10.687  0.2505 -0.3615  0.0570
 5576TIP3    H138219   1.243   0.217  10.721 -0.4024 -0.2195  1.1337
 5576TIP3    H238220   1.174   0.176  10.593 -0.1222  1.5374  0.3880
 5577TIP3   OH238221   2.186   5.394  13.583 -0.1326  0.3808  0.2934
 5577TIP3    H138222   2.154   5.354  13.502  1.1297 -1.9955  0.8753
 5577TIP3    H238223   2.227   5.476  13.555 -0.1417 -0.1583 -1.3903
 5578TIP3   OH238224   2.015   0.256  14.520  0.1339 -0.6616 -0.6944
 5578TIP3    H138225   1.993   0.348  14.539 -0.2202 -0.2754 -2.7423
 5578TIP3    H238226   2.110   0.253  14.529 -0.0336 -0.7819  1.9193
 5579TIP3   OH238227   4.873   6.215   1.683  0.0324 -0.2070  0.4999
 5579TIP3    H138228   4.796   6.159   1.671 -2.0165  2.4842  0.1958
 5579TIP3    H238229   4.866   6.248   1.772  0.4120  0.6190  0.2381
 5580TIP3   OH238230   5.817   5.563  11.534  0.1489  0.6673 -0.2459
 5580TIP3    H138231   5.788   5.493  11.476 -1.0650  0.5668  0.4618
 5580TIP3    H238232   5.875   5.520  11.597 -1.8540 -0.0521  1.1814
 5581TIP3   OH238233   4.778   3.045  15.561  0.2596  0.0584  0.4995
 5581TIP3    H138234   4.790   2.956  15.528  0.8449  0.8527 -1.5572
 5581TIP3    H238235   4.850   3.095  15.523 -0.0167  1.4003  1.6815
 5582TIP3   OH238236   0.839   0.564   0.598  0.4255 -0.4426 -0.4355
 5582TIP3    H138237   0.764   0.581   0.655  0.3457 -1.6925 -0.1230
 5582TIP3    H238238   0.893   0.642   0.605 -0.3968  0.0965  0.0695
 5583TIP3   OH238239   2.115   5.024  15.755  0.4947 -0.1289  1.1267
 5583TIP3    H138240   2.054   4.959  15.721  0.9923 -0.6377  1.1923
 5583TIP3    H238241   2.105   5.099  15.697  0.1500 -0.3816  0.8557
 5584TIP3   OH238242   2.886   3.491   4.052  0.3508  0.2741 -0.2308
 5584TIP3    H138243   2.889   3.510   3.958 -0.9027  0.6766 -0.2099
 5584TIP3    H238244   2.977   3.472   4.076  0.7352  0.4944 -1.4552
 5585TIP3   OH238245   1.622   4.643   3.520  0.3896  0.0493  0.0731
 5585TIP3    H138246   1.715   4.639   3.497  0.3435  0.3318 -0.1645
 5585TIP3    H238247   1.616   4.713   3.585 -0.0319  1.8409 -1.7945
 5586TIP3   OH238248   2.343   2.928  12.426 -0.2634  0.1185  0.2005
 5586TIP3    H138249   2.437   2.924  12.445 -0.0981 -0.7038 -0.6793
 5586TIP3    H238250   2.334   2.998  12.361 -0.1838 -0.0791 -0.0290
 5587TIP3   OH238251   2.937   3.293   3.063  0.1165 -0.6350 -0.2054
 5587TIP3    H138252   2.861   3.350   3.058 -0.3018 -1.2090 -0.4189
 5587TIP3    H238253   3.012   3.352   3.048 -0.3192 -0.1793 -0.6260
 5588TIP3   OH238254   3.981   6.239  13.104  0.1431  0.3838  0.0429
 5588TIP3    H138255   4.053   6.221  13.043 -0.3796 -1.1000 -0.1808
 5588TIP3    H238256   3.965   6.333  13.095  0.6236  0.3495 -1.4944
 5589TIP3   OH238257   1.483   3.670  11.505 -0.1132  0.4348  0.5412
 5589TIP3    H138258   1.468   3.764  11.516  0.7616  0.4792  1.4913
 5589TIP3    H238259   1.406   3.628  11.543 -0.7269  0.7646 -0.3149
 5590TIP3   OH238260   0.044   1.790  11.131 -0.5790  0.3969 -0.5785
 5590TIP3    H138261   0.089   1.872  11.155  1.1239 -0.5280 -0.4581
 5590TIP3    H238262  -0.004   1.812  11.051 -1.8523  2.0403  0.5657
 5591TIP3   OH238263   4.375   1.115   5.695  0.1479 -0.2473  0.1240
 5591TIP3    H138264   4.349   1.205   5.673 -1.9543 -1.5705 -3.7091
 5591TIP3    H238265   4.301   1.082   5.747  0.5938 -0.0233  0.9194
 5592TIP3   OH238266   4.982   5.054  13.025  0.2848  0.1245  0.0668
 5592TIP3    H138267   4.979   5.018  12.936 -1.7004 -0.9213  0.4901
 5592TIP3    H238268   4.930   4.993  13.077  1.6830  0.5193  2.0530
 5593TIP3   OH238269   1.758   3.534  12.188 -0.1788  0.0528 -0.2981
 5593TIP3    H138270   1.707   3.546  12.269 -1.6218 -0.2230 -1.1235
 5593TIP3    H238271   1.843   3.572  12.208 -0.1179 -0.9508  1.7216
 5594TIP3   OH238272   6.727   1.906   5.940  0.2317  0.2179  0.1163
 5594TIP3    H138273   6.644   1.951   5.954  0.4300  0.8390 -0.6258
 5594TIP3    H238274   6.793   1.964   5.978  0.4022  0.1093 -0.0115
 5595TIP3   OH238275   3.428   3.526   2.865 -0.1482  0.1866  0.2938
 5595TIP3    H138276   3.344   3.506   2.907  0.5500  0.4212  1.8988
 5595TIP3    H238277   3.421   3.488   2.777 -1.2523 -1.3845  1.0070
 5596TIP3   OH238278   2.528   4.041   3.078 -0.1554  0.2398  0.0127
 5596TIP3    H138279   2.622   4.055   3.071 -0.4397  2.1223 -0.9481
 5596TIP3    H238280   2.495   4.057   2.990 -1.4048 -0.0700  0.4025
 5597TIP3   OH238281   5.685   4.550   5.504 -0.1333 -0.2053 -0.0354
 5597TIP3    H138282   5.657   4.617   5.441 -0.1754 -0.7816 -0.6381
 5597TIP3    H238283   5.741   4.491   5.453 -1.6499 -1.7382 -0.0350
 5598TIP3   OH238284   2.359   1.660  15.363 -0.0799  0.1079 -0.4502
 5598TIP3    H138285   2.340   1.717  15.438 -0.7988  0.2449 -0.7226
 5598TIP3    H238286   2.454   1.660  15.356  0.1197 -1.2640  1.4914
 5599TIP3   OH238287   0.229   0.518   2.220 -0.5933  0.1273 -0.3867
 5599TIP3    H138288   0.236   0.469   2.302 -1.0878  0.6301 -0.0342
 5599TIP3    H238289   0.184   0.599   2.245  1.3287  1.3471 -0.6944
 5600TIP3   OH238290   6.683   1.462   3.384  0.5444 -0.0894 -0.1181
 5600TIP3    H138291   6.613   1.526   3.371  2.1064  1.4287 -1.7400
 5600TIP3    H238292   6.721   1.484   3.469  0.3873  0.4474 -0.1846
 5601TIP3   OH238293   0.229   5.416   2.635 -0.4989  0.1664  0.0263
 5601TIP3    H138294   0.214   5.487   2.572 -1.5874  0.9587  1.1434
 5601TIP3    H238295   0.195   5.338   2.591  0.7229  0.3012 -1.2239
 5602TIP3   OH238296   4.666   0.628   2.322 -0.1404 -0.1897 -0.1382
 5602TIP3    H138297   4.601   0.579   2.272 -0.4246  0.2247 -0.1786
 5602TIP3    H238298   4.719   0.561   2.365 -1.6973 -0.5516  1.3197
 5603TIP3   OH238299   5.300   5.619   4.349 -0.3022  0.0725 -0.1396
 5603TIP3    H138300   5.284   5.687   4.414  0.1110 -0.7001  0.8097
 5603TIP3    H238301   5.233   5.552   4.367  0.0248 -0.3017 -0.2912
 5604TIP3   OH238302   3.465   5.871  13.814  0.7149 -0.4795 -0.7413
 5604TIP3    H138303   3.502   5.783  13.815 -1.4657 -1.4810  0.1817
 5604TIP3    H238304   3.432   5.882  13.725  0.0570 -1.0736 -0.5882
 5605TIP3   OH238305   2.142   0.975  16.252  0.7154 -0.4975 -0.5216
 5605TIP3    H138306   2.066   1.020  16.214  0.4153  1.7693  2.4100
 5605TIP3    H238307   2.215   0.999  16.196 -0.1475  0.2813 -1.3457
 5606TIP3   OH238308   0.632   6.633  12.907 -0.2420  0.5797  0.4621
 5606TIP3    H138309   0.699   6.700  12.894  0.4915  0.2834  2.3465
 5606TIP3    H238310   0.676   6.565  12.960 -0.2612 -2.5142 -3.0682
 5607TIP3   OH238311   1.830   2.111   5.582  0.2008  0.2010  0.0823
 5607TIP3    H138312   1.847   2.057   5.505 -0.6513  1.0054 -0.7057
 5607TIP3    H238313   1.828   2.050   5.655 -0.2406 -0.7589 -0.7130
 5608TIP3   OH238314   2.017   5.715  16.816  0.1130  0.1294 -0.2535
 5608TIP3    H138315   1.959   5.720  16.740  2.3163  0.8609 -2.0194
 5608TIP3    H238316   2.086   5.655  16.789  0.8995  0.3281  1.2231
 5609TIP3   OH238317   6.194   4.825   3.167 -0.4738 -0.1653 -0.8745
 5609TIP3    H138318   6.261   4.757   3.167  0.5698  0.8223 -1.7012
 5609TIP3    H238319   6.120   4.786   3.121  0.3885 -0.5047 -2.0209
 5610TIP3   OH238320   6.208   3.683   2.192 -0.4342 -0.3103  0.0146
 5610TIP3    H138321   6.190   3.766   2.237  1.8332  0.1186  0.2402
 5610TIP3    H238322   6.293   3.655   2.226 -0.8474 -2.4137 -0.5513
 5611TIP3   OH238323   2.563   5.654   3.501 -0.2087  0.3148 -0.7634
 5611TIP3    H138324   2.529   5.703   3.576 -0.6614 -0.5007 -0.4306
 5611TIP3    H238325   2.491   5.654   3.438 -0.2386  0.0047 -0.7287
 5612TIP3   OH238326   4.754   0.230  16.632 -0.5411  0.0683  0.2099
 5612TIP3    H138327   4.752   0.318  16.670 -0.0777 -0.1394  0.7257
 5612TIP3    H238328   4.662   0.207  16.620 -0.6677  0.7220 -0.1707
 5613TIP3   OH238329   5.969   1.379   3.214 -0.0812  0.3808  0.5282
 5613TIP3    H138330   6.040   1.328   3.255 -0.6791 -1.2876 -0.4426
 5613TIP3    H238331   5.979   1.363   3.120 -1.3720  0.6338  0.3354
 5614TIP3   OH238332   0.150   5.847   4.781 -0.5841 -0.1570 -0.5139
 5614TIP3    H138333   0.124   5.916   4.842 -1.1376  1.4390 -2.4668
 5614TIP3    H238334   0.245   5.839   4.794 -0.2744  1.9412 -1.1356
 5615TIP3   OH238335   4.682   2.649  11.367 -0.2958  0.2343 -0.2714
 5615TIP3    H138336   4.682   2.588  11.441 -0.4747  1.1895  0.5420
 5615TIP3    H238337   4.774   2.667  11.350 -0.2471 -0.1612 -0.4291
 5616TIP3   OH238338   4.448   6.474   4.437  0.4864  0.4438 -0.0537
 5616TIP3    H138339   4.378   6.408   4.436  0.6180  0.3075 -0.7471
 5616TIP3    H238340   4.470   6.484   4.530  1.4799 -1.5933 -0.0061
 5617TIP3   OH238341   0.392   6.696  13.059 -0.1031  0.3787 -0.4792
 5617TIP3    H138342   0.409   6.614  13.106  0.1386  1.7982  2.1337
 5617TIP3    H238343   0.464   6.704  12.997  1.4263 -0.0951  1.1559
 5618TIP3   OH238344   5.611   5.844  12.928  0.2713 -0.1632 -0.1244
 5618TIP3    H138345   5.671   5.880  12.994  0.0308 -0.5023  0.2884
 5618TIP3    H238346   5.577   5.763  12.968  0.8914 -0.9216 -1.0703
 5619TIP3   OH238347   3.909   4.041  12.525 -0.2578  0.4111 -0.0151
 5619TIP3    H138348   3.881   4.041  12.433  0.1528  0.4654 -0.1401
 5619TIP3    H238349   3.978   3.975  12.529  0.3621  1.0572  0.0594
 5620TIP3   OH238350   3.016   4.752   5.756  0.2530  0.0501 -0.5884
 5620TIP3    H138351   3.111   4.756   5.759  0.1949  1.9007  0.4000
 5620TIP3    H238352   2.990   4.833   5.711 -0.8738  0.4851  0.7580
 5621TIP3   OH238353   1.962   4.514  11.554 -0.1573 -0.0249 -0.7840
 5621TIP3    H138354   2.010   4.479  11.629  1.0576  0.6184 -1.2287
 5621TIP3    H238355   1.958   4.442  11.491 -0.7272 -0.4070 -0.3167
 5622TIP3   OH238356   3.399   6.106  14.427  0.8146  0.4708 -0.1017
 5622TIP3    H138357   3.365   6.026  14.386  0.3447  0.9488 -0.6596
 5622TIP3    H238358   3.339   6.174  14.400  1.7785  1.2030 -0.4682
 5623TIP3   OH238359   1.651   4.501  16.407 -0.4382 -0.5674  0.2399
 5623TIP3    H138360   1.705   4.433  16.449 -1.2432 -1.5166 -0.2006
 5623TIP3    H238361   1.712   4.550  16.352 -0.1232 -2.0629 -0.7985
 5624TIP3   OH238362   2.032   5.772   5.457  0.8510 -0.2310 -0.1353
 5624TIP3    H138363   1.997   5.823   5.383 -0.0851  1.3547  1.3239
 5624TIP3    H238364   1.988   5.687   5.450  0.1842  0.1590 -0.9620
 5625TIP3   OH238365   5.393   4.428  16.668 -0.3586 -0.1849 -0.4239
 5625TIP3    H138366   5.381   4.427  16.573 -0.9861  0.9100 -0.3697
 5625TIP3    H238367   5.473   4.377  16.682  0.8648  1.2631 -1.7110
 5626TIP3   OH238368   0.959   5.607  12.836 -0.2914  0.1618  0.2360
 5626TIP3    H138369   0.922   5.528  12.797 -2.8762  1.6583 -0.6316
 5626TIP3    H238370   1.026   5.636  12.774 -0.7509 -0.2726 -0.4742
 5627TIP3   OH238371   5.674   3.742  13.131  0.3195 -0.4710 -0.4690
 5627TIP3    H138372   5.736   3.678  13.166 -0.2324 -0.3290  0.8127
 5627TIP3    H238373   5.598   3.690  13.104  0.2964 -0.4736 -0.4009
 5628TIP3   OH238374   2.898   0.432  16.739 -0.2992  0.4429 -0.7629
 5628TIP3    H138375   2.922   0.347  16.775 -2.1236  0.0531 -0.3768
 5628TIP3    H238376   2.890   0.416  16.644  2.3127  0.9479 -1.1433
 5629TIP3   OH238377   6.882   3.326  15.491 -0.3302 -0.3209  0.0366
 5629TIP3    H138378   6.881   3.363  15.403  0.7844 -1.6992 -0.6116
 5629TIP3    H238379   6.916   3.397  15.546 -0.5732  0.4039 -0.7224
 5630TIP3   OH238380   4.389   6.390   0.913  0.2046  0.7689 -0.0601
 5630TIP3    H138381   4.403   6.408   1.006 -1.2472  0.6587  0.1934
 5630TIP3    H238382   4.413   6.472   0.870  1.8068  0.5230  0.2993
 5631TIP3   OH238383   1.108   6.605   2.537 -0.0416 -0.1719 -0.0286
 5631TIP3    H138384   1.148   6.673   2.592  0.0758  1.4708 -2.0505
 5631TIP3    H238385   1.057   6.653   2.472 -3.6928 -2.1077  1.0965
 5632TIP3   OH238386   5.568   1.933  10.248 -0.9000 -0.3427 -0.1635
 5632TIP3    H138387   5.620   1.997  10.200  0.5385 -0.6805  0.8663
 5632TIP3    H238388   5.596   1.943  10.339 -3.8314  0.5558  0.7218
 5633TIP3   OH238389   6.820   4.612  11.814  0.6738 -0.2029 -0.1404
 5633TIP3    H138390   6.905   4.655  11.806  0.2626  0.4804 -1.0766
 5633TIP3    H238391   6.802   4.579  11.726 -0.3505  0.2961 -0.1281
 5634TIP3   OH238392   6.189   6.156  11.093  0.4512 -0.1951 -0.4026
 5634TIP3    H138393   6.209   6.236  11.044  1.3589 -0.0464  0.1825
 5634TIP3    H238394   6.241   6.088  11.050  3.4906  0.4265  1.9004
 5635TIP3   OH238395   2.375   1.059  16.090 -0.5650  0.4258  0.2177
 5635TIP3    H138396   2.325   1.040  16.011 -1.4617  1.3843  0.5379
 5635TIP3    H238397   2.464   1.077  16.058 -1.0584  1.4108 -0.6523
 5636TIP3   OH238398   4.191   6.466   3.977  0.2371  0.0617 -0.8019
 5636TIP3    H138399   4.160   6.378   3.999  1.2942 -0.6040 -1.8920
 5636TIP3    H238400   4.119   6.504   3.926 -0.1509 -0.2319 -0.4800
 5637TIP3   OH238401   1.935   3.429   3.152 -0.5107 -0.0312  1.2405
 5637TIP3    H138402   1.923   3.451   3.245 -0.4293  1.8118  0.8662
 5637TIP3    H238403   1.989   3.500   3.118 -1.0719 -0.3287 -0.3612
 5638TIP3   OH238404   0.477   3.287  16.906  0.4537 -0.1078 -0.7430
 5638TIP3    H138405   0.514   3.375  16.918  0.2461 -0.2515  1.2496
 5638TIP3    H238406   0.526   3.251  16.832  0.8621  1.5067 -1.3168
 5639TIP3   OH238407   0.616   0.766   0.256 -0.2144 -0.2161  0.0192
 5639TIP3    H138408   0.563   0.759   0.176  1.3695 -2.7367 -0.9433
 5639TIP3    H238409   0.706   0.749   0.226  0.3527 -1.8790  2.4034
 5640TIP3   OH238410   6.332   4.517   1.768 -0.5453 -0.6857 -0.1447
 5640TIP3    H138411   6.362   4.578   1.835  1.1834 -0.5119 -1.0092
 5640TIP3    H238412   6.245   4.490   1.796 -0.5514  0.6970  1.2540
 5641TIP3   OH238413   0.437   0.926   4.435 -0.1638  0.0845 -0.0742
 5641TIP3    H138414   0.531   0.909   4.435  0.2169  1.8984  1.5370
 5641TIP3    H238415   0.430   1.020   4.418 -1.7760 -0.2345 -1.4221
 5642TIP3   OH238416   0.227   1.937  15.292 -0.3206 -0.0393  0.2314
 5642TIP3    H138417   0.246   1.849  15.323 -0.3810  0.7250  2.6057
 5642TIP3    H238418   0.132   1.937  15.276 -0.1659 -0.6617 -0.8075
 5643TIP3   OH238419   6.776   0.834   0.064  0.2961  0.3942  0.0824
 5643TIP3    H138420   6.748   0.895   0.132  0.3408  2.0613 -1.3163
 5643TIP3    H238421   6.719   0.758   0.074 -0.7770  1.2911  0.9590
 5644TIP3   OH238422   4.709   5.761  14.637  0.0160 -0.0158  0.5866
 5644TIP3    H138423   4.684   5.748  14.728 -0.6554  2.2352  0.7993
 5644TIP3    H238424   4.734   5.674  14.606  0.6900 -0.7649  3.0216
 5645TIP3   OH238425   4.821   4.482   3.113  0.7250 -0.0943 -0.6862
 5645TIP3    H138426   4.845   4.514   3.027 -0.3546  1.6808 -0.3697
 5645TIP3    H238427   4.763   4.549   3.149  2.4656  0.0985  2.1129
 5646TIP3   OH238428   4.358   4.707   1.198  0.4493 -0.5506 -0.4452
 5646TIP3    H138429   4.408   4.755   1.132 -0.8001 -0.1552 -1.1319
 5646TIP3    H238430   4.299   4.772   1.236 -0.0994 -1.1791 -0.2063
 5647TIP3   OH238431   5.935   6.453   0.921  0.0047  0.0868  0.5234
 5647TIP3    H138432   6.002   6.386   0.918  0.1522  0.1700  1.4816
 5647TIP3    H238433   5.902   6.450   1.011 -1.0924  0.2189  0.1442
 5648TIP3   OH238434   5.975   3.529   3.888  0.3459 -0.3742 -0.2249
 5648TIP3    H138435   5.891   3.538   3.842  0.4173  1.9132 -0.0467
 5648TIP3    H238436   6.014   3.450   3.852 -0.0355  0.7612 -3.4816
 5649TIP3   OH238437   4.211   0.763  10.915  0.0311  0.2642  0.5019
 5649TIP3    H138438   4.190   0.681  10.870  1.0174  0.1118  0.3134
 5649TIP3    H238439   4.163   0.830  10.866  1.1204  0.1028 -0.8305
 5650TIP3   OH238440   6.728   2.609  14.315 -0.7558 -0.3495  0.7743
 5650TIP3    H138441   6.694   2.520  14.324 -1.7929  0.0112  0.4728
 5650TIP3    H238442   6.651   2.663  14.298 -0.1144  0.5841  0.7783
 5651TIP3   OH238443   2.006   4.086   1.803 -0.1878  0.2691  0.2523
 5651TIP3    H138444   1.985   4.032   1.728 -2.1751  0.9080  0.2739
 5651TIP3    H238445   1.927   4.082   1.858  1.4918 -0.8560  2.7421
 5652TIP3   OH238446   6.312   6.795   6.161  0.2819 -1.0567 -0.0258
 5652TIP3    H138447   6.405   6.771   6.157  0.1326 -1.6810  0.1796
 5652TIP3    H238448   6.285   6.795   6.069  1.2402  2.2656 -0.4279
 5653TIP3   OH238449   0.442   4.748  11.137  0.1006 -0.3781 -0.1778
 5653TIP3    H138450   0.509   4.730  11.203 -0.5060  1.1748  0.9322
 5653TIP3    H238451   0.360   4.748  11.186 -0.5626 -0.7185 -1.2384
 5654TIP3   OH238452   4.449   4.662  14.450 -0.3443  0.1562 -0.7030
 5654TIP3    H138453   4.396   4.645  14.372 -2.6653 -2.7485  1.2718
 5654TIP3    H238454   4.484   4.576  14.474  0.7974  1.0811  1.1362
 5655TIP3   OH238455   6.009   1.365  16.651 -0.2000  0.4344 -0.1412
 5655TIP3    H138456   6.061   1.301  16.602  2.1619  1.1297  1.2954
 5655TIP3    H238457   5.931   1.380  16.597  0.7456 -1.1838 -2.0662
 5656TIP3   OH238458   2.759   1.047  11.748 -0.2666 -0.3477 -0.4191
 5656TIP3    H138459   2.676   1.077  11.785 -0.4161  1.3201 -1.9726
 5656TIP3    H238460   2.823   1.062  11.817 -0.8230  0.9709 -0.1615
 5657TIP3   OH238461   5.200   2.716  12.021 -0.3926 -0.1841  0.3917
 5657TIP3    H138462   5.162   2.802  12.038 -0.5372  0.0495 -0.9602
 5657TIP3    H238463   5.271   2.733  11.960 -1.1657 -1.1204 -0.8311
 5658TIP3   OH238464   3.894   5.505  10.297  0.0232  0.0667  0.1571
 5658TIP3    H138465   3.849   5.589  10.291  0.3147  0.5073  2.9197
 5658TIP3    H238466   3.985   5.527  10.317 -0.2766 -0.8485  2.8659
 5659TIP3   OH238467   3.360   2.196   5.276 -0.3087 -0.0181  0.2412
 5659TIP3    H138468   3.326   2.283   5.255 -0.5092 -0.3677 -0.9667
 5659TIP3    H238469   3.350   2.147   5.194 -0.6211 -1.3091  1.0360
 5660TIP3   OH238470   4.823   2.867   1.323 -0.0136  0.0306  0.2271
 5660TIP3    H138471   4.844   2.934   1.388 -1.8342  1.6112 -0.7120
 5660TIP3    H238472   4.734   2.888   1.295 -0.4281 -2.4680 -0.5540
 5661TIP3   OH238473   3.826   5.122  13.406 -0.2335  0.6739 -0.2160
 5661TIP3    H138474   3.882   5.120  13.328  2.3402 -0.7735  1.5079
 5661TIP3    H238475   3.818   5.216  13.426  1.5564  0.9647 -0.6224
 5662TIP3   OH238476   4.696   4.078   6.052  0.5372 -0.1177  0.5729
 5662TIP3    H138477   4.712   4.054   5.960  0.3232  0.6494  0.3303
 5662TIP3    H238478   4.605   4.051   6.067  0.0269  1.2316  0.0559
 5663TIP3   OH238479   1.352   2.415   0.743 -0.3890 -0.1297 -0.6325
 5663TIP3    H138480   1.282   2.458   0.694  0.5757  3.0210  0.4954
 5663TIP3    H238481   1.318   2.409   0.832 -0.0227 -0.6548 -0.5208
 5664TIP3   OH238482   6.322   2.585  15.849  0.1873  0.1980  0.0357
 5664TIP3    H138483   6.273   2.562  15.928 -0.7069 -0.5580 -0.7153
 5664TIP3    H238484   6.278   2.538  15.779  1.3360  0.3683 -0.8372
 5665TIP3   OH238485   2.987   2.956   1.267  0.1684  0.1130  0.1214
 5665TIP3    H138486   2.982   2.921   1.178  0.8382  0.4487 -0.0579
 5665TIP3    H238487   3.037   3.037   1.258  1.1054 -0.3525  0.9418
 5666TIP3   OH238488   0.251   5.685  14.215  0.0587 -0.1644 -0.0895
 5666TIP3    H138489   0.275   5.648  14.300 -0.1013  1.4096  0.6860
 5666TIP3    H238490   0.335   5.713  14.177  0.0135  0.3276  0.1584
 5667TIP3   OH238491   6.412   1.229  16.879 -0.1771  0.6750  0.2581
 5667TIP3    H138492   6.430   1.250  16.971  1.2578  1.5463 -0.1873
 5667TIP3    H238493   6.394   1.314  16.839 -0.2889  0.3554 -0.3682
 5668TIP3   OH238494   0.364   2.454   1.698  0.4888 -0.3817  0.0316
 5668TIP3    H138495   0.277   2.469   1.661  0.6743  0.1767 -0.2040
 5668TIP3    H238496   0.391   2.370   1.663 -0.6838 -1.4437  1.5445
 5669TIP3   OH238497   4.852   6.682   5.436  0.1491  0.7700  0.0069
 5669TIP3    H138498   4.923   6.627   5.468  1.0907  2.5144  1.0578
 5669TIP3    H238499   4.877   6.704   5.346 -0.7164 -1.1979 -0.7915
 5670TIP3   OH238500   4.307   6.208   1.612  0.2886  0.3524  0.3972
 5670TIP3    H138501   4.224   6.250   1.588 -0.0615 -0.2996  0.4446
 5670TIP3    H238502   4.292   6.115   1.595  1.9876  0.4731 -2.4626
 5671TIP3   OH238503   0.032   3.822   4.870  0.1979 -0.1662  0.6468
 5671TIP3    H138504   0.088   3.782   4.803 -0.5263  0.3557 -0.2973
 5671TIP3    H238505  -0.017   3.749   4.907  0.1831 -0.3933  0.1963
 5672TIP3   OH238506   0.333   0.039  14.368  0.0525  0.0521  0.3487
 5672TIP3    H138507   0.261   0.072  14.313  0.1219 -0.7182 -0.2317
 5672TIP3    H238508   0.375   0.117  14.403 -0.4104  0.5429 -0.1751
 5673TIP3   OH238509   2.994   3.181  11.005 -0.6564  0.3100  0.6652
 5673TIP3    H138510   3.065   3.117  11.006  0.8863  1.8881 -0.7987
 5673TIP3    H238511   2.938   3.152  10.933  1.3569  1.8029 -1.6737
 5674TIP3   OH238512   6.881   4.774   2.747  0.0297 -0.3813 -0.4441
 5674TIP3    H138513   6.968   4.757   2.782 -0.6148  0.0779  1.5009
 5674TIP3    H238514   6.888   4.861   2.707  0.3601 -0.1262  0.1503
 5675TIP3   OH238515   4.082   6.372  16.890 -0.1983 -0.0957 -0.0382
 5675TIP3    H138516   4.079   6.466  16.905 -2.0483  0.2386 -2.0536
 5675TIP3    H238517   4.172   6.355  16.861  0.8303  0.5937  2.4654
 5676TIP3   OH238518   1.181   2.177   2.872  0.4151  0.3882  0.0312
 5676TIP3    H138519   1.130   2.245   2.916 -0.2270  0.5453 -0.9245
 5676TIP3    H238520   1.172   2.197   2.779  1.5468 -0.0774 -0.1895
 5677TIP3   OH238521   6.869   3.374  16.476  0.1764 -0.5798 -0.5448
 5677TIP3    H138522   6.858   3.462  16.442  2.0206  0.0212  0.2753
 5677TIP3    H238523   6.796   3.324  16.438 -2.6173  1.8586  1.1954
 5678TIP3   OH238524   6.496   6.751  16.803 -0.5976  0.2839  0.3983
 5678TIP3    H138525   6.448   6.815  16.751  1.1637  1.3018 -0.0670
 5678TIP3    H238526   6.476   6.667  16.762  0.0348  0.9669 -1.4203
 5679TIP3   OH238527   2.231   0.211  12.354 -0.3347 -0.4193  0.3806
 5679TIP3    H138528   2.225   0.154  12.277  0.4118 -0.6907  0.5135
 5679TIP3    H238529   2.177   0.168  12.420 -1.3359  0.0387 -0.1090
 5680TIP3   OH238530   4.431   5.960  12.072 -0.3613 -0.3277  0.0167
 5680TIP3    H138531   4.423   5.866  12.056  0.8493 -0.2602 -1.1349
 5680TIP3    H238532   4.375   6.000  12.007  0.0757 -0.2325 -0.3095
 5681TIP3   OH238533   5.785   3.778   3.321  0.3978 -0.0805  0.2078
 5681TIP3    H138534   5.820   3.829   3.247  1.6232  0.5396  1.1751
 5681TIP3    H238535   5.804   3.687   3.298  0.1456  0.0448 -0.5461
 5682TIP3   OH238536   6.192   2.612  16.125 -0.4917  0.3275  0.0984
 5682TIP3    H138537   6.162   2.700  16.148  1.0800  1.2728 -1.2298
 5682TIP3    H238538   6.275   2.602  16.173 -0.8321 -0.5983  0.5194
 5683TIP3   OH238539   4.302   3.227  11.816 -0.3943 -0.0354  0.0703
 5683TIP3    H138540   4.261   3.141  11.818 -2.2859  0.6982 -2.1715
 5683TIP3    H238541   4.245   3.282  11.870  0.5472 -0.0329  1.1082
 5684TIP3   OH238542   6.262   0.835   1.912 -0.4602 -0.1003  0.1402
 5684TIP3    H138543   6.234   0.817   1.823  1.1911  0.9188 -0.6308
 5684TIP3    H238544   6.204   0.904   1.942 -0.4664  0.1695 -0.4802
 5685TIP3   OH238545   0.717   4.836   4.459 -0.1074  0.8689 -0.0297
 5685TIP3    H138546   0.627   4.821   4.430  0.0330 -0.3683  0.1375
 5685TIP3    H238547   0.711   4.843   4.554 -0.0684  1.1260 -0.0452
 5686TIP3   OH238548   0.954   4.231   5.062 -0.6772  0.7473  0.5787
 5686TIP3    H138549   0.868   4.242   5.102 -0.2283 -1.3066  2.3740
 5686TIP3    H238550   0.936   4.197   4.975 -1.7612 -1.4554  1.5756
 5687TIP3   OH238551   5.390   4.433   1.202  0.2339  0.0205  0.2237
 5687TIP3    H138552   5.398   4.528   1.209 -1.6296  0.2222 -0.0004
 5687TIP3    H238553   5.386   4.402   1.292  0.3182  0.2054  0.2910
 5688TIP3   OH238554   5.229   5.687  15.826 -0.7652  0.2177  0.3607
 5688TIP3    H138555   5.244   5.766  15.773 -0.4295 -0.5879 -0.7877
 5688TIP3    H238556   5.134   5.685  15.840 -0.7703  0.8530  0.4517
 5689TIP3   OH238557   6.051   5.598   5.718 -0.1724 -0.2593 -0.0001
 5689TIP3    H138558   6.139   5.561   5.729 -0.4038 -2.5138 -4.0099
 5689TIP3    H238559   5.994   5.536   5.763  0.0336 -0.8238 -0.4985
 5690TIP3   OH238560   1.197   3.332  13.581 -0.5346 -0.0264 -0.1615
 5690TIP3    H138561   1.239   3.280  13.650 -0.5191 -0.2415 -0.3332
 5690TIP3    H238562   1.267   3.389  13.548 -0.6799  0.4833  0.3875
 5691TIP3   OH238563   5.009   5.444   2.945 -0.0317  0.3180  0.2100
 5691TIP3    H138564   4.960   5.367   2.973  1.3906 -0.4134  0.7397
 5691TIP3    H238565   5.099   5.427   2.971  0.3108  2.2072  0.4366
 5692TIP3   OH238566   0.851   2.456   5.584  0.1371  0.0836 -0.3466
 5692TIP3    H138567   0.922   2.475   5.646 -1.3706 -0.4604  1.6791
 5692TIP3    H238568   0.813   2.541   5.564  0.9591  0.3171 -0.9760
 5693TIP3   OH238569   4.584   3.123   5.927 -0.2891  0.0800  0.0502
 5693TIP3    H138570   4.631   3.102   5.846 -1.3067  0.9125 -0.7787
 5693TIP3    H238571   4.504   3.070   5.922 -0.6876  0.6672  0.1605
 5694TIP3   OH238572   1.699   2.690   2.425  0.1875 -0.5566 -0.1872
 5694TIP3    H138573   1.619   2.638   2.429 -0.8472  0.9444 -0.3280
 5694TIP3    H238574   1.766   2.629   2.395 -0.8777 -1.8782  0.0243
 5695TIP3   OH238575   4.873   0.926  15.911  0.9069 -0.2128 -0.5209
 5695TIP3    H138576   4.962   0.958  15.927  0.6063 -0.1123  1.1554
 5695TIP3    H238577   4.819   1.005  15.907  0.4509 -0.3450  1.7025
 5696TIP3   OH238578   0.249   6.545   4.177 -0.4958 -0.1482  0.9544
 5696TIP3    H138579   0.336   6.564   4.212 -0.7165  1.1760  0.8540
 5696TIP3    H238580   0.265   6.493   4.098  0.1390 -0.7719  1.4829
 5697TIP3   OH238581   3.768   6.487   0.794  0.2271 -0.6284 -0.5774
 5697TIP3    H138582   3.838   6.434   0.832 -0.8063 -1.8161 -0.2621
 5697TIP3    H238583   3.738   6.543   0.866  1.6353  0.7754 -1.0348
 5698TIP3   OH238584   5.603   5.905   5.034  0.0180  0.2966 -0.6123
 5698TIP3    H138585   5.613   5.919   5.128  0.3100 -2.0987 -0.2242
 5698TIP3    H238586   5.524   5.954   5.011  0.1867  1.2704  0.7951
 5699TIP3   OH238587   0.373   5.533   0.551 -0.0788  0.3943  0.9318
 5699TIP3    H138588   0.437   5.509   0.485  0.6906 -0.6395  2.0167
 5699TIP3    H238589   0.292   5.548   0.502  0.5243 -0.1432 -0.2535
 5700TIP3   OH238590   0.859   0.611  15.036  0.4534  0.2576  0.0646
 5700TIP3    H138591   0.773   0.630  14.998  0.8813  1.2778 -0.4271
 5700TIP3    H238592   0.880   0.688  15.089  0.5476 -0.4996  1.1661
 5701TIP3   OH238593   4.433   2.416  12.490  1.0496  0.0849 -0.8302
 5701TIP3    H138594   4.523   2.400  12.463  1.0927 -1.0211 -0.1013
 5701TIP3    H238595   4.398   2.329  12.510  0.3274  0.6343  0.4470
 5702TIP3   OH238596   6.288   2.523   3.366  0.0482 -0.5228 -0.8461
 5702TIP3    H138597   6.275   2.603   3.314  1.3897  0.4768  0.2700
 5702TIP3    H238598   6.358   2.477   3.320  1.0827  0.2535 -0.0894
 5703TIP3   OH238599   3.502   1.232   4.746  0.1314 -0.2404 -0.3055
 5703TIP3    H138600   3.524   1.319   4.779 -0.2722  0.0263 -0.7274
 5703TIP3    H238601   3.513   1.238   4.651  3.3968 -1.6003 -0.1593
 5704TIP3   OH238602   5.386   1.273  14.221  0.2324  0.9850  0.2074
 5704TIP3    H138603   5.438   1.221  14.160  0.9408  2.0742 -0.1413
 5704TIP3    H238604   5.428   1.359  14.221  0.7241  0.8235  2.7990
 5705TIP3   OH238605   4.092   6.737  13.560  0.0077  0.4728  0.2746
 5705TIP3    H138606   4.181   6.744  13.524  0.1234  0.1117  0.4854
 5705TIP3    H238607   4.073   6.643  13.557 -1.0097  0.6796 -1.3152
 5706TIP3   OH238608   5.108   6.383   3.600  0.4282 -0.4937 -0.6530
 5706TIP3    H138609   5.109   6.477   3.583  0.6837 -0.0566  1.4306
 5706TIP3    H238610   5.178   6.370   3.665 -1.5230 -1.6076  1.3479
 5707TIP3   OH238611   4.551   5.832   1.906 -0.4832  0.2657 -0.0231
 5707TIP3    H138612   4.549   5.829   2.002 -1.6620  1.8612  0.0451
 5707TIP3    H238613   4.481   5.893   1.883  1.2184  1.6715 -1.7917
 5708TIP3   OH238614   0.366   2.287  15.689  0.0955 -0.2015  0.1121
 5708TIP3    H138615   0.286   2.328  15.658  0.5636  1.8656  1.4615
 5708TIP3    H238616   0.421   2.279  15.611 -0.0442  1.7478 -0.2234
 5709TIP3   OH238617   2.200   2.915  13.450 -0.2321 -0.2168 -0.0788
 5709TIP3    H138618   2.149   2.861  13.510 -0.3892  0.1681  0.1392
 5709TIP3    H238619   2.135   2.953  13.390 -0.1775  0.0890  0.0536
 5710TIP3   OH238620   2.901   3.319  16.282 -0.3721  0.2158  0.6980
 5710TIP3    H138621   2.956   3.381  16.234 -0.3341  0.1773  0.6903
 5710TIP3    H238622   2.885   3.248  16.220 -2.1880  1.2019 -0.0089
 5711TIP3   OH238623   1.040   4.171  15.568 -1.0664  0.3140  0.2578
 5711TIP3    H138624   1.100   4.096  15.567 -1.3100  0.0376  2.0827
 5711TIP3    H238625   0.960   4.138  15.527 -0.2637  0.4740 -1.5397
 5712TIP3   OH238626   2.994   3.782   5.561  0.6355  0.8927 -0.4070
 5712TIP3    H138627   3.039   3.834   5.628 -1.6790  3.1014 -0.3946
 5712TIP3    H238628   3.023   3.692   5.577  5.8667  2.1183 -1.2023
 5713TIP3   OH238629   4.471   2.043  16.721  0.1032  0.2209 -0.1632
 5713TIP3    H138630   4.558   2.068  16.691  0.2966 -0.1631  0.0741
 5713TIP3    H238631   4.482   1.956  16.758 -0.6284 -0.3547 -1.2579
 5714TIP3   OH238632   2.509   1.939  16.962 -0.1498  0.5202 -0.0986
 5714TIP3    H138633   2.462   2.015  16.927  1.9520  0.5743 -3.1983
 5714TIP3    H238634   2.481   1.866  16.906  1.8195  0.1639 -0.6794
 5715TIP3   OH238635   2.468   6.057   2.868  0.1409 -0.0271 -0.1287
 5715TIP3    H138636   2.510   6.066   2.782  1.4173  0.6868  0.5641
 5715TIP3    H238637   2.381   6.096   2.856  0.4662  0.4558 -0.9783
 5716TIP3   OH238638   1.373   5.381   3.183  0.4637  0.4249  0.1404
 5716TIP3    H138639   1.297   5.420   3.226  0.2318  0.3801 -0.2207
 5716TIP3    H238640   1.399   5.309   3.241  1.1144  1.3175  0.9935
 5717TIP3   OH238641   6.295   3.181  12.264 -0.0377 -0.5830 -0.5738
 5717TIP3    H138642   6.200   3.175  12.254  0.0199 -1.6211 -0.6220
 5717TIP3    H238643   6.323   3.238  12.192 -0.6506  0.0041 -0.3584
 5718TIP3   OH238644   2.809   1.962   5.546  0.0089  0.0411  0.2305
 5718TIP3    H138645   2.880   1.910   5.585  0.1288  1.1197  1.5084
 5718TIP3    H238646   2.854   2.027   5.492 -0.1568 -1.4464 -1.8002
 5719TIP3   OH238647   0.562   6.267   0.723 -0.2643  0.3915 -0.2892
 5719TIP3    H138648   0.480   6.300   0.686 -1.6080 -1.5005  0.8081
 5719TIP3    H238649   0.571   6.180   0.685  0.1029 -0.2504  1.2294
 5720TIP3   OH238650   3.682   5.494  14.851 -0.1540 -0.1058  0.2448
 5720TIP3    H138651   3.682   5.541  14.768 -2.2037  1.8200  1.2243
 5720TIP3    H238652   3.612   5.429  14.842  0.4682 -0.7554  0.0428
 5721TIP3   OH238653   3.662   3.465   5.001 -0.0806  0.5010 -0.1951
 5721TIP3    H138654   3.638   3.435   5.089 -1.3112  1.4213 -0.1905
 5721TIP3    H238655   3.753   3.494   5.009  0.3847 -1.0435  0.3394
 5722TIP3   OH238656   6.077   4.572   2.235  0.5789  0.4055  0.8390
 5722TIP3    H138657   6.078   4.664   2.262 -0.2650  0.2455  1.4451
 5722TIP3    H238658   6.147   4.532   2.286 -0.4161  0.2931  2.1354
 5723TIP3   OH238659   3.548   2.152   5.677 -0.0410 -0.1459  0.6750
 5723TIP3    H138660   3.569   2.115   5.763 -0.2283 -1.2133  0.2780
 5723TIP3    H238661   3.522   2.076   5.624  0.7482  0.3992 -0.5295
 5724TIP3   OH238662   2.203   2.863   3.503 -0.2026 -0.5962  0.0372
 5724TIP3    H138663   2.224   2.954   3.485  0.4486 -0.5970  0.7520
 5724TIP3    H238664   2.239   2.814   3.429  2.5197 -0.6163  1.2563
 5725TIP3   OH238665   1.785   3.803  12.483 -0.4519 -0.1268  0.1762
 5725TIP3    H138666   1.793   3.892  12.451 -0.1932 -0.2575 -0.1308
 5725TIP3    H238667   1.862   3.790  12.539 -0.2039 -0.3322 -0.2095
 5726TIP3   OH238668   3.184   0.213  14.869  0.1762 -0.3404  0.3089
 5726TIP3    H138669   3.193   0.120  14.848  1.2757 -0.4068  1.0107
 5726TIP3    H238670   3.206   0.219  14.962 -1.9403  0.3383  0.8191
 5727TIP3   OH238671   3.045   0.154  12.888 -0.3408 -0.0180 -0.0675
 5727TIP3    H138672   2.978   0.207  12.931  0.4477  0.3853  0.6919
 5727TIP3    H238673   3.127   0.176  12.934  0.0509 -1.7089  0.1308
 5728TIP3   OH238674   3.003   2.088   2.248  0.2249  0.7667  0.4299
 5728TIP3    H138675   3.080   2.131   2.211 -0.1744 -0.2599 -1.7695
 5728TIP3    H238676   3.037   2.012   2.295  0.5742 -1.6366 -3.2847
 5729TIP3   OH238677   0.837   0.293  15.929 -0.9423 -0.3614  0.4759
 5729TIP3    H138678   0.914   0.289  15.985 -1.4821 -1.7592  1.1722
 5729TIP3    H238679   0.851   0.371  15.875  0.8199 -0.4329  0.7582
 5730TIP3   OH238680   6.120   5.629  15.391 -0.1043 -0.2132 -0.4178
 5730TIP3    H138681   6.081   5.642  15.478  1.2764  1.9556 -0.0558
 5730TIP3    H238682   6.157   5.540  15.395  1.3071  0.3767  1.8353
 5731TIP3   OH238683   3.591   6.440   3.504 -0.2503 -0.1558  1.0021
 5731TIP3    H138684   3.595   6.500   3.430  0.5757 -1.3467  0.0448
 5731TIP3    H238685   3.555   6.359   3.468 -0.6912 -0.4724  2.1126
 5732TIP3   OH238686   5.159   0.854  12.318  0.6873  0.1116  0.3463
 5732TIP3    H138687   5.148   0.947  12.298  0.0885 -0.0494 -0.0757
 5732TIP3    H238688   5.103   0.808  12.255  0.9990 -0.5392  0.5293
 5733TIP3   OH238689   1.051   5.143   1.974  0.3401 -0.1555 -0.9862
 5733TIP3    H138690   1.058   5.048   1.964 -1.4840 -0.2950 -1.3082
 5733TIP3    H238691   0.958   5.158   1.989  0.9326  1.3486  1.8868
 5734TIP3   OH238692   2.469   4.751  14.406 -0.3070  0.1861 -0.1577
 5734TIP3    H138693   2.384   4.792  14.424 -1.9518 -2.5273 -1.0935
 5734TIP3    H238694   2.482   4.691  14.479  3.2554  3.6947  2.5295
 5735TIP3   OH238695   4.548   4.361   4.011  0.4363  0.5686 -0.5431
 5735TIP3    H138696   4.590   4.307   3.943  1.1460  0.7999 -0.2943
 5735TIP3    H238697   4.591   4.446   4.003 -1.1045  1.3156 -1.3472
 5736TIP3   OH238698   5.263   0.266  14.292  0.3351 -0.0519  0.8912
 5736TIP3    H138699   5.203   0.340  14.288 -0.1733 -0.4609  0.8939
 5736TIP3    H238700   5.292   0.263  14.383 -0.0389 -0.1679  1.0065
 5737TIP3   OH238701   0.462   2.470  11.737 -0.0928 -0.4088 -0.0204
 5737TIP3    H138702   0.422   2.421  11.809 -0.3134  0.6117  0.5708
 5737TIP3    H238703   0.463   2.561  11.768  0.6399 -0.0930 -0.9440
 5738TIP3   OH238704   6.516   3.338   2.686  0.2929 -0.1342  0.2409
 5738TIP3    H138705   6.487   3.423   2.721  1.8999  1.4646 -1.9852
 5738TIP3    H238706   6.445   3.313   2.626  0.2882  0.1847  0.1067
 5739TIP3   OH238707   1.083   5.118  14.875  0.0142 -0.0086 -0.0152
 5739TIP3    H138708   0.988   5.107  14.885 -0.1670  2.1721  1.4200
 5739TIP3    H238709   1.097   5.118  14.781 -1.0053 -2.7953 -0.2736
 5740TIP3   OH238710   5.942   0.473   0.540 -0.0555  0.2668 -0.2539
 5740TIP3    H138711   5.890   0.408   0.588  2.2326 -0.9477  0.7278
 5740TIP3    H238712   5.975   0.532   0.608 -1.6814  2.2622 -1.0802
 5741TIP3   OH238713   4.818   1.853  10.631 -0.1935 -0.0146 -0.4868
 5741TIP3    H138714   4.803   1.775  10.684 -0.6825  0.2603 -0.2127
 5741TIP3    H238715   4.799   1.826  10.541 -2.2403  0.2638 -0.1847
 5742TIP3   OH238716   0.726   6.495   2.476 -0.0634 -0.7158  0.0062
 5742TIP3    H138717   0.682   6.537   2.551  0.2316 -0.0422 -0.1895
 5742TIP3    H238718   0.676   6.415   2.461 -0.1868 -0.8078  0.8620
 5743TIP3   OH238719   2.180   5.349  11.698  0.4700 -0.3570  0.5846
 5743TIP3    H138720   2.218   5.262  11.708 -3.0186 -2.4258 -1.7795
 5743TIP3    H238721   2.191   5.370  11.606 -1.3219  0.2619  0.4582
 5744TIP3   OH238722   3.451   0.435  16.188 -0.3889 -0.1666  0.3871
 5744TIP3    H138723   3.393   0.497  16.143 -0.2217 -1.0204 -1.0585
 5744TIP3    H238724   3.539   0.459  16.160 -0.3085 -0.9314 -0.0183
 5745TIP3   OH238725   6.833   0.299  11.034  0.2928  0.1101  0.7920
 5745TIP3    H138726   6.843   0.235  11.104  0.2085 -0.9918 -0.1657
 5745TIP3    H238727   6.806   0.247  10.958  0.4910  1.2501 -0.0850
 5746TIP3   OH238728   0.941   2.197   3.400  0.1598  0.2656 -0.4222
 5746TIP3    H138729   0.957   2.282   3.442  0.6262 -0.4127  0.8425
 5746TIP3    H238730   0.863   2.163   3.444  1.2867 -0.9458  0.7684
 5747TIP3   OH238731   0.146   1.342  11.824 -0.1521  0.0525 -0.5864
 5747TIP3    H138732   0.135   1.432  11.855 -0.4344  0.4588 -1.8383
 5747TIP3    H238733   0.056   1.308  11.818 -0.1355  0.1578 -1.4747
 5748TIP3   OH238734   1.193   5.887  15.462 -0.7859 -0.5031 -0.3730
 5748TIP3    H138735   1.127   5.928  15.407 -0.4550 -0.6795 -0.9040
 5748TIP3    H238736   1.265   5.865  15.403  0.3607  0.9369  0.4054
 5749TIP3   OH238737   3.674   6.240   1.444 -0.1137 -0.0661 -1.0769
 5749TIP3    H138738   3.596   6.282   1.480 -0.8913 -3.3564  1.5568
 5749TIP3    H238739   3.740   6.309   1.441 -2.2561  2.1233 -0.5087
 5750TIP3   OH238740   1.745   4.057  15.218 -0.1373  0.0743  0.4251
 5750TIP3    H138741   1.739   4.095  15.130 -0.1035  1.3422  0.9491
 5750TIP3    H238742   1.839   4.040  15.230 -0.2272 -0.8331 -0.0657
 5751TIP3   OH238743   5.767   1.874  16.542 -0.0655 -0.0533  0.3882
 5751TIP3    H138744   5.673   1.856  16.547  0.0322 -0.7737 -0.2638
 5751TIP3    H238745   5.797   1.868  16.633 -0.7192  0.6235  0.6665
 5752TIP3   OH238746   0.447   3.369  12.986  0.1478 -0.2855 -0.0637
 5752TIP3    H138747   0.422   3.419  12.909  0.2343  0.4575  0.3868
 5752TIP3    H238748   0.410   3.417  13.060  0.0008 -1.0269  0.3615
 5753TIP3   OH238749   2.897   2.128  14.909  0.0303  0.0247  0.5834
 5753TIP3    H138750   2.831   2.102  14.844  0.6779 -0.7020  0.1905
 5753TIP3    H238751   2.957   2.184  14.860  0.6076 -0.6518  0.4945
 5754TIP3   OH238752   5.382   3.018   0.300 -0.0533  0.0959  0.2939
 5754TIP3    H138753   5.310   2.961   0.274  0.3799 -0.3811  0.1494
 5754TIP3    H238754   5.421   2.975   0.376  0.1862  0.2712  0.2710
 5755TIP3   OH238755   4.907   2.641   0.410 -0.1320  0.5335 -0.3815
 5755TIP3    H138756   4.892   2.707   0.342  2.0852  1.2523 -0.2474
 5755TIP3    H238757   4.940   2.565   0.364  1.0885  0.9174 -0.1621
 5756TIP3   OH238758   6.692   5.929   1.756 -0.1055 -0.2243  0.1278
 5756TIP3    H138759   6.755   5.923   1.828  0.9654  1.9701 -0.5450
 5756TIP3    H238760   6.608   5.908   1.796  0.8264 -2.0391  1.3245
 5757TIP3   OH238761   2.202   6.869   4.677 -0.3659 -0.4630  0.2417
 5757TIP3    H138762   2.225   6.902   4.764  1.0798  1.4249 -0.7718
 5757TIP3    H238763   2.285   6.843   4.638 -0.7575  0.2528 -1.1390
 5758TIP3   OH238764   3.351   1.906  13.636  0.4636  0.1289  0.4212
 5758TIP3    H138765   3.340   1.901  13.541  1.7140  0.0427  0.2692
 5758TIP3    H238766   3.340   1.998  13.656 -1.3368 -0.0448  0.4194
 5759TIP3   OH238767   0.278   3.881  15.016  0.0792  0.0754 -0.6028
 5759TIP3    H138768   0.240   3.842  15.095  1.7728 -0.3752  0.0462
 5759TIP3    H238769   0.341   3.945  15.049 -0.1285  0.8351 -1.6307
 5760TIP3   OH238770   6.044   1.928   0.421  0.1434 -0.5643 -0.4715
 5760TIP3    H138771   6.139   1.938   0.411  0.2721 -1.6576 -0.5729
 5760TIP3    H238772   6.027   1.949   0.513  0.6394 -1.2820 -0.2022
 5761TIP3   OH238773   5.157   2.815  13.064 -0.1113 -0.3981 -0.0242
 5761TIP3    H138774   5.201   2.857  13.137 -1.5094  0.4742  0.3414
 5761TIP3    H238775   5.181   2.867  12.988 -1.1362  0.5739  0.2984
 5762TIP3   OH238776   5.848   6.761   6.083  0.3659  0.1310  1.0978
 5762TIP3    H138777   5.754   6.750   6.065  0.3524  1.2775  0.4114
 5762TIP3    H238778   5.876   6.674   6.112 -0.6105 -0.6145 -0.0488
 5763TIP3   OH238779   3.021   4.856   5.404 -0.0000 -0.1130  0.1013
 5763TIP3    H138780   3.068   4.779   5.435  1.6118  1.5051  1.9447
 5763TIP3    H238781   3.015   4.844   5.309  0.9692 -2.0609  0.2392
 5764TIP3   OH238782   6.689   0.561   1.401  0.1647  0.6873  0.4164
 5764TIP3    H138783   6.769   0.575   1.351 -0.7132  1.4246 -0.8431
 5764TIP3    H238784   6.649   0.648   1.407 -0.1982  0.4573  1.6546
 5765TIP3   OH238785   6.206   6.240   2.626  0.0540 -0.3848  0.3111
 5765TIP3    H138786   6.207   6.219   2.720  0.9363 -1.4919  0.0765
 5765TIP3    H238787   6.271   6.310   2.617 -1.8474  1.5778  0.8714
 5766TIP3   OH238788   0.362   2.550  16.530 -0.2959 -0.0693 -0.0693
 5766TIP3    H138789   0.434   2.495  16.563 -0.8106  0.1497  1.4895
 5766TIP3    H238790   0.357   2.528  16.437 -1.1926 -3.5156  0.6292
 5767TIP3   OH238791   6.250   4.952   3.413 -0.1472 -0.0487  0.2152
 5767TIP3    H138792   6.247   4.902   3.331 -0.4739 -0.7192  0.6260
 5767TIP3    H238793   6.160   4.983   3.425 -0.5265 -1.4442  1.2061
 5768TIP3   OH238794   2.661   5.925  16.076 -0.1927  0.6427  0.1238
 5768TIP3    H138795   2.586   5.889  16.123  0.3363 -0.2624  0.3008
 5768TIP3    H238796   2.707   5.978  16.141 -0.5228  0.9948  0.0822
 5769TIP3   OH238797   0.574   3.174   1.632 -0.3117  0.3103 -0.5596
 5769TIP3    H138798   0.508   3.126   1.683  0.9160  0.7468  1.5883
 5769TIP3    H238799   0.565   3.265   1.662 -0.0428  0.7313 -1.7198
 5770TIP3   OH238800   2.472   4.307  14.568  0.4840 -0.4895 -0.1711
 5770TIP3    H138801   2.424   4.240  14.616  1.2926 -0.1482  1.1617
 5770TIP3    H238802   2.424   4.317  14.486 -0.5365 -1.5822  0.2701
 5771TIP3   OH238803   3.269   2.608  15.626 -0.3099  0.0078 -0.4995
 5771TIP3    H138804   3.284   2.687  15.574 -1.4610  0.2134 -0.5419
 5771TIP3    H238805   3.322   2.620  15.704  0.2746  0.3790 -0.9447
 5772TIP3   OH238806   0.674   1.346  15.841  0.1050 -0.3959  0.4129
 5772TIP3    H138807   0.746   1.285  15.850 -1.0647 -2.2201 -1.5309
 5772TIP3    H238808   0.595   1.291  15.843 -0.9686  0.8773 -1.9445
 5773TIP3   OH238809   4.973   0.629  10.753 -0.0971  0.1498  0.1054
 5773TIP3    H138810   4.974   0.622  10.658  0.8588  1.6340 -0.0253
 5773TIP3    H238811   4.901   0.690  10.772  0.9489  1.4166  0.1616
 5774TIP3   OH238812   5.038   3.323   4.886  0.2946 -0.0586 -0.4266
 5774TIP3    H138813   4.971   3.332   4.954  1.3777 -1.6770  0.9346
 5774TIP3    H238814   4.995   3.271   4.818 -0.1301 -0.2782  0.0038
 5775TIP3   OH238815   6.181   5.346  15.355  0.0106  0.3731 -0.1922
 5775TIP3    H138816   6.246   5.348  15.285 -0.1748 -1.1027 -0.4374
 5775TIP3    H238817   6.227   5.305  15.429  0.2897  2.1450  0.6799
 5776TIP3   OH238818   2.124   2.495   1.717  0.0054  0.2730 -0.1498
 5776TIP3    H138819   2.049   2.533   1.671 -0.9384  1.0034  1.8831
 5776TIP3    H238820   2.176   2.571   1.743 -0.2642  0.0049  1.2478
 5777TIP3   OH238821   2.292   3.781   5.456 -0.2185  0.0581 -0.1258
 5777TIP3    H138822   2.270   3.867   5.491  1.0810  0.7024 -0.8156
 5777TIP3    H238823   2.214   3.754   5.407 -0.6690  0.7782  0.1778
 5778TIP3   OH238824   6.787   6.397  11.326  0.0842 -0.4653  0.0687
 5778TIP3    H138825   6.856   6.463  11.333  0.3744 -0.9020  1.7340
 5778TIP3    H238826   6.706   6.444  11.346  0.3640 -0.6836  1.9448
 5779TIP3   OH238827   6.530   2.071   4.454 -0.5818  0.0825 -0.0777
 5779TIP3    H138828   6.493   2.151   4.416  2.2135  1.0037 -1.0879
 5779TIP3    H238829   6.553   2.095   4.543  1.2239  0.8112 -0.6970
 5780TIP3   OH238830   6.207   0.666   2.756  0.0720  0.4028  0.2099
 5780TIP3    H138831   6.289   0.715   2.764  1.7056 -1.7849 -1.7170
 5780TIP3    H238832   6.168   0.697   2.674 -0.3656  0.4912  0.4483
 5781TIP3   OH238833   2.882   5.174  12.152 -0.0617  0.9401 -0.7902
 5781TIP3    H138834   2.849   5.084  12.157  1.1031  0.5133 -0.5313
 5781TIP3    H238835   2.835   5.212  12.077  0.7941 -0.4817 -2.1239
 5782TIP3   OH238836   3.620   2.713   1.689  0.2422  0.7157  0.2251
 5782TIP3    H138837   3.567   2.792   1.673 -0.2093  0.7806  1.7865
 5782TIP3    H238838   3.556   2.642   1.689  0.5993  0.3912 -0.8239
 5783TIP3   OH238839   1.878   0.029   3.586 -0.4793 -0.5017 -0.2482
 5783TIP3    H138840   1.897   0.075   3.667  0.4309  0.2763 -0.8789
 5783TIP3    H238841   1.788  -0.002   3.595 -1.1721  1.5391  0.1379
 5784TIP3   OH238842   3.048   1.827   5.552 -0.4672  0.2687 -0.4577
 5784TIP3    H138843   3.038   1.784   5.467 -0.4150  0.4643 -0.5633
 5784TIP3    H238844   3.132   1.796   5.585 -0.4040  0.3341 -0.5581
 5785TIP3   OH238845   6.287   3.200  15.373 -0.4047 -0.3207  0.0920
 5785TIP3    H138846   6.375   3.225  15.344  0.4736  0.6383  3.2424
 5785TIP3    H238847   6.233   3.211  15.295  1.9355  0.7365 -1.5110
 5786TIP3   OH238848   6.137   4.604  12.193  0.0340  0.1189  0.5584
 5786TIP3    H138849   6.159   4.691  12.227 -0.0329  0.2930  0.1632
 5786TIP3    H238850   6.197   4.591  12.119  1.5550 -1.0864  1.9216
 5787TIP3   OH238851   6.263   1.291  15.593 -0.1405 -0.1562  0.2986
 5787TIP3    H138852   6.270   1.357  15.524 -1.8915 -0.6722 -0.4470
 5787TIP3    H238853   6.346   1.244  15.590 -0.0388  0.0587 -1.2626
 5788TIP3   OH238854   3.834   4.402  12.842 -0.0597  0.1502 -0.1616
 5788TIP3    H138855   3.928   4.409  12.860  0.1610  1.1028 -1.5193
 5788TIP3    H238856   3.818   4.307  12.835  0.5677 -0.0708  1.1241
 5789TIP3   OH238857   3.413   6.804  10.760  0.0584 -0.2275 -0.0875
 5789TIP3    H138858   3.387   6.862  10.832  1.1131 -1.1001  1.0387
 5789TIP3    H238859   3.427   6.863  10.686 -0.6322  0.7428  0.5311
 5790TIP3   OH238860   1.267   0.929   0.728  0.0051 -0.8081  0.5128
 5790TIP3    H138861   1.305   1.017   0.730  2.2572 -1.7313  1.2810
 5790TIP3    H238862   1.341   0.871   0.712 -1.5218 -2.5537 -0.6047
 5791TIP3   OH238863   6.802   2.029  13.533  0.5511 -0.1558  0.4698
 5791TIP3    H138864   6.794   2.043  13.627  1.9068  0.3173  0.5277
 5791TIP3    H238865   6.876   1.970  13.523  0.4171 -0.2073 -0.3041
 5792TIP3   OH238866   0.317   5.170  12.228  0.4980  0.0646  0.0661
 5792TIP3    H138867   0.303   5.183  12.134  0.7747  1.3311  0.1719
 5792TIP3    H238868   0.325   5.076  12.239 -1.3533 -0.2707 -0.9308
 5793TIP3   OH238869   6.848   5.485  12.206  0.0204  0.6420  0.1217
 5793TIP3    H138870   6.890   5.426  12.269 -0.8789 -0.5767 -0.3690
 5793TIP3    H238871   6.921   5.528  12.161  0.8767 -2.1793 -1.4290
 5794TIP3   OH238872   3.608   6.419  13.067  0.1575 -0.6520 -0.7681
 5794TIP3    H138873   3.591   6.506  13.103 -2.3423 -1.0981 -0.7304
 5794TIP3    H238874   3.627   6.435  12.975 -1.3383 -0.1160 -1.0038
 5795TIP3   OH238875   3.384   4.553  16.058  0.7084  0.0841  0.1206
 5795TIP3    H138876   3.343   4.467  16.062  2.4095 -0.7393  0.8588
 5795TIP3    H238877   3.458   4.541  15.998  1.6069  0.7230  1.0750
 5796TIP3   OH238878   3.127   0.865   5.514 -0.0931 -0.4406 -0.3964
 5796TIP3    H138879   3.125   0.886   5.421 -1.6102  1.0907 -0.0762
 5796TIP3    H238880   3.122   0.950   5.558  0.1081 -1.1582  1.0907
 5797TIP3   OH238881   4.469   4.875   3.349 -0.1133 -0.0612  0.1393
 5797TIP3    H138882   4.377   4.850   3.354 -0.6632  1.8672  0.2917
 5797TIP3    H238883   4.468   4.968   3.328  1.8224 -0.2623 -1.1671
 5798TIP3   OH238884   6.733   2.430  15.429 -0.7505  0.1360  0.3784
 5798TIP3    H138885   6.676   2.454  15.502 -0.9240  1.6342 -0.2114
 5798TIP3    H238886   6.744   2.512  15.380  1.5104 -0.2198  0.2043
 5799TIP3   OH238887   3.861   6.400  14.737  0.8292 -0.3707 -0.3881
 5799TIP3    H138888   3.906   6.392  14.821  2.0940 -2.1915 -1.1628
 5799TIP3    H238889   3.921   6.359  14.674  0.4470  1.9502 -2.4094
 5800TIP3   OH238890   3.862   3.531  15.211  0.2567 -0.0274 -0.1003
 5800TIP3    H138891   3.954   3.515  15.233  0.6299 -0.1537 -1.6220
 5800TIP3    H238892   3.864   3.613  15.162 -0.4488 -0.0439 -0.1598
 5801TIP3   OH238893   4.121   2.020  12.518 -0.0868 -0.1498  0.5529
 5801TIP3    H138894   4.161   1.945  12.562  0.7344  0.3772  0.7068
 5801TIP3    H238895   4.156   2.017  12.429 -0.4948 -0.2699  0.3914
 5802TIP3   OH238896   4.765   3.021   2.769 -0.2156  0.7465  0.7877
 5802TIP3    H138897   4.676   3.056   2.763 -0.4783 -0.0469 -0.2944
 5802TIP3    H238898   4.780   3.011   2.863 -1.3765  0.6672  0.9823
 5803TIP3   OH238899   6.346   4.300  15.638  0.0095 -0.1543  0.0824
 5803TIP3    H138900   6.311   4.371  15.583 -0.3975  2.4449  3.3732
 5803TIP3    H238901   6.268   4.262  15.680  0.4716 -0.5271  0.6102
 5804TIP3   OH238902   5.947   4.208   3.792 -0.1608  0.0408  0.8234
 5804TIP3    H138903   5.852   4.216   3.783  0.1384  1.2164 -2.6676
 5804TIP3    H238904   5.968   4.124   3.751  0.3807  0.3835  0.3744
 5805TIP3   OH238905   5.221   6.514  14.800  0.1966 -0.8626  0.6450
 5805TIP3    H138906   5.158   6.455  14.757  0.6714 -0.3212 -0.8769
 5805TIP3    H238907   5.204   6.504  14.893 -1.1772 -1.8056  0.3240
 5806TIP3   OH238908   4.088   3.829   1.433 -0.1060 -0.0210 -0.4897
 5806TIP3    H138909   4.080   3.778   1.352 -1.0074 -2.2051  0.8941
 5806TIP3    H238910   4.014   3.889   1.431 -0.2892 -0.2604 -1.1431
 5807TIP3   OH238911   2.726   0.732   3.996  0.7652  0.1659  0.5962
 5807TIP3    H138912   2.763   0.813   4.032  2.4583 -0.6399  0.7491
 5807TIP3    H238913   2.720   0.673   4.070  1.1299 -0.3951  0.1893
 5808TIP3   OH238914   6.059   1.053  13.844 -0.5933  0.4714  0.0933
 5808TIP3    H138915   6.090   0.999  13.917 -0.6399  0.8134  0.3706
 5808TIP3    H238916   6.115   1.130  13.846 -0.7655  0.6014 -0.0720
 5809TIP3   OH238917   3.001   5.890   3.110 -0.0757 -0.6929 -0.4619
 5809TIP3    H138918   2.966   5.812   3.153  1.1174 -0.5591  0.8106
 5809TIP3    H238919   2.930   5.954   3.116  0.4549 -0.2300  2.6201
 5810TIP3   OH238920   1.851   1.911   5.365 -0.5281  0.0099 -0.1334
 5810TIP3    H138921   1.825   1.829   5.323 -1.5605  1.4349 -2.4276
 5810TIP3    H238922   1.945   1.919   5.346 -0.2547 -0.9149  0.7057
 5811TIP3   OH238923   1.983   3.181   4.301  0.1516 -0.2115  0.2706
 5811TIP3    H138924   1.936   3.125   4.239 -0.5109  0.2455  0.3446
 5811TIP3    H238925   2.075   3.171   4.278 -0.1748  1.2333 -1.8964
 5812TIP3   OH238926   3.333   2.899   1.257  0.2795  0.1247  0.4876
 5812TIP3    H138927   3.304   2.973   1.203 -2.7725 -0.7467  0.7824
 5812TIP3    H238928   3.317   2.822   1.203  0.5319 -0.5286  1.3312
 5813TIP3   OH238929   5.283   6.869  11.525  0.3465 -0.1536 -0.2265
 5813TIP3    H138930   5.274   6.956  11.564  1.1430 -0.0010 -0.3687
 5813TIP3    H238931   5.282   6.885  11.431 -1.9443 -0.5559 -0.3496
 5814TIP3   OH238932   2.478   6.721  12.103 -0.9023  0.5747  0.1544
 5814TIP3    H138933   2.560   6.769  12.111 -0.4576  0.0190 -1.0183
 5814TIP3    H238934   2.464   6.683  12.190  2.0603 -2.4826 -0.5010
 5815TIP3   OH238935   3.762   0.132  16.472 -0.2493  0.3942  0.3021
 5815TIP3    H138936   3.690   0.193  16.452 -0.8021 -0.2204  0.3778
 5815TIP3    H238937   3.793   0.103  16.387  0.5116  1.3229  0.2372
 5816TIP3   OH238938   0.590   4.724   1.870  0.5330  0.1583 -0.4611
 5816TIP3    H138939   0.672   4.684   1.844  0.9154  0.2630  0.5280
 5816TIP3    H238940   0.610   4.768   1.953 -0.7222 -0.5487  0.2556
 5817TIP3   OH238941   6.490   0.245  16.884  0.2637 -0.0975 -0.0037
 5817TIP3    H138942   6.539   0.327  16.888  1.6278 -0.6906 -2.4990
 5817TIP3    H238943   6.555   0.178  16.863 -0.9096 -1.7614  1.3511
 5818TIP3   OH238944   0.540   0.393   3.193  0.5287  0.1439 -0.0271
 5818TIP3    H138945   0.553   0.473   3.243 -0.5315 -0.3085  1.0347
 5818TIP3    H238946   0.580   0.410   3.108  1.8641  1.1489  0.7739
 5819TIP3   OH238947   3.590   3.744   4.685 -0.3131 -0.1100 -0.7115
 5819TIP3    H138948   3.638   3.816   4.725 -0.1871 -1.5480  1.9122
 5819TIP3    H238949   3.657   3.694   4.637  0.0303  0.1852 -0.5422
 5820TIP3   OH238950   2.695   6.207   4.491 -0.1261  0.1213 -0.8774
 5820TIP3    H138951   2.764   6.212   4.558 -1.0471 -0.0538  0.1159
 5820TIP3    H238952   2.656   6.294   4.490 -1.1455 -0.2941 -0.0195
 5821TIP3   OH238953   2.524   2.279  15.536 -0.0698 -0.1507 -0.1610
 5821TIP3    H138954   2.508   2.206  15.596 -1.1582  0.2322  0.0411
 5821TIP3    H238955   2.600   2.324  15.573  0.0628 -0.6701  0.2070
 5822TIP3   OH238956   2.466   4.361  13.419  0.1028 -0.0975 -0.3723
 5822TIP3    H138957   2.501   4.426  13.480  1.4043 -0.0742 -1.1057
 5822TIP3    H238958   2.493   4.277  13.456 -0.4436 -0.1708 -0.1219
 5823TIP3   OH238959   5.181   4.595  10.924 -0.4762 -0.8229 -0.0101
 5823TIP3    H138960   5.162   4.681  10.962  0.4720 -0.4860 -0.2816
 5823TIP3    H238961   5.242   4.554  10.986  3.3945  0.8399 -2.3486
 5824TIP3   OH238962   4.492   5.583   3.669  0.6494 -0.2192  0.8571
 5824TIP3    H138963   4.487   5.647   3.598  0.7010 -0.7340  0.3889
 5824TIP3    H238964   4.496   5.637   3.748  1.8924  0.3920  0.4082
 5825TIP3   OH238965   5.007   5.878   3.528  0.0512 -0.0727 -0.4642
 5825TIP3    H138966   4.973   5.949   3.582  1.1790  0.2085 -0.0945
 5825TIP3    H238967   4.978   5.899   3.439  1.5348  1.6417 -0.5994
 5826TIP3   OH238968   5.182   2.838   4.731  0.4188  0.2327  0.3653
 5826TIP3    H138969   5.204   2.920   4.685  0.4241 -0.1823 -0.3930
 5826TIP3    H238970   5.097   2.856   4.771  0.4318  0.6239  0.2272
 5827TIP3   OH238971   2.527   2.369  14.508 -0.0081  0.1439  0.3586
 5827TIP3    H138972   2.467   2.342  14.439  0.2663 -0.6974  0.4331
 5827TIP3    H238973   2.475   2.427  14.564 -0.0383  1.3644 -0.8956
 5828TIP3   OH238974   4.797   2.268  12.190 -0.3833 -0.3040 -0.3963
 5828TIP3    H138975   4.782   2.295  12.281 -0.6923 -1.3375 -0.1197
 5828TIP3    H238976   4.889   2.288  12.175 -0.7362  1.4398 -0.4310
 5829TIP3   OH238977   4.423   2.181  15.918  0.0391  0.2188 -0.1382
 5829TIP3    H138978   4.495   2.198  15.978 -0.7433  0.4897  0.7574
 5829TIP3    H238979   4.398   2.268  15.886 -0.0429  0.1499 -0.2614
 5830TIP3   OH238980   2.441   2.974   4.586 -0.1033  0.1249  0.3766
 5830TIP3    H138981   2.362   3.022   4.610 -1.1214 -1.7209  0.8817
 5830TIP3    H238982   2.498   2.980   4.663  0.9499  2.6633 -0.4828
 5831TIP3   OH238983   6.753   5.010   1.881  0.4007 -0.1986  0.5121
 5831TIP3    H138984   6.698   5.041   1.809 -0.9644 -2.4518  0.4880
 5831TIP3    H238985   6.837   4.991   1.840 -0.9320 -3.4283 -1.1030
 5832TIP3   OH238986   3.503   4.715  13.020  0.5214 -0.5821  0.1442
 5832TIP3    H138987   3.584   4.664  13.026  1.2747  0.6042  0.3726
 5832TIP3    H238988   3.515   4.786  13.084 -0.2572  0.2045 -0.5608
 5833TIP3   OH238989   6.802   1.555   2.964  0.0262  0.9339 -0.1389
 5833TIP3    H138990   6.836   1.624   3.022  0.8013 -0.1062  0.6739
 5833TIP3    H238991   6.707   1.568   2.966 -0.0055  0.6714  1.7221
 5834TIP3   OH238992   2.913   0.179   2.251  0.2251 -0.0558 -0.3479
 5834TIP3    H138993   2.892   0.265   2.289 -0.1325 -0.8550  1.3993
 5834TIP3    H238994   2.838   0.125   2.274  0.5807 -0.9209 -1.1767
 5835TIP3   OH238995   6.786   6.731   2.158 -0.6325 -0.0391 -1.1912
 5835TIP3    H138996   6.860   6.771   2.111 -0.8481 -0.1077 -1.5898
 5835TIP3    H238997   6.786   6.640   2.131  0.0314 -0.4037 -0.0610
 5836TIP3   OH238998   2.536   4.291   2.045  0.3955 -0.2759  0.4660
 5836TIP3    H138999   2.626   4.302   2.012  1.1353  0.7092  2.6027
 5836TIP3    H239000   2.533   4.200   2.074  1.4209  0.2010  2.2060
 5837TIP3   OH239001   5.975   3.835  12.182  0.8408  0.3511  0.0233
 5837TIP3    H139002   5.922   3.914  12.192  1.6297  0.6655  2.2075
 5837TIP3    H239003   5.916   3.763  12.206  0.5161  0.3701 -0.6737
 5838TIP3   OH239004   6.671   6.673   3.784  0.2305  0.0864 -0.6369
 5838TIP3    H139005   6.684   6.661   3.690  0.0178 -1.2154 -0.5216
 5838TIP3    H239006   6.597   6.616   3.805 -0.5118  1.2874  0.1156
 5839TIP3   OH239007   6.012   0.353  10.603 -0.0715 -0.0714 -0.1070
 5839TIP3    H139008   5.921   0.324  10.608  0.2917 -1.3899 -0.8016
 5839TIP3    H239009   6.012   0.417  10.532 -0.8370  1.5741  1.2948
 5840TIP3   OH239010   1.325   5.518   4.285 -0.2313  0.1792 -0.0883
 5840TIP3    H139011   1.265   5.446   4.266 -1.1620  1.2695 -1.4029
 5840TIP3    H239012   1.271   5.585   4.327  0.3363  0.6404 -0.0702
 5841TIP3   OH239013   2.087   1.253   4.457  0.5576 -0.1484  0.3897
 5841TIP3    H139014   2.073   1.191   4.386  0.1095  0.1070  0.2568
 5841TIP3    H239015   2.014   1.314   4.451  1.2575  0.6845  0.2158
 5842TIP3   OH239016   0.591   1.662   0.668  0.2919 -0.2170  0.1463
 5842TIP3    H139017   0.562   1.615   0.590  1.6514  0.4812 -0.8232
 5842TIP3    H239018   0.541   1.744   0.666  2.3918  1.1015 -1.6682
 5843TIP3   OH239019   0.032   5.582  11.913  0.1940 -0.1428  0.1305
 5843TIP3    H139020  -0.016   5.655  11.874  0.8279 -0.0412 -0.4657
 5843TIP3    H239021   0.077   5.620  11.988  0.4969  0.0739 -0.1599
 5844TIP3   OH239022   2.116   0.689   5.767  0.4502  0.2951 -0.4944
 5844TIP3    H139023   2.094   0.782   5.764 -1.2639 -0.0871 -1.0535
 5844TIP3    H239024   2.068   0.655   5.843  2.6064  0.1837  0.9130
 5845TIP3   OH239025   4.761   3.948   0.701  0.0191 -0.4434  0.2631
 5845TIP3    H139026   4.696   3.942   0.772 -0.7743  0.3685 -0.3681
 5845TIP3    H239027   4.787   3.857   0.685 -0.0541 -0.6736  1.3474
 5846TIP3   OH239028   3.833   5.783  15.928  0.0397  0.3563  0.4663
 5846TIP3    H139029   3.791   5.863  15.961 -0.2453  0.2841  0.2806
 5846TIP3    H239030   3.815   5.784  15.834 -0.7942 -0.4226  0.6024
 5847TIP3   OH239031   3.114   3.008   0.393  0.3583 -0.0487 -0.0937
 5847TIP3    H139032   3.155   3.037   0.474  0.0021  0.1795  0.0022
 5847TIP3    H239033   3.157   2.925   0.373  0.9168  0.2164 -0.0236
 5848TIP3   OH239034   6.686   2.282  16.131 -0.6354  0.0616  0.0224
 5848TIP3    H139035   6.741   2.265  16.055  0.3508 -2.2090  1.1507
 5848TIP3    H239036   6.611   2.224  16.119 -0.1725 -0.7828  1.0275
 5849TIP3   OH239037   5.255   0.938   0.004  0.7177  0.6262 -0.2837
 5849TIP3    H139038   5.321   1.005   0.016 -0.0455  1.4277 -0.4741
 5849TIP3    H239039   5.175   0.975   0.042  0.1391  0.0788 -0.9313
 5850TIP3   OH239040   1.065   0.310   5.192  0.5805  0.0400 -0.1646
 5850TIP3    H139041   1.002   0.245   5.161  0.4019 -0.0206  0.3176
 5850TIP3    H239042   1.151   0.272   5.172  0.4700 -0.1248 -0.3269
 5851TIP3   OH239043   4.782   4.472   3.908 -0.2492  0.2966  0.2539
 5851TIP3    H139044   4.815   4.383   3.920 -0.4713  0.2460  0.5045
 5851TIP3    H239045   4.828   4.524   3.974 -2.4189 -0.2220  2.3068
 5852TIP3   OH239046   4.174   3.916   1.691  0.0150 -0.3549 -0.7302
 5852TIP3    H139047   4.102   3.917   1.628 -0.3901  0.4013 -0.2672
 5852TIP3    H239048   4.159   3.838   1.744 -0.6170 -0.0687 -0.4735
 5853TIP3   OH239049   0.709   5.731   4.054 -0.2877 -0.0216  0.1995
 5853TIP3    H139050   0.703   5.810   4.000  2.5942  0.6520  0.7228
 5853TIP3    H239051   0.735   5.764   4.141  0.9329 -1.5233  0.4381
 5854TIP3   OH239052   3.097   2.700  14.520  0.0618  0.0739 -0.6435
 5854TIP3    H139053   3.053   2.619  14.496  1.8640 -1.2603  0.2538
 5854TIP3    H239054   3.041   2.738  14.588 -0.7107 -0.5166 -0.9311
 5855TIP3   OH239055   6.533   1.765  12.038 -0.2868 -0.1598 -0.3999
 5855TIP3    H139056   6.497   1.795  11.954  0.1837 -0.7066 -0.8019
 5855TIP3    H239057   6.464   1.708  12.073 -1.4343  1.7545  0.6367
 5856TIP3   OH239058   3.598   1.776  12.385 -0.0856  0.6007 -0.2574
 5856TIP3    H139059   3.587   1.871  12.380  1.1033  0.9064  1.8008
 5856TIP3    H239060   3.640   1.761  12.470  0.9287 -1.6661 -1.0781
 5857TIP3   OH239061   0.822   4.386  14.719  0.5771  0.1173 -0.5132
 5857TIP3    H139062   0.736   4.371  14.759 -0.5401  2.6240 -1.7219
 5857TIP3    H239063   0.870   4.436  14.785  0.2288  0.7259 -0.7121
 5858TIP3   OH239064   3.356   6.217  15.224 -0.2552 -0.1041  0.1581
 5858TIP3    H139065   3.305   6.297  15.208 -0.5324 -0.1129  0.9513
 5858TIP3    H239066   3.438   6.232  15.178  0.2941  1.2819  1.4884
 5859TIP3   OH239067   2.596   2.174   4.087  0.1490  0.7504  0.6857
 5859TIP3    H139068   2.586   2.198   4.179 -2.3719 -0.9544  0.9748
 5859TIP3    H239069   2.683   2.135   4.081 -0.3254 -0.8065  2.8202
 5860TIP3   OH239070   3.160   1.064  12.600  0.1546 -0.4454  0.3816
 5860TIP3    H139071   3.133   0.979  12.634 -1.3409  0.6386  2.0197
 5860TIP3    H239072   3.079   1.110  12.582  0.9431  0.6816 -0.4605
 5861TIP3   OH239073   5.489   6.401  12.783  0.3524 -0.1865  0.6731
 5861TIP3    H139074   5.513   6.326  12.837  0.2782 -0.6178  0.1080
 5861TIP3    H239075   5.514   6.377  12.694 -1.1585 -0.2189  0.2255
 5862TIP3   OH239076   0.861   4.626   6.171  0.1324 -0.0566 -0.4957
 5862TIP3    H139077   0.858   4.719   6.196 -1.7165  0.0850 -1.1154
 5862TIP3    H239078   0.822   4.580   6.246 -0.6250 -0.1439 -0.9381
 5863TIP3   OH239079   2.272   5.585   1.766  0.6398 -0.1353  0.3568
 5863TIP3    H139080   2.250   5.493   1.747  0.6600 -0.4603  1.8029
 5863TIP3    H239081   2.361   5.595   1.732  0.1065 -0.2102 -1.1369
 5864TIP3   OH239082   4.290   3.075  10.759 -0.3712 -0.1395  0.5027
 5864TIP3    H139083   4.356   3.024  10.807 -0.2416  0.6140  1.1472
 5864TIP3    H239084   4.336   3.104  10.679 -0.3735 -0.8154  0.2488
 5865TIP3   OH239085   0.900   4.126   3.686  0.1564 -0.7786  0.4655
 5865TIP3    H139086   0.897   4.221   3.675 -0.1707 -0.5883  1.9703
 5865TIP3    H239087   0.953   4.095   3.613  0.2087  0.5509 -0.0877
 5866TIP3   OH239088   6.139   4.609  13.505 -0.2885 -0.3666 -0.4626
 5866TIP3    H139089   6.163   4.518  13.524 -1.0866 -0.5282 -0.1832
 5866TIP3    H239090   6.085   4.603  13.426 -3.2883 -0.5959  1.4141
 5867TIP3   OH239091   1.313   1.577   1.682 -0.0872 -0.0554 -0.3913
 5867TIP3    H139092   1.401   1.541   1.682 -0.9662 -2.3780 -0.1160
 5867TIP3    H239093   1.307   1.628   1.601  0.2577 -3.2448 -2.6012
 5868TIP3   OH239094   5.877   2.528   2.474 -0.1072  0.5588 -0.1847
 5868TIP3    H139095   5.836   2.453   2.431  0.9836  0.2257 -0.6787
 5868TIP3    H239096   5.811   2.597   2.471 -1.2054 -0.4293  0.4474
 5869TIP3   OH239097   5.481   1.003  14.086  0.1505  0.0964  0.9503
 5869TIP3    H139098   5.393   0.966  14.077  0.8669 -1.5204  0.3148
 5869TIP3    H239099   5.483   1.074  14.022  0.5981 -2.4757 -2.1281
 5870TIP3   OH239100   2.260   0.925   5.935 -0.0800 -0.1729 -0.2212
 5870TIP3    H139101   2.329   0.928   6.001  3.0824 -1.8051 -3.1019
 5870TIP3    H239102   2.198   0.859   5.967  0.2918  0.4483  1.9178
 5871TIP3   OH239103   1.450   3.079   4.798 -0.3296  0.1803 -0.1536
 5871TIP3    H139104   1.508   3.062   4.724 -0.5002  0.2471 -0.3042
 5871TIP3    H239105   1.423   2.992   4.827  1.0737  0.0698  0.9148
 5872TIP3   OH239106   6.791   5.894  13.157 -0.1168  0.1478  0.2135
 5872TIP3    H139107   6.844   5.936  13.090  0.5464 -1.1499 -0.0934
 5872TIP3    H239108   6.835   5.915  13.240 -0.6624  1.3310  0.2307
 5873TIP3   OH239109   4.052   0.527   3.788 -0.3376  0.1515 -0.2085
 5873TIP3    H139110   4.093   0.562   3.709  1.1883 -0.5250  0.2698
 5873TIP3    H239111   4.104   0.451   3.811 -0.9419  0.1651  1.2919
 5874TIP3   OH239112   0.245   1.412   3.490 -0.0758  0.4761  0.3571
 5874TIP3    H139113   0.180   1.342   3.485  1.2103 -0.7403 -0.0470
 5874TIP3    H239114   0.195   1.492   3.476 -1.5002 -0.3972  0.2283
 5875TIP3   OH239115   2.526   0.348  12.116 -0.3144 -0.0805  0.2959
 5875TIP3    H139116   2.606   0.314  12.076  0.1328 -0.0098  1.1177
 5875TIP3    H239117   2.542   0.345  12.210 -0.8141  1.0556  0.4404
 5876TIP3   OH239118   1.556   5.522  13.838  0.6194 -0.1055 -0.5351
 5876TIP3    H139119   1.643   5.557  13.855  1.3537 -0.2965 -3.4300
 5876TIP3    H239120   1.506   5.597  13.805 -0.1020 -0.1989  0.2787
 5877TIP3   OH239121   4.999   2.219  11.459  0.2191  0.0396 -0.8364
 5877TIP3    H139122   4.938   2.158  11.416 -0.3945 -1.3397  1.7885
 5877TIP3    H239123   4.945   2.294  11.483 -0.7124 -1.3363  1.8143
 5878TIP3   OH239124   4.149   5.934  11.101  0.6760 -0.2130  0.8164
 5878TIP3    H139125   4.207   5.998  11.060  0.2605  0.4290  1.1924
 5878TIP3    H239126   4.061   5.974  11.095  0.3387 -0.9774  0.6131
 5879TIP3   OH239127   2.447   4.342   5.102 -0.3923 -0.1689  0.4143
 5879TIP3    H139128   2.365   4.293   5.108 -0.2678 -0.4601 -0.1432
 5879TIP3    H239129   2.437   4.413   5.164  0.1395 -1.9010  2.5895
 5880TIP3   OH239130   6.727   5.853  14.066  0.0363  0.0829  0.0135
 5880TIP3    H139131   6.781   5.784  14.026  1.5149  0.5904  1.0172
 5880TIP3    H239132   6.713   5.823  14.156  1.3815  1.3904  0.7152
 5881TIP3   OH239133   3.008   6.073   4.473 -0.1529  0.3143 -0.2180
 5881TIP3    H139134   3.018   6.163   4.440 -1.2173  0.6186  0.2284
 5881TIP3    H239135   2.948   6.082   4.547 -0.2197 -0.7652 -0.1330
 5882TIP3   OH239136   3.817   2.142  13.184 -0.5826  0.0914 -0.5537
 5882TIP3    H139137   3.828   2.049  13.163  1.4853 -0.0679  0.9170
 5882TIP3    H239138   3.866   2.188  13.116  0.2110 -0.0314 -0.0736
 5883TIP3   OH239139   1.178   2.067  15.522 -0.5399  0.2884  0.2311
 5883TIP3    H139140   1.259   2.020  15.543 -0.6152  0.1902  0.3066
 5883TIP3    H239141   1.188   2.151  15.567 -0.9722 -0.1625  1.2162
 5884TIP3   OH239142   5.860   4.869  14.148  0.1110 -0.4785  0.5215
 5884TIP3    H139143   5.875   4.790  14.201 -2.4531 -2.0440 -0.9102
 5884TIP3    H239144   5.840   4.937  14.212  0.5640 -1.4346  1.7200
 5885TIP3   OH239145   3.603   5.137   0.724  0.1089 -0.3406 -0.4914
 5885TIP3    H139146   3.677   5.197   0.712  0.0268 -0.1400 -0.0364
 5885TIP3    H239147   3.535   5.192   0.762 -0.2887 -0.5167 -0.9426
 5886TIP3   OH239148   4.665   5.736   1.508  0.7570  0.5668 -0.0495
 5886TIP3    H139149   4.714   5.676   1.565  3.6135  0.3988 -2.4564
 5886TIP3    H239150   4.582   5.691   1.492  0.6559 -0.2461  2.3160
 5887TIP3   OH239151   5.365   5.229   3.560 -0.6272 -0.0536 -0.9833
 5887TIP3    H139152   5.307   5.178   3.616 -2.0249 -0.9569 -3.1089
 5887TIP3    H239153   5.443   5.174   3.550  0.1693  0.6266  0.8935
 5888TIP3   OH239154   2.444   6.341  10.770 -0.1520  0.0493 -0.3671
 5888TIP3    H139155   2.424   6.297  10.687  0.2162  0.2907 -0.5851
 5888TIP3    H239156   2.536   6.322  10.786  0.2555  1.4349 -0.9057
 5889TIP3   OH239157   1.465   4.029   5.317 -0.5717 -0.1687 -0.7211
 5889TIP3    H139158   1.532   3.971   5.280  1.6424 -0.1652  2.8179
 5889TIP3    H239159   1.412   3.972   5.372  1.4883  0.8851  2.6163
 5890TIP3   OH239160   5.897   2.738  11.453  0.4864 -0.1835 -0.2720
 5890TIP3    H139161   5.848   2.769  11.530 -1.5886  0.3558 -1.7291
 5890TIP3    H239162   5.983   2.778  11.462 -0.4174  1.6672  0.6828
 5891TIP3   OH239163   0.926   3.825  15.236  0.1848  0.3177 -0.2464
 5891TIP3    H139164   0.963   3.790  15.317 -0.3774  0.1313 -0.0671
 5891TIP3    H239165   0.994   3.811  15.171 -0.3258 -1.9113 -0.3778
 5892TIP3   OH239166   3.168   2.680  11.061 -0.2544  0.2618  0.1407
 5892TIP3    H139167   3.196   2.641  10.978  1.9156  0.0789  0.9140
 5892TIP3    H239168   3.198   2.771  11.056  1.0322 -0.0729  1.1958
 5893TIP3   OH239169   2.765   4.303  15.767  0.5582 -0.1998  0.2477
 5893TIP3    H139170   2.833   4.268  15.826  0.8148  1.0252  0.7268
 5893TIP3    H239171   2.754   4.236  15.700  2.9177 -0.0604 -0.3602
 5894TIP3   OH239172   1.327   0.297  16.267  0.0894  0.8344  0.1532
 5894TIP3    H139173   1.413   0.259  16.285 -0.0872 -0.4055 -1.4855
 5894TIP3    H239174   1.330   0.382  16.311  1.3751 -0.0316  1.8792
 5895TIP3   OH239175   0.374   2.485  14.483 -0.3066 -0.7684 -0.0393
 5895TIP3    H139176   0.340   2.514  14.398 -0.1718 -1.0653 -0.1941
 5895TIP3    H239177   0.374   2.390  14.478 -0.3931 -0.7905  0.3330
 5896TIP3   OH239178   1.254   0.590  12.310 -0.3769 -0.4654 -0.1707
 5896TIP3    H139179   1.170   0.608  12.268 -1.1852 -1.5029  0.9445
 5896TIP3    H239180   1.306   0.668  12.294 -1.7805  0.4654 -0.3263
 5897TIP3   OH239181   0.819   6.595  11.485 -0.5737  0.4386  0.1199
 5897TIP3    H139182   0.878   6.532  11.444 -0.6309  1.1591 -1.0949
 5897TIP3    H239183   0.732   6.558  11.473 -0.5979  0.6915 -0.4922
 5898TIP3   OH239184   6.192   2.394  15.017 -0.2838  0.4448 -0.1618
 5898TIP3    H139185   6.196   2.303  14.986  0.2870  0.0840  0.9330
 5898TIP3    H239186   6.274   2.433  14.988  0.4985 -0.0444  1.2699
 5899TIP3   OH239187   0.279   3.993   0.278  0.0686 -0.3424 -0.1897
 5899TIP3    H139188   0.238   3.908   0.294 -2.1678  0.8198  0.7106
 5899TIP3    H239189   0.293   4.030   0.365 -1.8932  1.4453 -0.5423
 5900TIP3   OH239190   6.859   0.244  15.646 -0.0006 -0.0454 -0.1084
 5900TIP3    H139191   6.934   0.302  15.642 -0.4887  0.7080  1.1231
 5900TIP3    H239192   6.840   0.222  15.555  0.9313  0.7478 -0.5044
 5901TIP3   OH239193   6.651   3.866   0.284  0.4236 -0.0804  0.1481
 5901TIP3    H139194   6.744   3.863   0.261  0.4931  3.1573 -0.3590
 5901TIP3    H239195   6.613   3.790   0.239  2.7275 -1.3347  0.1617
 5902TIP3   OH239196   4.702   5.867  13.747  0.3954 -0.0863 -0.1211
 5902TIP3    H139197   4.637   5.801  13.724  1.2985 -1.6394  1.5411
 5902TIP3    H239198   4.713   5.859  13.842  0.5025  2.5364  0.1808
 5903TIP3   OH239199   0.576   1.856   1.621 -0.0120  0.2657  0.2867
 5903TIP3    H139200   0.494   1.820   1.654  0.2947 -0.2040  0.5459
 5903TIP3    H239201   0.554   1.945   1.593 -0.2473  0.7762  1.9569
 5904TIP3   OH239202   5.016   6.684   5.119  0.0433 -0.7489  0.1759
 5904TIP3    H139203   4.935   6.646   5.086  0.1571  0.4618 -1.6270
 5904TIP3    H239204   4.988   6.766   5.161  0.4077  0.5614 -1.9597
 5905TIP3   OH239205   5.136   1.779  12.930 -0.2466  0.3995 -0.0475
 5905TIP3    H139206   5.153   1.724  12.853  0.1837 -1.8489  1.5467
 5905TIP3    H239207   5.221   1.786  12.973 -0.6692  0.7943  0.7414
 5906TIP3   OH239208   1.842   3.016   1.393  0.9659 -0.7526 -0.0342
 5906TIP3    H139209   1.926   3.055   1.415 -0.1286  1.4997  0.5287
 5906TIP3    H239210   1.840   3.016   1.297  1.1847  0.2949 -0.0601
 5907TIP3   OH239211   2.977   6.378   0.161 -0.0475  0.5057  0.1101
 5907TIP3    H139212   2.911   6.431   0.206  0.0413  0.6328  0.0912
 5907TIP3    H239213   2.995   6.306   0.222  0.5682  1.0493  0.5783
 5908TIP3   OH239214   5.183   5.207   5.693 -0.2699  0.5406 -0.1452
 5908TIP3    H139215   5.245   5.145   5.653  1.9128  0.7356  2.6251
 5908TIP3    H239216   5.167   5.171   5.780  0.4585  3.4411  1.2761
 5909TIP3   OH239217   2.888   5.851   2.094 -0.1063  0.0324  0.1468
 5909TIP3    H139218   2.891   5.756   2.091 -1.2892 -0.0670  1.3115
 5909TIP3    H239219   2.915   5.874   2.183  0.4490  0.8208 -0.2037
 5910TIP3   OH239220   4.195   2.058  15.794 -0.2968 -0.4313 -0.1180
 5910TIP3    H139221   4.168   2.088  15.707  1.1349 -2.7737 -1.4743
 5910TIP3    H239222   4.268   2.115  15.818 -0.9413  0.4698 -0.2370
 5911TIP3   OH239223   0.830   2.514   2.707  0.0422  0.2969  1.1070
 5911TIP3    H139224   0.860   2.476   2.624  2.9728  3.9093  0.2476
 5911TIP3    H239225   0.751   2.564   2.683 -0.1245 -0.0691  0.8877
 5912TIP3   OH239226   1.030   2.998   0.354 -0.0023  0.0222 -0.1849
 5912TIP3    H139227   1.064   2.977   0.441 -0.6744  0.4044  0.1786
 5912TIP3    H239228   1.022   2.913   0.310  1.5069 -0.0741 -0.3311
 5913TIP3   OH239229   6.048   3.215  14.312 -0.3782 -0.1470 -0.1232
 5913TIP3    H139230   5.995   3.266  14.251 -0.7310  2.0708  1.8791
 5913TIP3    H239231   6.039   3.124  14.283 -3.3869  0.4148 -1.2277
 5914TIP3   OH239232   1.006   1.300   1.028  0.3494 -0.5780 -0.1505
 5914TIP3    H139233   1.068   1.330   1.095  0.1690 -0.1170 -0.1884
 5914TIP3    H239234   1.020   1.205   1.024  0.1092 -0.6702  0.7992
 5915TIP3   OH239235   1.685   1.764  11.946 -0.9840  0.3385  0.2685
 5915TIP3    H139236   1.624   1.838  11.952 -1.3495  0.2901 -2.0461
 5915TIP3    H239237   1.772   1.805  11.952 -1.1832  0.6681  1.2084
 5916TIP3   OH239238   6.226   2.919  14.390 -0.0563  0.0514 -0.0600
 5916TIP3    H139239   6.171   2.935  14.312 -0.5653 -1.5179 -0.0440
 5916TIP3    H239240   6.236   3.006  14.429 -2.1848  0.4688 -0.3113
 5917TIP3   OH239241   5.977   3.093  16.583 -0.5588  0.0360 -0.6044
 5917TIP3    H139242   5.928   3.076  16.664  0.8978 -0.7390  0.1520
 5917TIP3    H239243   5.914   3.077  16.513 -1.6504  0.0193  0.3485
 5918TIP3   OH239244   6.399   5.970  15.563 -0.2797  0.3975 -0.4461
 5918TIP3    H139245   6.305   5.955  15.567 -0.0216 -1.0852  1.0912
 5918TIP3    H239246   6.410   6.061  15.589 -1.2537  0.4078 -0.0248
 5919TIP3   OH239247   2.645   1.260   4.498 -0.6627 -0.4098  0.1409
 5919TIP3    H139248   2.703   1.184   4.507 -0.4739 -0.0173  3.4250
 5919TIP3    H239249   2.557   1.224   4.509 -0.7955 -0.4767 -1.0157
 5920TIP3   OH239250   2.310   2.816   2.273 -0.5907 -0.2403  0.2853
 5920TIP3    H139251   2.289   2.852   2.360 -1.7413  2.9477 -1.1473
 5920TIP3    H239252   2.405   2.802   2.275 -0.5987 -0.2369  2.0495
 5921TIP3   OH239253   0.265   3.286  16.407  0.0674  0.3627 -0.1508
 5921TIP3    H139254   0.281   3.340  16.484  0.5248  0.4907 -0.3335
 5921TIP3    H239255   0.171   3.297  16.390  0.2163  1.3873 -0.3952
 5922TIP3   OH239256   1.004   4.956  14.410  0.8930 -0.3027 -0.1030
 5922TIP3    H139257   0.986   4.939  14.318 -0.0022 -0.2039  0.0428
 5922TIP3    H239258   1.093   4.992  14.411  0.6137  0.4628 -1.0242
 5923TIP3   OH239259   1.662   5.114  12.434  0.1050  0.6349  0.2423
 5923TIP3    H139260   1.680   5.208  12.421  2.1694 -0.0465 -3.1262
 5923TIP3    H239261   1.591   5.095  12.372  0.8626 -0.3226 -0.3493
 5924TIP3   OH239262   6.345   3.865   6.583 -0.6274 -0.1926 -0.6196
 5924TIP3    H139263   6.344   3.940   6.642 -1.2174 -2.3087  2.3102
 5924TIP3    H239264   6.417   3.882   6.523  0.3903  1.8826  1.0612
 5925TIP3   OH239265   6.261   6.229   1.647 -0.1699  0.3296  0.0577
 5925TIP3    H139266   6.328   6.201   1.708 -1.4055 -1.5198  0.6537
 5925TIP3    H239267   6.280   6.180   1.567 -0.5221  0.1688  0.0716
 5926TIP3   OH239268   2.449   3.114   4.211 -0.3047  0.9239 -0.5882
 5926TIP3    H139269   2.497   3.166   4.146  0.4662  0.0444 -0.7330
 5926TIP3    H239270   2.516   3.065   4.257 -1.1490 -1.6769 -1.9460
 5927TIP3   OH239271   0.879   0.969   3.881  0.0754 -0.5775  0.2132
 5927TIP3    H139272   0.930   0.888   3.876 -0.0408 -0.5864 -1.3424
 5927TIP3    H239273   0.791   0.944   3.853 -0.5981 -0.3663  1.9830
 5928TIP3   OH239274   3.603   5.079   2.983 -0.4778  0.4676 -0.5756
 5928TIP3    H139275   3.591   5.153   2.924 -2.3045  1.2562  0.6705
 5928TIP3    H239276   3.546   5.098   3.057 -1.3819 -2.3849 -0.3836
 5929TIP3   OH239277   1.956   5.180   1.589 -0.0057  0.7528  0.3949
 5929TIP3    H139278   1.923   5.108   1.536  0.8890  0.4456  0.2432
 5929TIP3    H239279   1.983   5.139   1.672 -1.8624  1.2977  1.3182
 5930TIP3   OH239280   1.357   0.361  13.070 -0.3458 -0.1109 -0.1767
 5930TIP3    H139281   1.315   0.275  13.062 -1.8245  0.2354  2.6587
 5930TIP3    H239282   1.284   0.423  13.069  0.6906  1.1905 -2.0404
 5931TIP3   OH239283   5.564   6.405  13.634  0.5255 -0.1334  0.4711
 5931TIP3    H139284   5.515   6.323  13.639  0.2097  0.0911  1.2472
 5931TIP3    H239285   5.617   6.407  13.713 -0.6029  1.0881  1.2569
 5932TIP3   OH239286   3.700   0.502  13.285 -0.7364  0.4603  0.4920
 5932TIP3    H139287   3.618   0.474  13.245  0.5537 -0.4459 -1.7112
 5932TIP3    H239288   3.727   0.428  13.340  0.1479 -0.6386 -1.3347
 5933TIP3   OH239289   2.222   2.557   1.117 -0.2489  0.3692 -0.5038
 5933TIP3    H139290   2.235   2.629   1.179  0.7056  0.7750 -1.1516
 5933TIP3    H239291   2.279   2.488   1.149 -1.9368 -0.5419  0.7205
 5934TIP3   OH239292   1.588   4.934  15.959 -0.4026  0.0583 -0.9301
 5934TIP3    H139293   1.522   4.872  15.927 -1.4241  1.6557 -2.0509
 5934TIP3    H239294   1.538   4.996  16.012  0.5344  0.1777 -0.1657
 5935TIP3   OH239295   2.986   3.226   5.505 -0.5293 -0.3578 -0.1735
 5935TIP3    H139296   2.996   3.136   5.537 -3.4083 -0.7797 -0.2094
 5935TIP3    H239297   2.944   3.217   5.420 -0.0341  1.0259 -0.5852
 5936TIP3   OH239298   5.627   5.042   5.942 -0.1434  0.0274 -0.5108
 5936TIP3    H139299   5.556   5.104   5.956 -0.2747 -0.7453  3.2867
 5936TIP3    H239300   5.593   4.958   5.975  1.7559 -0.8543 -0.6636
 5937TIP3   OH239301   3.699   2.189  11.537 -0.0688 -0.4122  0.2143
 5937TIP3    H139302   3.746   2.136  11.601 -1.0128  0.8867  2.0796
 5937TIP3    H239303   3.764   2.254  11.509  0.3085 -0.9036 -0.0796
 5938TIP3   OH239304   5.090   3.071  16.532  0.0006  0.0421  0.3071
 5938TIP3    H139305   5.142   3.148  16.557  0.1272  0.7127 -1.8058
 5938TIP3    H239306   5.007   3.108  16.501 -0.1823 -0.7211 -0.1246
 5939TIP3   OH239307   1.847   0.580   1.611 -0.1059 -0.5579 -0.1817
 5939TIP3    H139308   1.797   0.500   1.597 -0.5978 -0.6802  1.9800
 5939TIP3    H239309   1.831   0.632   1.532 -2.4580 -1.2125 -0.2122
 5940TIP3   OH239310   6.331   0.063   0.732 -0.2118 -0.0895  0.9052
 5940TIP3    H139311   6.364   0.139   0.684 -1.7257 -1.2983 -2.3401
 5940TIP3    H239312   6.399  -0.004   0.720 -1.0986 -0.7545 -0.6956
 5941TIP3   OH239313   2.820   4.505  11.760  0.1041  0.3650  0.5170
 5941TIP3    H139314   2.828   4.599  11.780  0.1071  0.3208  0.7216
 5941TIP3    H239315   2.836   4.461  11.843 -1.7769  0.2464  0.8686
 5942TIP3   OH239316   3.225   3.347   0.877  0.2597 -0.0238 -0.1095
 5942TIP3    H139317   3.152   3.387   0.829  1.6743  2.4460 -0.3307
 5942TIP3    H239318   3.294   3.336   0.811  0.7112 -0.6764  0.4621
 5943TIP3   OH239319   2.118   5.875   5.938  0.2073  0.1019  0.1726
 5943TIP3    H139320   2.094   5.812   5.870 -3.6356 -0.3333  1.6711
 5943TIP3    H239321   2.135   5.822   6.015  2.1098  0.7287  0.2375
 5944TIP3   OH239322   6.356   3.022  16.639 -0.0372 -0.8266 -0.2244
 5944TIP3    H139323   6.363   2.998  16.546  0.1025 -0.1967 -0.3845
 5944TIP3    H239324   6.446   3.041  16.665 -0.0123 -1.4596  0.1762
 5945TIP3   OH239325   2.933   3.732   1.534  0.4098  0.2751  0.2065
 5945TIP3    H139326   2.945   3.759   1.443 -0.9689 -0.9470 -0.3927
 5945TIP3    H239327   2.838   3.722   1.543  0.6056 -0.6603  1.4573
 5946TIP3   OH239328   0.101   2.045   5.969 -0.0375 -0.1768 -0.6639
 5946TIP3    H139329   0.107   2.044   5.874 -1.0921  0.5634 -0.7536
 5946TIP3    H239330   0.176   2.098   5.997 -0.5993  0.9276 -1.1885
 5947TIP3   OH239331   2.820   2.255   2.625  0.1143 -0.1917  0.1617
 5947TIP3    H139332   2.761   2.180   2.627  2.2006 -2.0561 -2.1190
 5947TIP3    H239333   2.899   2.225   2.670  0.8030  0.7700 -0.3529
 5948TIP3   OH239334   3.650   1.253   0.116  0.1986  0.2874  0.1511
 5948TIP3    H139335   3.603   1.175   0.086 -1.2457  0.5544  1.6062
 5948TIP3    H239336   3.583   1.308   0.156  1.0813  2.5389 -1.2316
 5949TIP3   OH239337   6.508   5.161   1.818 -0.1181  0.1636 -0.0028
 5949TIP3    H139338   6.539   5.220   1.886  0.6513  0.6245 -0.7423
 5949TIP3    H239339   6.504   5.075   1.861 -0.9088  0.6641  0.9791
 5950TIP3   OH239340   2.290   5.634   5.388  0.3466 -0.2127 -0.3939
 5950TIP3    H139341   2.268   5.611   5.297 -1.2887 -2.2962  0.4408
 5950TIP3    H239342   2.221   5.694   5.414 -1.5499 -2.6235  0.5704
 5951TIP3   OH239343   1.994   4.814  13.735 -0.3774  0.5674 -0.3863
 5951TIP3    H139344   2.034   4.727  13.741 -0.5211  0.5654  0.8745
 5951TIP3    H239345   2.001   4.850  13.823 -2.6746  0.7811 -0.2301
 5952TIP3   OH239346   6.194   2.486   2.205 -0.1018 -0.1240 -0.2313
 5952TIP3    H139347   6.200   2.536   2.286 -0.5255 -0.0237 -0.2601
 5952TIP3    H239348   6.100   2.484   2.184  0.0004 -0.1578 -0.7094
 5953TIP3   OH239349   6.356   4.630   4.126  0.5666 -0.0954  0.7863
 5953TIP3    H139350   6.382   4.640   4.217 -1.6876  1.1638  1.3688
 5953TIP3    H239351   6.386   4.710   4.083 -2.0770  1.3644  1.4620
 5954TIP3   OH239352   1.064   4.280  14.166  0.4921 -0.1482 -0.1345
 5954TIP3    H139353   1.044   4.189  14.186  0.8438 -0.2951 -0.4378
 5954TIP3    H239354   1.107   4.277  14.081  0.2419  0.3321 -0.2813
 5955TIP3   OH239355   2.833   4.315  11.977  0.1559  0.0760  0.6422
 5955TIP3    H139356   2.926   4.333  11.990  0.7857 -1.0379 -1.8995
 5955TIP3    H239357   2.816   4.238  12.031  0.2715  1.1178  2.2697
 5956TIP3   OH239358   6.824   4.867  16.246  0.3119  0.5477  0.5689
 5956TIP3    H139359   6.846   4.932  16.179  1.6713  0.9286  1.3382
 5956TIP3    H239360   6.878   4.892  16.321 -0.2779 -0.5887  1.3873
 5957TIP3   OH239361   5.904   1.148  11.684 -0.1943  0.0586  0.0036
 5957TIP3    H139362   5.849   1.079  11.721  0.8875 -0.4295  0.7517
 5957TIP3    H239363   5.924   1.118  11.595 -1.5348  0.5040 -0.4914
 5958TIP3   OH239364   3.672   2.027   1.003  0.1168 -0.0606  0.2990
 5958TIP3    H139365   3.647   1.936   0.986 -1.5466  0.1953  1.1443
 5958TIP3    H239366   3.590   2.071   1.023  0.8972  1.6374 -0.0402
 5959TIP3   OH239367   0.832   0.152   1.946 -0.4874 -1.1160 -0.6093
 5959TIP3    H139368   0.905   0.095   1.919  1.2675  1.5390 -1.8670
 5959TIP3    H239369   0.798   0.187   1.863 -1.2362 -0.0269  0.1380
 5960TIP3   OH239370   0.746   3.413   5.817  0.1256 -0.7077 -0.2617
 5960TIP3    H139371   0.804   3.416   5.893  1.3030  1.7248 -1.1431
 5960TIP3    H239372   0.663   3.381   5.852  0.9224 -0.6868  1.8264
 5961TIP3   OH239373   3.331   1.465  15.335 -0.1980 -0.7702 -0.3807
 5961TIP3    H139374   3.281   1.403  15.388 -1.1084  1.7247  1.9162
 5961TIP3    H239375   3.266   1.506  15.279  0.3074 -1.4381 -1.4871
 5962TIP3   OH239376   6.166   2.804  14.618  0.1135  0.0519 -0.4041
 5962TIP3    H139377   6.198   2.868  14.682  3.3205 -0.6544 -1.1247
 5962TIP3    H239378   6.204   2.833  14.535 -2.1621 -0.2842 -1.6262
 5963TIP3   OH239379   0.948   2.902   5.893  0.4871 -0.1936 -0.1763
 5963TIP3    H139380   0.883   2.965   5.862  0.7672  0.3794  0.3749
 5963TIP3    H239381   0.985   2.942   5.971 -0.0042 -1.4837  0.7477
 5964TIP3   OH239382   2.508   2.793  10.963  0.5348 -0.0785 -0.3496
 5964TIP3    H139383   2.433   2.809  11.020  1.5253  1.7706  0.5117
 5964TIP3    H239384   2.522   2.698  10.970 -1.1404 -0.3277  0.1750
 5965TIP3   OH239385   2.575   6.724   5.039 -0.0071  0.0911  0.3307
 5965TIP3    H139386   2.610   6.804   5.079 -0.3225 -0.1726  1.1375
 5965TIP3    H239387   2.488   6.714   5.077 -1.7039  1.5439 -2.6976
 5966TIP3   OH239388   2.805   0.834   0.220  0.1051 -0.1718  0.3240
 5966TIP3    H139389   2.849   0.895   0.161 -1.4678 -0.5081 -1.2729
 5966TIP3    H239390   2.842   0.749   0.199  0.2390 -0.1598  0.5119
 5967TIP3   OH239391   6.763   6.009  13.621  0.1291  0.4478  0.4973
 5967TIP3    H139392   6.718   5.992  13.704 -0.5862 -1.4648 -0.2221
 5967TIP3    H239393   6.710   6.075  13.577 -0.8570 -0.2739  0.5627
 5968TIP3   OH239394   1.381   1.735   2.560  0.4620 -0.2802  0.2262
 5968TIP3    H139395   1.373   1.699   2.648 -0.7812 -1.1443 -0.2239
 5968TIP3    H239396   1.411   1.825   2.574 -0.1405 -0.2584  1.5467
 5969TIP3   OH239397   1.437   2.542  13.361 -0.0465 -0.1088  0.5118
 5969TIP3    H139398   1.372   2.612  13.356 -0.0108  0.0124  1.5302
 5969TIP3    H239399   1.481   2.543  13.275 -3.5255 -2.3494 -1.5370
 5970TIP3   OH239400   2.908   1.454  11.309  0.1008  0.3611  0.3493
 5970TIP3    H139401   2.907   1.495  11.395 -2.2472 -0.7690  0.9498
 5970TIP3    H239402   2.838   1.389  11.313  1.7182 -1.6575 -1.5104
 5971TIP3   OH239403   0.768   4.417   5.431  0.3658  0.0567  0.5743
 5971TIP3    H139404   0.837   4.466   5.385  0.4661 -0.3220  0.3219
 5971TIP3    H239405   0.712   4.485   5.467  0.8758  0.3722  0.7892
 5972TIP3   OH239406   6.005   4.327   2.578 -0.3950  0.2047 -0.7794
 5972TIP3    H139407   5.918   4.336   2.618  0.1945  1.1230  0.3374
 5972TIP3    H239408   5.993   4.261   2.510 -2.2829  1.2905 -1.5662
 5973TIP3   OH239409   4.145   3.463  13.884  0.8142  0.0406  0.1010
 5973TIP3    H139410   4.197   3.387  13.857 -1.4340 -1.8103  0.6246
 5973TIP3    H239411   4.134   3.514  13.804  2.9132  0.2277 -0.1292
 5974TIP3   OH239412   2.345   5.179  15.286  0.2643  0.2549  0.2137
 5974TIP3    H139413   2.435   5.146  15.276  0.3527 -0.8580  3.3734
 5974TIP3    H239414   2.356   5.262  15.333 -0.3265 -0.8199  2.3844
 5975TIP3   OH239415   5.864   2.160  14.379  0.0403  0.0338  0.3549
 5975TIP3    H139416   5.780   2.190  14.345  0.5217  0.8075 -0.1666
 5975TIP3    H239417   5.870   2.197  14.467  1.0980  2.4501 -0.6551
 5976TIP3   OH239418   3.918   6.495  15.054  0.2417 -0.3696 -0.2146
 5976TIP3    H139419   3.946   6.473  15.143 -0.5879 -1.4471 -0.1946
 5976TIP3    H239420   3.830   6.531  15.066 -0.0920 -1.0282 -0.6354
 5977TIP3   OH239421   4.377   4.859   3.685 -0.2674 -0.5537  0.1135
 5977TIP3    H139422   4.282   4.862   3.693 -0.2577  0.4602 -0.1221
 5977TIP3    H239423   4.399   4.930   3.625  0.8923  1.3369  2.5742
 5978TIP3   OH239424   2.250   5.493   0.790 -0.0350 -0.1168 -0.1267
 5978TIP3    H139425   2.208   5.548   0.724 -0.4162 -1.0202 -0.6441
 5978TIP3    H239426   2.185   5.485   0.860  0.2713  0.6203  0.2631
 5979TIP3   OH239427   0.888   4.237  16.667  0.2468  0.2483  0.1423
 5979TIP3    H139428   0.883   4.196  16.753 -1.7699  0.2312  0.0503
 5979TIP3    H239429   0.803   4.221  16.627  0.8206  1.0494 -1.5035
 5980TIP3   OH239430   0.573   6.353   1.657  0.1284  0.4883 -0.4227
 5980TIP3    H139431   0.533   6.306   1.584 -0.6560  1.5805 -0.7101
 5980TIP3    H239432   0.659   6.312   1.667 -0.1619 -0.3750 -1.2663
 5981TIP3   OH239433   5.698   3.476   5.599  0.2062  0.8061  0.1552
 5981TIP3    H139434   5.638   3.410   5.634 -0.2658  0.6199 -0.9419
 5981TIP3    H239435   5.759   3.494   5.670  0.3152 -0.7903  0.5175
 5982TIP3   OH239436   3.808   2.886  15.847 -0.8406  0.4406  0.1861
 5982TIP3    H139437   3.831   2.820  15.913 -0.3990  1.1090  0.7082
 5982TIP3    H239438   3.853   2.857  15.768 -1.1482 -0.2191  0.2479
 5983TIP3   OH239439   5.735   6.443   0.546  0.4786  0.1486 -0.8113
 5983TIP3    H139440   5.751   6.363   0.596 -0.0752  0.7034  0.2959
 5983TIP3    H239441   5.653   6.426   0.500 -0.9058  0.8826  1.2516
 5984TIP3   OH239442   4.077   5.353  15.910  0.5506 -0.4582  0.1473
 5984TIP3    H139443   4.048   5.264  15.888 -0.2291  0.3203 -2.2410
 5984TIP3    H239444   3.998   5.399  15.936  0.8278 -0.2086  0.5794
 5985TIP3   OH239445   2.265   0.763  12.283  0.9514  0.3566 -0.4678
 5985TIP3    H139446   2.337   0.726  12.334  1.5596 -1.0027 -2.1780
 5985TIP3    H239447   2.291   0.748  12.192 -0.1161  2.5869 -1.1963
 5986TIP3   OH239448   4.044   0.633  15.427  0.2271  0.2796 -0.2557
 5986TIP3    H139449   4.110   0.613  15.360 -0.6090 -0.8914 -0.7743
 5986TIP3    H239450   4.087   0.696  15.485  2.1803 -1.2059  0.0216
 5987TIP3   OH239451   3.465   4.972   0.084  0.6048 -0.3508 -0.5437
 5987TIP3    H139452   3.555   4.956   0.056  0.7210  2.8190 -2.4177
 5987TIP3    H239453   3.473   5.036   0.155 -0.1587  0.8952 -1.5378
 5988TIP3   OH239454   4.984   4.147   4.220  0.2255  0.0810 -0.1471
 5988TIP3    H139455   5.030   4.070   4.188 -0.8716 -0.6302 -0.0503
 5988TIP3    H239456   4.969   4.129   4.313  1.5414  1.2148  0.3266
 5989TIP3   OH239457   4.681   0.491   4.666  0.0591  0.1793  0.4761
 5989TIP3    H139458   4.631   0.466   4.589  0.8150  1.3759 -0.4545
 5989TIP3    H239459   4.771   0.469   4.645  0.3396  0.9407  0.8162
 5990TIP3   OH239460   4.197   2.738   0.533 -0.4062  0.0966  0.2791
 5990TIP3    H139461   4.207   2.716   0.440  1.0311 -1.2812  0.7202
 5990TIP3    H239462   4.241   2.823   0.542 -0.8110  0.3806 -0.3488
 5991TIP3   OH239463   0.166   4.736  15.985 -0.1179 -0.4829 -0.2351
 5991TIP3    H139464   0.146   4.764  15.895 -1.1908  1.1501  0.4704
 5991TIP3    H239465   0.080   4.723  16.026  0.2822  0.8579  1.1384
 5992TIP3   OH239466   3.557   0.043  14.067 -0.1335 -0.3945 -0.0088
 5992TIP3    H139467   3.577   0.082  13.982 -0.4534  2.7969  1.2407
 5992TIP3    H239468   3.630   0.069  14.124 -1.0582 -0.4492  1.2489
 5993TIP3   OH239469   2.975   3.570   2.092 -0.9463  0.2103 -0.4947
 5993TIP3    H139470   3.030   3.602   2.020  1.1567  0.8149  1.2735
 5993TIP3    H239471   2.928   3.496   2.055  1.1768 -0.4445 -2.1185
 5994TIP3   OH239472   2.223   0.462  13.235  0.1482 -0.3450  0.1995
 5994TIP3    H139473   2.296   0.523  13.236  1.0214 -1.2547 -2.3160
 5994TIP3    H239474   2.256   0.384  13.280  0.8429 -0.8212 -1.0906
 5995TIP3   OH239475   5.496   3.305  15.918  0.4880 -0.5817 -0.0402
 5995TIP3    H139476   5.512   3.220  15.960 -0.4634 -0.2605  1.0341
 5995TIP3    H239477   5.492   3.367  15.991 -2.6943 -0.2170 -0.3734
 5996TIP3   OH239478   4.286   2.296   1.501 -0.1953 -0.4620 -0.8829
 5996TIP3    H139479   4.376   2.265   1.489 -0.3299 -0.6707 -1.3620
 5996TIP3    H239480   4.289   2.388   1.479  0.9195  0.8470  3.5996
 5997TIP3   OH239481   6.432   0.961   5.404  0.2093 -0.6714 -0.2281
 5997TIP3    H139482   6.459   1.048   5.376  0.0320  0.0871  1.7743
 5997TIP3    H239483   6.336   0.964   5.403  0.1939 -0.5488  0.5911
 5998TIP3   OH239484   0.141   5.323   6.249 -0.1409 -0.8109  0.1663
 5998TIP3    H139485   0.153   5.375   6.169 -0.9491 -0.7281  0.0899
 5998TIP3    H239486   0.058   5.277   6.235  0.4428 -1.9387  0.3391
 5999TIP3   OH239487   4.370   0.505  15.219 -0.4493  0.4625  0.0782
 5999TIP3    H139488   4.297   0.443  15.225  0.1635 -0.1993  0.7994
 5999TIP3    H239489   4.370   0.550  15.304  1.4848 -1.2748  1.0754
 6000TIP3   OH239490   4.825   0.013  16.188  0.4728 -0.5014  0.0858
 6000TIP3    H139491   4.794   0.077  16.124  1.0362 -1.4352 -1.1726
 6000TIP3    H239492   4.749  -0.002  16.245  0.3295  1.2342  0.4073
 6001TIP3   OH239493   2.862   3.498  13.335 -0.7950 -0.0329 -0.6805
 6001TIP3    H139494   2.958   3.506  13.339 -0.7903  0.3333 -1.4527
 6001TIP3    H239495   2.847   3.411  13.298 -0.7781 -0.3068 -0.0702
 6002TIP3   OH239496   0.695   5.338  13.894 -0.3406 -0.1946  0.0732
 6002TIP3    H139497   0.601   5.318  13.901 -0.0301 -1.4482  1.0389
 6002TIP3    H239498   0.733   5.301  13.974  0.9651  0.4592 -0.2204
 6003TIP3   OH239499   0.844   2.956  15.232 -0.1277 -0.3789 -0.3538
 6003TIP3    H139500   0.902   2.932  15.304  0.1921  2.0922  0.3285
 6003TIP3    H239501   0.792   3.029  15.267 -3.9511 -2.5891 -0.8105
 6004TIP3   OH239502   0.228   1.099   1.039  0.7449 -0.2223  0.1547
 6004TIP3    H139503   0.160   1.159   1.069  0.1586 -0.4346 -0.6832
 6004TIP3    H239504   0.299   1.156   1.009  0.4654  0.0409 -0.0194
 6005TIP3   OH239505   3.717   4.911   0.052 -0.1179 -0.7890 -0.0634
 6005TIP3    H139506   3.778   4.860   0.106 -0.7051 -1.0462  0.3708
 6005TIP3    H239507   3.773   4.967  -0.001  0.4707  0.9091  2.1908
 6006TIP3   OH239508   3.715   6.126   1.724  0.1716  0.3042  0.0329
 6006TIP3    H139509   3.686   6.181   1.651  2.8255  0.1957 -1.2172
 6006TIP3    H239510   3.657   6.150   1.796  0.2797  3.8048 -0.8379
 6007TIP3   OH239511   3.013   5.641   4.060 -0.6401  0.8410 -0.4362
 6007TIP3    H139512   3.011   5.733   4.037  0.0495  1.2056  0.8680
 6007TIP3    H239513   3.012   5.640   4.156 -0.6559 -0.5026 -0.4289
 6008TIP3   OH239514   3.311   4.173  10.610 -0.2457 -0.4086  0.5670
 6008TIP3    H139515   3.227   4.215  10.629  0.6725  1.3875  0.8527
 6008TIP3    H239516   3.366   4.193  10.686  0.1702 -2.4381  0.8647
 6009TIP3   OH239517   6.028   2.521  11.361 -0.0224  0.2645  0.0961
 6009TIP3    H139518   5.968   2.589  11.389  0.0802  1.2186 -1.8295
 6009TIP3    H239519   6.029   2.458  11.433 -1.7135  1.2553  1.0393
 6010TIP3   OH239520   4.692   1.963   6.656  0.0943 -0.9045  0.0076
 6010TIP3    H139521   4.666   2.042   6.703 -1.3669 -2.3228  1.7831
 6010TIP3    H239522   4.693   1.988   6.564  3.3598  2.0966  0.6785
 6011TIP3   OH239523   2.371   3.089  16.217 -0.0154 -0.1089 -0.7009
 6011TIP3    H139524   2.435   3.055  16.155  0.2187  0.3961 -0.7423
 6011TIP3    H239525   2.322   3.155  16.168 -0.4804 -0.3983 -0.6304
 6012TIP3   OH239526   4.438   2.576  16.943 -0.8370 -1.0890 -0.4532
 6012TIP3    H139527   4.440   2.523  16.862  0.5657 -0.5436 -0.7992
 6012TIP3    H239528   4.418   2.665  16.913 -0.4257 -0.9055 -0.1863
 6013TIP3   OH239529   5.206   3.746  16.275  0.1172 -0.3163  0.0746
 6013TIP3    H139530   5.142   3.724  16.344 -0.1283 -0.6147 -0.2406
 6013TIP3    H239531   5.196   3.840  16.261 -0.5934 -0.4389 -0.3001
 6014TIP3   OH239532   1.086   4.048   5.238  0.1388 -0.1021 -0.1682
 6014TIP3    H139533   1.100   3.973   5.181  0.8000 -0.1465  0.0405
 6014TIP3    H239534   1.063   4.120   5.179  0.8319 -0.1435 -0.4968
 6015TIP3   OH239535   0.663   6.568  12.323 -0.1611  0.0539 -0.1955
 6015TIP3    H139536   0.627   6.619  12.250 -1.3061 -0.3163  0.0891
 6015TIP3    H239537   0.712   6.633  12.375  1.0247  0.2441 -1.4812
 6016TIP3   OH239538   0.635   2.455   1.928  0.3091 -0.0319  0.5320
 6016TIP3    H139539   0.687   2.421   2.001  1.8079  0.2068 -0.4052
 6016TIP3    H239540   0.686   2.436   1.850 -0.0919  1.9015 -0.2683
 6017TIP3   OH239541   1.467   0.235  10.383  0.4579 -0.1742 -0.3632
 6017TIP3    H139542   1.533   0.224  10.451 -0.6389  0.4491  0.8566
 6017TIP3    H239543   1.421   0.151  10.380  0.2843 -0.0943 -0.0644
 6018TIP3   OH239544   0.491   2.242   3.499 -0.1095 -0.3111 -0.1990
 6018TIP3    H139545   0.501   2.337   3.499  1.9738 -0.4137 -2.6541
 6018TIP3    H239546   0.458   2.221   3.586  0.8644  2.5029  0.9621
 6019TIP3   OH239547   2.964   4.053   0.733  0.9120  0.5456  0.0393
 6019TIP3    H139548   2.868   4.063   0.727  0.9040  0.0431 -0.7310
 6019TIP3    H239549   2.990   4.019   0.648  1.8856  1.4541 -0.0387
 6020TIP3   OH239550   3.669   1.428  12.563 -0.3769  0.1728  0.3986
 6020TIP3    H139551   3.597   1.390  12.513  1.0347  0.4892 -2.0030
 6020TIP3    H239552   3.641   1.420  12.654 -2.3331 -1.9932 -0.2859
 6021TIP3   OH239553   2.861   0.492  16.374  0.2947  0.4256 -0.4280
 6021TIP3    H139554   2.929   0.454  16.319 -0.5432  0.7807 -1.7369
 6021TIP3    H239555   2.909   0.535  16.445  1.3210 -2.4614  0.8016
 6022TIP3   OH239556   4.671   5.175   4.974 -0.1271 -0.4737  0.1680
 6022TIP3    H139557   4.603   5.220   4.924 -0.6821  0.5248  1.7678
 6022TIP3    H239558   4.654   5.198   5.065  1.3617 -1.5627  0.7652
 6023TIP3   OH239559   2.996   6.212  12.536  0.1147  0.3950 -0.1301
 6023TIP3    H139560   2.982   6.141  12.473 -0.0397  0.3679 -0.0648
 6023TIP3    H239561   3.089   6.232  12.529  0.4647 -0.8008  0.8872
 6024TIP3   OH239562   4.035   6.321   6.629  0.4886  0.0370  0.6922
 6024TIP3    H139563   4.004   6.385   6.565  1.1601 -1.1788 -0.9351
 6024TIP3    H239564   4.125   6.347   6.647  0.6084 -0.1783  0.4006
 6025TIP3   OH239565   1.384   3.998  13.254  0.0119  0.1876 -0.5032
 6025TIP3    H139566   1.351   3.915  13.287 -0.3804  0.7725  0.6179
 6025TIP3    H239567   1.462   4.016  13.306 -1.2507  1.6816  0.9934
 6026TIP3   OH239568   1.083   6.167   3.912 -0.0401 -0.4873  0.1275
 6026TIP3    H139569   0.993   6.173   3.880 -0.0702  1.5863  0.4618
 6026TIP3    H239570   1.080   6.100   3.980 -1.2926 -0.6249 -0.0418
 6027TIP3   OH239571   6.068   5.423  10.630  0.6359 -0.1603 -0.0158
 6027TIP3    H139572   6.159   5.446  10.616  0.5431  0.3930  0.2583
 6027TIP3    H239573   6.024   5.506  10.647  0.0929 -0.4254 -0.0833
 6028TIP3   OH239574   2.089   3.764   4.812 -0.5121 -0.1524  0.2488
 6028TIP3    H139575   2.092   3.813   4.730  0.4839 -0.2818  0.1972
 6028TIP3    H239576   2.078   3.673   4.785  0.3874 -0.2613  0.2251
 6029TIP3   OH239577   4.664   5.208   5.680  0.1368  1.4193 -0.0985
 6029TIP3    H139578   4.714   5.282   5.715 -0.2066  1.2862  0.7163
 6029TIP3    H239579   4.640   5.157   5.758  1.3750 -0.2174 -0.7424
 6030TIP3   OH239580   3.271   0.252  13.725 -0.3279  0.3953 -0.0283
 6030TIP3    H139581   3.262   0.169  13.771 -3.6415  0.2208 -0.7374
 6030TIP3    H239582   3.311   0.230  13.641  0.2779 -0.2082  0.4110
 6031TIP3   OH239583   5.609   4.553  15.665 -0.4696 -0.0334 -0.7560
 6031TIP3    H139584   5.695   4.548  15.707 -1.0914 -0.2692  0.5484
 6031TIP3    H239585   5.572   4.465  15.675 -0.6628 -0.0878 -1.7887
 6032TIP3   OH239586   1.095   4.920  15.291 -0.0789  0.2611 -0.4797
 6032TIP3    H139587   1.035   4.849  15.314  1.5993 -0.7273  1.0693
 6032TIP3    H239588   1.046   5.000  15.313 -1.3385 -0.4573 -0.5713
 6033TIP3   OH239589   6.706   0.264   4.633  0.2404  0.1088  0.0774
 6033TIP3    H139590   6.653   0.309   4.700 -1.0212 -1.3243  0.1195
 6033TIP3    H239591   6.726   0.179   4.673  2.4471  0.5387 -0.0406
 6034TIP3   OH239592   5.311   3.238  10.734 -0.0859  0.5947 -0.3601
 6034TIP3    H139593   5.252   3.213  10.663  0.7754 -0.2610 -0.8012
 6034TIP3    H239594   5.371   3.301  10.694  1.1363 -0.7666 -0.7501
 6035TIP3   OH239595   3.267   4.092   4.750 -0.1117 -0.1118  0.7193
 6035TIP3    H139596   3.210   4.137   4.687  0.4364 -0.3248  0.0449
 6035TIP3    H239597   3.213   4.079   4.828 -0.3025  1.6867  0.9259
 6036TIP3   OH239598   2.909   1.773  11.652  0.4828  0.2877 -0.7144
 6036TIP3    H139599   2.856   1.846  11.682  1.3714  0.9030 -0.6129
 6036TIP3    H239600   2.886   1.763  11.559  0.8147  1.1067 -0.8895
 6037TIP3   OH239601   6.374   6.017  11.271  0.4414  0.7158  0.0390
 6037TIP3    H139602   6.332   5.965  11.340  1.4783  0.1036  0.2270
 6037TIP3    H239603   6.303   6.071  11.236 -0.0662  1.2075  1.7304
 6038TIP3   OH239604   0.955   5.801   5.546  0.0351  0.4468  1.0855
 6038TIP3    H139605   1.037   5.839   5.578  0.6329  1.3034 -1.2492
 6038TIP3    H239606   0.929   5.858   5.474 -0.4838 -2.0626 -0.8472
 6039TIP3   OH239607   5.133   2.922  11.407 -0.3644  0.7277 -0.4267
 6039TIP3    H139608   5.208   2.905  11.350 -0.4115  3.2004 -1.3265
 6039TIP3    H239609   5.125   3.017  11.410 -3.1285  0.5767  0.0851
 6040TIP3   OH239610   3.333   1.146  12.840  0.2803 -0.0053 -0.8898
 6040TIP3    H139611   3.266   1.162  12.774 -0.1930  1.0079 -0.1906
 6040TIP3    H239612   3.412   1.123  12.790 -0.5576 -1.1744 -1.7168
 6041TIP3   OH239613   4.861   0.900  12.366  0.3818  0.1609 -0.0083
 6041TIP3    H139614   4.942   0.888  12.416 -0.7608 -1.2033  1.6151
 6041TIP3    H239615   4.828   0.811  12.352 -2.1357  0.7453  1.6081
 6042TIP3   OH239616   5.872   1.934  15.270 -0.4155  0.1817 -0.3760
 6042TIP3    H139617   5.956   1.898  15.298  1.0601  3.1064 -0.5882
 6042TIP3    H239618   5.809   1.902  15.334  1.6002  1.0095  2.1908
 6043TIP3   OH239619   2.370   2.748  16.232  0.1390 -0.1606  0.0435
 6043TIP3    H139620   2.428   2.685  16.275 -0.7621 -0.6273  0.6006
 6043TIP3    H239621   2.301   2.766  16.297 -0.7268 -0.1509 -0.8562
 6044TIP3   OH239622   2.382   0.857   0.449 -0.0671 -0.2530  0.0499
 6044TIP3    H139623   2.300   0.894   0.415 -0.4050 -1.1997 -0.2085
 6044TIP3    H239624   2.369   0.852   0.544 -0.4757 -0.7745 -0.0293
 6045TIP3   OH239625   1.025   2.020   0.976  0.3329 -0.9352 -0.1174
 6045TIP3    H139626   0.938   2.013   1.015 -0.5652  2.6641 -1.1415
 6045TIP3    H239627   1.082   2.044   1.050 -0.4251  0.9656 -0.1041
 6046TIP3   OH239628   0.819   5.379  12.771 -0.1029 -0.0448  0.0959
 6046TIP3    H139629   0.745   5.323  12.794  0.3738 -0.1588  1.4213
 6046TIP3    H239630   0.819   5.381  12.675 -1.9959  0.2100  0.0690
 6047TIP3   OH239631   1.652   2.648  15.061  0.0383 -0.2626  0.1356
 6047TIP3    H139632   1.665   2.591  15.137 -2.3207 -2.1272 -0.7097
 6047TIP3    H239633   1.575   2.700  15.083 -0.2234 -0.2958 -0.6577
 6048TIP3   OH239634   2.075   2.596   3.177 -0.5025  0.1414  0.1361
 6048TIP3    H139635   2.139   2.651   3.223 -0.1708  0.2871 -0.4837
 6048TIP3    H239636   2.121   2.566   3.099 -0.9409 -0.3883  0.0773
 6049TIP3   OH239637   1.642   1.782  15.427  0.1285  0.6023 -0.0247
 6049TIP3    H139638   1.626   1.765  15.520 -0.5711 -0.6579 -0.3537
 6049TIP3    H239639   1.727   1.826  15.425  1.3666 -1.5749  1.0503
 6050TIP3   OH239640   0.503   5.216  15.160  0.3165  0.1492 -0.3757
 6050TIP3    H139641   0.445   5.221  15.084 -1.5976  2.6470  1.0895
 6050TIP3    H239642   0.579   5.267  15.135 -0.5138  1.3644 -0.4810
 6051TIP3   OH239643   3.596   4.729  14.661 -0.2905  0.3777  0.3755
 6051TIP3    H139644   3.526   4.737  14.725 -0.3176  0.0136  0.3964
 6051TIP3    H239645   3.562   4.668  14.596 -0.3630  0.9501 -0.1268
 6052TIP3   OH239646   0.116   0.042  13.964  0.3014 -0.3655 -0.4395
 6052TIP3    H139647   0.045  -0.018  13.939 -0.0298  0.0654 -0.5456
 6052TIP3    H239648   0.143   0.012  14.051 -0.3520 -0.2200 -0.1826
 6053TIP3   OH239649   6.545   4.952   2.487  0.1270 -0.1518  0.0427
 6053TIP3    H139650   6.634   4.934   2.517 -0.1378 -1.6063  0.0660
 6053TIP3    H239651   6.504   5.000   2.558  0.7099 -0.0122  0.2899
 6054TIP3   OH239652   3.375   5.925   2.066 -0.5042  0.1583 -0.4161
 6054TIP3    H139653   3.420   6.010   2.060 -0.6537  0.3719  1.2404
 6054TIP3    H239654   3.380   5.901   2.158 -3.5827  0.0639 -0.1691
 6055TIP3   OH239655   3.879   0.827  13.985 -0.3066 -0.0526  0.1424
 6055TIP3    H139656   3.856   0.837  13.893 -1.2042 -0.8451  0.2652
 6055TIP3    H239657   3.961   0.778  13.984 -0.8376 -0.9511 -0.2189
 6056TIP3   OH239658   2.637   0.966   2.353 -0.3486 -0.1225  0.0456
 6056TIP3    H139659   2.646   1.058   2.379 -0.3874 -0.3696  0.9693
 6056TIP3    H239660   2.542   0.951   2.350 -0.3433 -0.1283 -0.1569
 6057TIP3   OH239661   4.905   6.334  12.226 -0.1945 -0.1846 -0.0930
 6057TIP3    H139662   4.868   6.347  12.138 -0.8405  0.0143  0.2065
 6057TIP3    H239663   4.872   6.408  12.277 -1.1549 -1.1671  0.7496
 6058TIP3   OH239664   0.964   0.931   4.970 -0.2282 -0.7597  0.6325
 6058TIP3    H139665   0.967   1.008   4.914  1.3562 -0.8639  0.5420
 6058TIP3    H239666   0.901   0.953   5.039  0.7411  0.9135  1.0275
 6059TIP3   OH239667   0.667   2.039   5.288  0.8083  0.3030 -0.0293
 6059TIP3    H139668   0.730   2.003   5.226  0.4840  0.4538 -0.4510
 6059TIP3    H239669   0.718   2.101   5.341  0.8622  0.9907 -0.8626
 6060TIP3   OH239670   5.031   5.735   3.851  0.6807  0.3952  0.2256
 6060TIP3    H139671   4.942   5.720   3.819  0.8885 -0.9955  0.2357
 6060TIP3    H239672   5.087   5.691   3.787  1.2843  0.1909  0.8908
 6061TIP3   OH239673   1.246   6.217  12.419 -0.0177 -0.8119 -0.6996
 6061TIP3    H139674   1.170   6.200  12.474 -0.2416  2.8069  0.3665
 6061TIP3    H239675   1.319   6.222  12.481  0.5078 -1.0935 -1.2912
 6062TIP3   OH239676   0.803   4.937   5.362  0.3072  0.0645 -0.2902
 6062TIP3    H139677   0.890   4.901   5.346  0.2371  0.3028 -1.3002
 6062TIP3    H239678   0.803   4.964   5.454  1.9132  1.7207 -0.7232
 6063TIP3   OH239679   1.034   2.816   3.307 -0.5096 -0.0633  0.5768
 6063TIP3    H139680   1.078   2.752   3.251 -0.7773 -0.6265  0.9919
 6063TIP3    H239681   1.090   2.893   3.304 -0.8920  0.1892 -1.0346
 6064TIP3   OH239682   1.857   3.643   5.616 -0.6412  0.2570  0.2709
 6064TIP3    H139683   1.811   3.725   5.638 -0.7115 -0.3257  2.5727
 6064TIP3    H239684   1.886   3.609   5.701  0.0861 -1.7078 -0.7182
 6065TIP3   OH239685   6.543   1.960  11.084  0.9864 -0.0354  0.0930
 6065TIP3    H139686   6.595   2.005  11.150  1.4739  1.5320 -1.2716
 6065TIP3    H239687   6.554   2.013  11.005  0.0791 -1.5888 -1.1377
 6066TIP3   OH239688   6.156   5.158  10.636 -0.7689  0.2771  0.3477
 6066TIP3    H139689   6.248   5.171  10.611  0.2400 -0.6029  3.3061
 6066TIP3    H239690   6.117   5.245  10.625  0.1826  0.5263 -1.5958
 6067TIP3   OH239691   1.570   1.494   1.742 -0.8982  0.2059 -0.2423
 6067TIP3    H139692   1.593   1.417   1.795 -0.8714  0.5781  0.2961
 6067TIP3    H239693   1.648   1.511   1.690 -0.0077  1.2926  1.3692
 6068TIP3   OH239694   4.742   4.860  14.195  0.7246 -0.0762 -0.4215
 6068TIP3    H139695   4.834   4.875  14.173  0.5739  0.3376 -0.7864
 6068TIP3    H239696   4.693   4.898  14.122  0.2723 -0.8637 -0.5395
 6069TIP3   OH239697   4.431   1.973   2.668  0.4343  0.3881  0.3844
 6069TIP3    H139698   4.519   1.984   2.632  0.3524  0.9484  0.3407
 6069TIP3    H239699   4.430   2.027   2.747  1.2722 -2.4275  2.4429
 6070TIP3   OH239700   3.761   1.372  11.721  0.2501 -0.2053 -0.4765
 6070TIP3    H139701   3.718   1.287  11.709 -1.2877  0.5388 -0.4892
 6070TIP3    H239702   3.853   1.355  11.701 -0.1127 -1.7430 -1.0254
 6071TIP3   OH239703   3.032   3.281  15.413  1.4416  0.2894 -0.0558
 6071TIP3    H139704   2.937   3.283  15.423  1.5470  2.0587  1.0147
 6071TIP3    H239705   3.058   3.199  15.455  0.5110  0.6024  1.2056
 6072TIP3   OH239706   6.523   0.992  12.822 -0.6040 -0.0648  0.1287
 6072TIP3    H139707   6.534   0.917  12.764  1.3746  0.7294 -0.6120
 6072TIP3    H239708   6.428   0.999  12.836 -0.9203 -1.8020 -0.9453
 6073TIP3   OH239709   0.632   2.621   4.895  0.0263  0.2225 -0.1006
 6073TIP3    H139710   0.609   2.551   4.957  0.5155 -1.0426 -1.2940
 6073TIP3    H239711   0.575   2.693   4.919  0.1779 -0.2206  1.8100
 6074TIP3   OH239712   2.518   5.734   0.180  0.4120 -0.1352  0.1299
 6074TIP3    H139713   2.520   5.639   0.172  0.6696 -0.0155 -1.7033
 6074TIP3    H239714   2.595   5.764   0.130 -0.4559  1.0882 -0.5277
 6075TIP3   OH239715   6.749   3.663  13.730 -0.2941  0.3835  0.4853
 6075TIP3    H139716   6.738   3.753  13.760 -1.6298  0.1309  0.8373
 6075TIP3    H239717   6.759   3.670  13.635 -0.6032  0.8951  0.4871
 6076TIP3   OH239718   2.244   2.611  10.509  0.5279  0.0288 -0.3428
 6076TIP3    H139719   2.273   2.691  10.466  2.0955 -0.0666  0.4605
 6076TIP3    H239720   2.310   2.546  10.485 -2.0472 -1.7889 -3.0926
 6077TIP3   OH239721   3.907   4.958   2.998  0.1338  0.1366  0.3903
 6077TIP3    H139722   3.864   5.034   2.959 -0.3700 -1.3868 -2.2905
 6077TIP3    H239723   3.837   4.893   3.007  0.6801 -0.2752  2.0229
 6078TIP3   OH239724   0.037   2.905  16.485 -0.1940 -0.0813 -0.3721
 6078TIP3    H139725   0.057   2.985  16.534 -2.1378  0.1038  0.2040
 6078TIP3    H239726   0.095   2.839  16.523  1.2074  0.9426 -0.6281
 6079TIP3   OH239727   1.309   6.816   1.906 -0.2632  0.1834 -0.1543
 6079TIP3    H139728   1.403   6.818   1.885 -0.2816  1.1769 -0.1943
 6079TIP3    H239729   1.301   6.750   1.975  1.1469  2.9985  2.9419
 6080TIP3   OH239730   2.770   2.289  11.585 -0.4915  0.2289 -0.0266
 6080TIP3    H139731   2.735   2.315  11.670 -0.0395  1.0910 -0.0953
 6080TIP3    H239732   2.773   2.370  11.535  0.8712  0.0382 -0.2878
 6081TIP3   OH239733   6.042   1.384   4.571  0.2865 -0.0797 -0.4029
 6081TIP3    H139734   6.072   1.391   4.662  0.4538  0.8277 -0.5133
 6081TIP3    H239735   6.104   1.438   4.522 -0.3539  0.1985 -0.9184
 6082TIP3   OH239736   4.014   4.744  15.794 -0.2935 -0.2194 -0.5802
 6082TIP3    H139737   3.933   4.711  15.755 -0.9456 -0.0827  0.5803
 6082TIP3    H239738   4.015   4.838  15.773 -0.9111 -0.0388  0.1438
 6083TIP3   OH239739   5.228   4.841   4.270 -0.2963 -0.0363 -0.1521
 6083TIP3    H139740   5.291   4.908   4.299  0.7938 -0.8021 -0.6979
 6083TIP3    H239741   5.168   4.833   4.344  0.2480  0.7026  0.4012
 6084TIP3   OH239742   6.265   4.967  11.340  0.5850  0.1562  0.4845
 6084TIP3    H139743   6.281   4.968  11.435  1.2222  0.3182  0.3856
 6084TIP3    H239744   6.342   4.922  11.304  1.7239  2.4591 -0.1750
 6085TIP3   OH239745   0.098   1.038   3.609 -0.3634  0.0109  0.2920
 6085TIP3    H139746   0.058   0.991   3.682  0.9292 -0.8092  0.5090
 6085TIP3    H239747   0.168   0.980   3.578  0.8988  1.5226  0.1768
 6086TIP3   OH239748   4.806   3.564  13.150  0.5301  0.5757  0.4694
 6086TIP3    H139749   4.750   3.604  13.084 -0.5613 -0.6832  0.5864
 6086TIP3    H239750   4.824   3.476  13.116 -0.1977 -0.1609  1.9010
 6087TIP3   OH239751   6.026   0.703   1.256  0.0058 -0.1077 -0.2169
 6087TIP3    H139752   6.089   0.632   1.253 -0.8241 -0.9819  1.6969
 6087TIP3    H239753   6.053   0.757   1.330 -0.7617  0.2041 -0.1559
 6088TIP3   OH239754   6.549   3.464   6.406  0.8044  0.2622 -0.3498
 6088TIP3    H139755   6.539   3.500   6.317 -0.6521 -0.4864 -0.5302
 6088TIP3    H239756   6.461   3.470   6.444  1.1138 -0.6616  0.5557
 6089TIP3   OH239757   1.060   0.108  12.668  0.0392 -0.2969  0.5048
 6089TIP3    H139758   1.080   0.040  12.604  0.5503 -0.3939  0.7685
 6089TIP3    H239759   1.139   0.161  12.673 -0.6950  0.9509 -0.4644
 6090TIP3   OH239760   1.371   3.245  11.605  0.4322 -0.2715  0.3036
 6090TIP3    H139761   1.310   3.245  11.679  0.3358 -2.3093  0.2771
 6090TIP3    H239762   1.440   3.306  11.630 -0.7741  0.8183  1.0491
 6091TIP3   OH239763   5.649   0.700   0.597  0.5241  0.7554 -0.2470
 6091TIP3    H139764   5.652   0.643   0.519 -0.3688  1.0180 -0.4845
 6091TIP3    H239765   5.714   0.662   0.656  2.7735  1.7477 -1.9174
 6092TIP3   OH239766   0.698   6.321  12.424 -0.2300  0.0157 -0.0972
 6092TIP3    H139767   0.672   6.408  12.394 -2.9003 -0.3755  0.8561
 6092TIP3    H239768   0.785   6.335  12.462  0.0984  1.9141 -1.3749
 6093TIP3   OH239769   4.366   4.087   3.365 -0.1237  0.4559 -0.1623
 6093TIP3    H139770   4.444   4.058   3.317  0.3107  0.5173  0.4949
 6093TIP3    H239771   4.394   4.089   3.456 -0.7396  1.0087  0.0184
 6094TIP3   OH239772   2.178   0.231   1.221 -0.3304 -0.5002 -0.1189
 6094TIP3    H139773   2.270   0.256   1.211 -0.2406 -0.2020  1.2410
 6094TIP3    H239774   2.130   0.312   1.202 -0.3728 -0.8368 -1.5463
 6095TIP3   OH239775   6.544   6.780   0.370 -0.3204  0.2149  0.0766
 6095TIP3    H139776   6.524   6.778   0.276  1.4079 -0.4075 -0.3298
 6095TIP3    H239777   6.491   6.710   0.408 -1.4384  0.8213 -0.3233
 6096TIP3   OH239778   3.447   2.150   6.280 -0.0117 -0.1493  0.2952
 6096TIP3    H139779   3.454   2.082   6.347 -2.3939  0.5029  1.3062
 6096TIP3    H239780   3.353   2.160   6.266  0.3259  1.9794 -0.8330
 6097TIP3   OH239781   4.069   6.610  14.574  0.7167  0.8961 -0.2241
 6097TIP3    H139782   4.143   6.554  14.552 -1.3754 -1.9518 -0.5381
 6097TIP3    H239783   4.071   6.617  14.670  1.0577  0.3070 -0.1855
 6098TIP3   OH239784   1.163   5.643  14.343  0.2450  0.4184  0.0340
 6098TIP3    H139785   1.095   5.710  14.335  0.3943  0.5494 -0.1336
 6098TIP3    H239786   1.202   5.658  14.429 -0.3968 -0.0892  0.4257
 6099TIP3   OH239787   6.555   5.975   5.912 -0.2765  0.0349  0.5643
 6099TIP3    H139788   6.554   5.914   5.838 -1.3911  1.1793 -0.4112
 6099TIP3    H239789   6.538   5.920   5.988 -0.7259 -0.9597 -0.2216
 6100TIP3   OH239790   6.184   6.065   4.221 -0.1942  0.7672  0.0118
 6100TIP3    H139791   6.110   6.070   4.282 -0.8065 -0.7601 -0.5546
 6100TIP3    H239792   6.261   6.067   4.277 -0.7436 -0.9061  0.9232
 6101TIP3   OH239793   4.003   1.887   5.803  0.3991 -0.0616 -0.1486
 6101TIP3    H139794   3.976   1.798   5.826  2.1942 -0.8140 -0.7425
 6101TIP3    H239795   4.098   1.886   5.815  0.5741  1.4575 -1.2102
 6102TIP3   OH239796   0.468   6.771  10.746  0.3526  0.0817 -0.5137
 6102TIP3    H139797   0.426   6.820  10.817  0.3719  0.4563 -0.7557
 6102TIP3    H239798   0.532   6.715  10.789 -1.1720 -1.3646 -0.0106
 6103TIP3   OH239799   3.821   6.862   5.480  0.3473  0.0348 -0.5027
 6103TIP3    H139800   3.826   6.816   5.565  0.4078  0.2585 -0.3836
 6103TIP3    H239801   3.898   6.919   5.480 -0.2343  0.8287 -0.2452
 6104TIP3   OH239802   1.927   6.524  14.794 -0.5339 -0.6206 -0.0860
 6104TIP3    H139803   1.955   6.449  14.846 -0.2478  0.0444  0.7351
 6104TIP3    H239804   1.953   6.502  14.704 -1.3924 -1.9595 -0.0359
 6105TIP3   OH239805   5.745   5.536   5.572 -0.2760  0.3327  0.2614
 6105TIP3    H139806   5.782   5.556   5.658  1.3066  4.0701 -1.0648
 6105TIP3    H239807   5.651   5.553   5.582 -0.4145 -1.0483  1.6313
 6106TIP3   OH239808   4.479   5.596   6.059  0.9240 -0.1355  0.1306
 6106TIP3    H139809   4.534   5.608   6.137  0.5164  2.3132  0.0996
 6106TIP3    H239810   4.390   5.614   6.090  0.8040  1.2441 -0.9594
 6107TIP3   OH239811   3.538   5.704  12.385 -0.2698  0.5615 -0.1116
 6107TIP3    H139812   3.531   5.743  12.298 -0.3481 -0.1981 -0.4484
 6107TIP3    H239813   3.496   5.768  12.443 -0.7042  0.8190 -0.7006
 6108TIP3   OH239814   2.028   1.645  11.684  0.0667  0.1205 -0.6699
 6108TIP3    H139815   1.954   1.588  11.669  0.2966 -0.2623 -0.3715
 6108TIP3    H239816   2.008   1.725  11.635 -0.7405  0.1930 -0.2316
 6109TIP3   OH239817   4.984   0.718   5.417  0.2305 -0.1626 -0.1241
 6109TIP3    H139818   4.940   0.745   5.337 -0.9225 -0.9219  0.2293
 6109TIP3    H239819   5.003   0.800   5.463  1.3981  0.3187 -1.3876
 6110TIP3   OH239820   6.828   5.858   3.423 -0.2842 -0.2676 -0.4287
 6110TIP3    H139821   6.917   5.846   3.390  0.6899 -4.3361  2.8240
 6110TIP3    H239822   6.780   5.783   3.390 -1.7435  0.3512  0.1966
 6111TIP3   OH239823   4.971   4.296   5.019  0.6315  0.3378  0.0270
 6111TIP3    H139824   5.009   4.266   5.101  0.7411  2.3924  0.7830
 6111TIP3    H239825   5.030   4.366   4.989 -0.4068  0.8885 -0.8211
 6112TIP3   OH239826   3.128   4.987  15.534  0.3594 -0.1329 -0.2743
 6112TIP3    H139827   3.132   4.926  15.461 -0.0626 -1.4882  0.7850
 6112TIP3    H239828   3.157   5.071  15.498  3.1114 -1.4142 -1.2879
 6113TIP3   OH239829   2.161   2.637  14.188 -0.4261 -0.0568  0.1465
 6113TIP3    H139830   2.138   2.705  14.124 -0.2695 -1.5676 -1.5836
 6113TIP3    H239831   2.159   2.556  14.138  1.5287 -1.0882  1.6313
 6114TIP3   OH239832   2.696   1.808   4.258  0.6377 -0.1421  0.1750
 6114TIP3    H139833   2.662   1.719   4.258  1.1389 -0.4998 -3.6464
 6114TIP3    H239834   2.648   1.852   4.187  3.3669  1.3041 -0.9025
 6115TIP3   OH239835   5.844   1.019   0.707  0.4968  0.5962 -0.1666
 6115TIP3    H139836   5.930   1.050   0.737  0.6629 -0.6926  0.7703
 6115TIP3    H239837   5.792   1.015   0.787 -0.0020  0.0030 -0.5180
 6116TIP3   OH239838   0.149   0.840   0.177  0.1985 -0.2173  0.5364
 6116TIP3    H139839   0.072   0.849   0.121  1.3187 -0.1744 -1.0457
 6116TIP3    H239840   0.132   0.760   0.227 -1.1117  0.0941  0.6449
 6117TIP3   OH239841   3.059   3.550   0.311  0.1776 -0.5663 -0.7031
 6117TIP3    H139842   3.099   3.467   0.336  0.8327 -0.1062 -0.2078
 6117TIP3    H239843   3.133   3.608   0.293 -0.2505  0.2917  0.2002
 6118TIP3   OH239844   0.726   5.928   1.147  0.3706  0.3290  0.9289
 6118TIP3    H139845   0.639   5.930   1.188  0.3620 -0.3245  0.9514
 6118TIP3    H239846   0.712   5.889   1.061  0.7013 -0.1192  1.0773
 6119TIP3   OH239847   4.021   6.517   2.073  0.1674  0.1582 -0.3317
 6119TIP3    H139848   3.943   6.528   2.127  0.4539  0.9293 -0.0554
 6119TIP3    H239849   4.006   6.436   2.025  1.3005 -2.3978  3.2454
 6120TIP3   OH239850   5.290   6.785  10.912  0.4927  0.4062 -0.2616
 6120TIP3    H139851   5.320   6.734  10.838  0.4703  0.2372 -0.1547
 6120TIP3    H239852   5.329   6.872  10.899  1.1714  0.1408 -0.0332
 6121TIP3   OH239853   6.705   6.248  12.308  0.0283 -0.0674  0.1188
 6121TIP3    H139854   6.734   6.292  12.388  0.3108  1.7740 -0.9553
 6121TIP3    H239855   6.610   6.245  12.315  0.1157 -1.6043  1.3338
 6122TIP3   OH239856   0.146   5.063   0.862  0.4042  0.0207 -0.4322
 6122TIP3    H139857   0.194   5.142   0.836  1.3329 -0.6692 -0.8651
 6122TIP3    H239858   0.214   4.997   0.876 -0.3667 -0.7349 -0.1654
 6123TIP3   OH239859   5.659   4.255   1.598 -0.0947 -0.3311  0.1695
 6123TIP3    H139860   5.648   4.165   1.627 -1.8257  0.1600  1.2137
 6123TIP3    H239861   5.706   4.298   1.670  0.0980 -0.2417 -0.0082
 6124TIP3   OH239862   1.733   2.621  15.613 -0.2985  0.0322 -0.0793
 6124TIP3    H139863   1.808   2.598  15.668 -0.2046  0.8601  0.1570
 6124TIP3    H239864   1.657   2.585  15.660  0.0634 -2.4355 -1.2312
 6125TIP3   OH239865   0.339   5.042   1.982 -0.3633 -0.0467 -0.1951
 6125TIP3    H139866   0.353   4.954   1.948  1.5659  0.5069 -0.9861
 6125TIP3    H239867   0.315   5.094   1.905  1.1073  0.6132 -0.2499
 6126TIP3   OH239868   1.627   2.501   1.072  0.3269 -0.3147 -0.2121
 6126TIP3    H139869   1.663   2.422   1.032  0.8654 -2.3678  3.8133
 6126TIP3    H239870   1.532   2.487   1.074 -0.0632  1.1968 -3.1909
 6127TIP3   OH239871   1.379   0.666   3.353  0.7056  0.0290 -0.2913
 6127TIP3    H139872   1.313   0.615   3.306 -0.4443  1.2568 -0.0845
 6127TIP3    H239873   1.395   0.618   3.433  0.2231 -0.4123 -0.4537
 6128TIP3   OH239874   6.363   2.713  13.471  0.7232 -0.4760 -0.0808
 6128TIP3    H139875   6.355   2.695  13.564  2.1075 -1.6111 -0.1400
 6128TIP3    H239876   6.453   2.688  13.450 -0.1229 -2.0892 -2.0975
 6129TIP3   OH239877   4.178   0.545  13.524  0.1879 -0.0433  0.5541
 6129TIP3    H139878   4.233   0.622  13.513  0.9492 -0.7254 -0.5521
 6129TIP3    H239879   4.091   0.574  13.497  0.0081  0.9818  2.1059
 6130TIP3   OH239880   2.983   2.455  10.468  0.2339 -0.7037 -0.3787
 6130TIP3    H139881   3.033   2.432  10.390  1.5393  1.8610 -0.4020
 6130TIP3    H239882   3.045   2.448  10.540 -0.3009 -0.7046  0.0944
 6131TIP3   OH239883   4.430   2.774   1.985 -0.0814  0.7272  0.1480
 6131TIP3    H139884   4.503   2.743   2.039  1.0293  0.9576 -1.1748
 6131TIP3    H239885   4.442   2.730   1.901 -0.5028  2.0150 -0.6179
 6132TIP3   OH239886   2.499   0.130  10.825  0.2226  0.4552 -0.0057
 6132TIP3    H139887   2.492   0.079  10.905 -0.2503  0.4328 -0.0635
 6132TIP3    H239888   2.426   0.101  10.771  0.1400  0.9555 -0.1678
 6133TIP3   OH239889   3.366   2.175  13.723 -0.1109  0.2177  0.1569
 6133TIP3    H139890   3.434   2.151  13.660 -1.5165  0.5447 -1.5258
 6133TIP3    H239891   3.414   2.217  13.795  1.6405 -1.1633 -0.1254
 6134TIP3   OH239892   1.960   6.491   5.876 -0.6004 -0.3872  0.0497
 6134TIP3    H139893   1.922   6.572   5.909 -0.5724 -0.3395 -0.0323
 6134TIP3    H239894   2.048   6.488   5.914 -0.2915  0.0496 -0.6184
 6135TIP3   OH239895   0.507   4.511  15.853 -0.1277 -0.2787  0.4722
 6135TIP3    H139896   0.488   4.540  15.942  0.7722  0.1288  0.5456
 6135TIP3    H239897   0.491   4.589  15.799 -1.6342 -0.7916  0.1265
 6136TIP3   OH239898   3.451   2.264   0.300  0.3946  0.2432 -0.3091
 6136TIP3    H139899   3.456   2.257   0.395  0.8796 -1.1916 -0.4123
 6136TIP3    H239900   3.521   2.324   0.276 -0.0082  0.9558  0.2591
 6137TIP3   OH239901   0.019   2.796  13.475  0.3633 -0.0582  0.1378
 6137TIP3    H139902  -0.024   2.866  13.524  0.0348 -0.2103  0.0717
 6137TIP3    H239903   0.101   2.834  13.445  0.4836  0.0948  0.6520
 6138TIP3   OH239904   6.070   6.806  14.666 -0.2927 -0.6836 -0.1327
 6138TIP3    H139905   6.158   6.818  14.630 -0.8425  1.1461 -1.0220
 6138TIP3    H239906   6.067   6.865  14.742 -1.5176  1.3928 -1.6672
 6139TIP3   OH239907   4.639   3.953   4.682  0.7690  0.4897  0.0177
 6139TIP3    H139908   4.554   3.909   4.683  0.5165  0.9317 -1.3792
 6139TIP3    H239909   4.703   3.882   4.670  0.4969  0.3183 -0.3996
 6140TIP3   OH239910   0.071   3.491   4.143 -0.2115  0.5836 -0.1136
 6140TIP3    H139911   0.103   3.540   4.067  0.4761  0.9376  0.3878
 6140TIP3    H239912   0.150   3.474   4.195 -0.2804 -1.8169 -0.6793
 6141TIP3   OH239913   1.059   0.900  13.177  0.4169 -0.2238  0.3268
 6141TIP3    H139914   1.010   0.846  13.115  2.0291 -2.1507  0.6323
 6141TIP3    H239915   1.151   0.876  13.162  0.9303  0.0504  2.6849
 6142TIP3   OH239916   1.663   5.398   1.458  0.0087  0.7950 -0.3908
 6142TIP3    H139917   1.642   5.358   1.543  2.7046  0.4429  0.2036
 6142TIP3    H239918   1.666   5.325   1.397 -0.7574  0.8979 -0.5667
 6143TIP3   OH239919   3.806   3.072  16.275 -0.0518  0.0237  0.2909
 6143TIP3    H139920   3.773   3.110  16.193  2.7950  0.0879 -0.9192
 6143TIP3    H239921   3.756   2.990  16.285 -0.7604  0.2344 -1.2603
 6144TIP3   OH239922   0.753   3.598   2.347 -0.3398 -0.3252 -0.2012
 6144TIP3    H139923   0.727   3.511   2.377 -1.5143  0.0354 -0.1156
 6144TIP3    H239924   0.775   3.646   2.427  1.2673 -0.8172 -0.3174
 6145TIP3   OH239925   6.529   1.681  14.202  0.2720 -0.2288 -0.1077
 6145TIP3    H139926   6.544   1.598  14.246  1.0471 -0.6910 -1.2073
 6145TIP3    H239927   6.597   1.686  14.135  0.3864  1.3964  0.0733
 6146TIP3   OH239928   6.353   1.806   0.174  0.4791 -0.2307  0.6784
 6146TIP3    H139929   6.365   1.890   0.130 -0.4274 -0.6851 -0.4647
 6146TIP3    H239930   6.339   1.830   0.266 -0.9441  0.9706  0.1969
 6147TIP3   OH239931   4.768   3.338   2.866  0.2317  0.1527 -0.4667
 6147TIP3    H139932   4.763   3.297   2.780  0.3338 -0.9334  0.0277
 6147TIP3    H239933   4.712   3.284   2.922  2.0036 -0.6114  0.6839
 6148TIP3   OH239934   6.070   3.351  10.838  0.2469  0.0424  0.0388
 6148TIP3    H139935   6.087   3.443  10.814 -0.4634  0.6315  1.6562
 6148TIP3    H239936   5.993   3.327  10.786  0.6610  0.2344 -0.6766
 6149TIP3   OH239937   0.637   0.569  10.276 -0.0194 -0.1732  0.1122
 6149TIP3    H139938   0.723   0.586  10.237 -0.1179 -0.7302 -0.3793
 6149TIP3    H239939   0.597   0.505  10.217 -0.5782 -0.2857  0.6034
 6150TIP3   OH239940   2.557   6.850  16.100 -0.6609  0.0720 -0.1222
 6150TIP3    H139941   2.534   6.880  16.188  1.8778 -0.4596  0.8096
 6150TIP3    H239942   2.532   6.758  16.099 -0.6556  0.0680  0.0665
 6151TIP3   OH239943   3.520   1.194   1.447  0.0031  0.6531 -0.4862
 6151TIP3    H139944   3.514   1.277   1.400  0.2448  0.7070 -0.4267
 6151TIP3    H239945   3.458   1.136   1.403 -1.1489  1.2551  0.2960
 6152TIP3   OH239946   0.911   2.324  15.801  0.5461 -0.0402 -0.8300
 6152TIP3    H139947   0.819   2.299  15.795  0.8776 -1.1265 -1.7882
 6152TIP3    H239948   0.941   2.330  15.710  1.1270  1.5119 -0.5665
 6153TIP3   OH239949   0.351   1.581   2.672  0.0350 -0.1037 -0.1865
 6153TIP3    H139950   0.313   1.571   2.759  0.7286  0.1364  0.1558
 6153TIP3    H239951   0.358   1.491   2.639 -1.3911 -0.1134 -0.5228
 6154TIP3   OH239952   3.318   5.831   0.581  0.3133 -0.0682 -0.3793
 6154TIP3    H139953   3.287   5.854   0.668 -1.1709 -0.3999 -0.7825
 6154TIP3    H239954   3.411   5.811   0.592  0.3602  0.7960  0.9397
 6155TIP3   OH239955   6.500   1.591   5.697 -0.4897  0.1811  0.0451
 6155TIP3    H139956   6.535   1.677   5.674 -0.1567 -0.1649 -0.7886
 6155TIP3    H239957   6.508   1.586   5.792  0.1376  0.7992  0.0317
 6156TIP3   OH239958   3.420   2.040   2.678 -0.2718  0.1539 -0.0191
 6156TIP3    H139959   3.335   1.997   2.679 -0.2309 -0.0182 -1.5189
 6156TIP3    H239960   3.466   2.002   2.603  1.3137 -0.0912  1.0194
 6157TIP3   OH239961   5.029   5.281  13.420 -0.2619 -0.0776 -0.9480
 6157TIP3    H139962   4.969   5.221  13.464 -1.6226  1.0510 -1.1578
 6157TIP3    H239963   5.081   5.320  13.490  0.6381 -1.4571 -0.8128
 6158TIP3   OH239964   5.141   5.978  15.436  0.5778 -0.1749 -0.6280
 6158TIP3    H139965   5.108   5.890  15.453  0.3002  0.1240  0.4705
 6158TIP3    H239966   5.062   6.030  15.419  0.5681  0.2134  0.4791
 6159TIP3   OH239967   5.625   6.775  11.958 -0.0728 -0.5870  0.3113
 6159TIP3    H139968   5.693   6.708  11.943 -1.5708 -1.8741 -1.1940
 6159TIP3    H239969   5.637   6.837  11.886  0.9520  0.4833  1.3818
 6160TIP3   OH239970   2.607   2.495  12.100  0.2514 -0.0131 -0.3289
 6160TIP3    H139971   2.524   2.517  12.142 -0.3532 -1.3863 -0.7389
 6160TIP3    H239972   2.587   2.494  12.007  1.0052  0.7177 -0.5008
 6161TIP3   OH239973   0.902   0.406   1.088  0.2665 -0.0939 -0.7919
 6161TIP3    H139974   0.936   0.491   1.060  1.0375  0.0027  0.3882
 6161TIP3    H239975   0.970   0.344   1.062  0.0975 -0.2443 -0.8779
 6162TIP3   OH239976   3.320   5.768   6.104  0.1479 -0.1973  0.6576
 6162TIP3    H139977   3.375   5.706   6.152 -0.2736 -0.6127  0.6162
 6162TIP3    H239978   3.264   5.808   6.170 -0.5886 -0.9334  0.4997
 6163TIP3   OH239979   3.774   5.528  16.836 -0.0688  0.1553 -0.3484
 6163TIP3    H139980   3.840   5.481  16.887  0.4145 -0.5863 -1.6271
 6163TIP3    H239981   3.691   5.493  16.869  0.2053  0.1772  0.3943
 6164TIP3   OH239982   5.799   4.495  15.007  0.0466 -0.1921 -0.1066
 6164TIP3    H139983   5.832   4.459  14.924 -1.2338 -2.7772  0.4028
 6164TIP3    H239984   5.707   4.514  14.990  0.2505  1.1487  0.2010
 6165TIP3   OH239985   4.746   5.238   0.348 -0.3869  0.0790  0.5252
 6165TIP3    H139986   4.733   5.145   0.366  0.7396 -0.0229  0.8975
 6165TIP3    H239987   4.696   5.283   0.416  0.3008 -0.2754  1.2775
 6166TIP3   OH239988   1.148   2.238  14.711  0.2069 -0.2997 -0.1757
 6166TIP3    H139989   1.213   2.174  14.738 -1.4535 -2.1561 -0.4239
 6166TIP3    H239990   1.173   2.261  14.621  0.5187 -1.0010 -0.2696
 6167TIP3   OH239991   2.861   2.021  11.541  0.7574 -0.0752  0.1765
 6167TIP3    H139992   2.852   1.987  11.453 -1.2630  0.4629  0.1222
 6167TIP3    H239993   2.885   2.113  11.529 -1.0331  0.4278  0.0807
 6168TIP3   OH239994   1.998   0.405  11.870 -0.3228  0.3118 -0.0223
 6168TIP3    H139995   2.028   0.443  11.952  0.8438  2.3785 -1.3346
 6168TIP3    H239996   2.072   0.353  11.839 -1.8621 -3.2820  1.7040
 6169TIP3   OH239997   1.826   0.330  12.170 -0.0084  0.3803 -0.0698
 6169TIP3    H139998   1.748   0.295  12.129 -0.1970  0.6962  0.0125
 6169TIP3    H239999   1.850   0.405  12.115  1.9514 -1.4028 -1.8459
 6170TIP3   OH240000   6.834   3.621  16.340 -0.4875  0.0226  0.0831
 6170TIP3    H140001   6.798   3.661  16.260  0.4602  0.9431  0.1074
 6170TIP3    H240002   6.927   3.641  16.337 -0.2508 -0.8941  0.8793
 6171TIP3   OH240003   0.475   2.775   2.963 -0.2963  0.3687  0.2396
 6171TIP3    H140004   0.468   2.760   2.869  0.8637 -1.4141  0.3916
 6171TIP3    H240005   0.438   2.696   3.003  0.4208  0.5267  1.2538
 6172TIP3   OH240006   2.695   6.166   6.169  0.6593 -0.4888  0.4471
 6172TIP3    H140007   2.616   6.187   6.219 -0.7211 -1.1861 -1.3223
 6172TIP3    H240008   2.664   6.108   6.099  3.0048 -2.0819  0.6033
 6173TIP3   OH240009   1.702   3.546   2.633 -0.2985  0.2120 -0.0138
 6173TIP3    H140010   1.686   3.468   2.686 -0.2459 -1.3984 -2.2625
 6173TIP3    H240011   1.780   3.585   2.672  1.3155 -2.3822 -0.3966
 6174TIP3   OH240012   1.521   5.246   2.274 -0.0392  0.1628  0.1014
 6174TIP3    H140013   1.540   5.269   2.366  0.1687  1.7021 -0.2950
 6174TIP3    H240014   1.594   5.190   2.248  0.9896  1.3457  0.3098
 6175TIP3   OH240015   3.163   2.371   0.377 -0.1093 -0.3777  0.2593
 6175TIP3    H140016   3.122   2.298   0.329 -0.9756 -1.1228  2.0210
 6175TIP3    H240017   3.222   2.328   0.438  1.0876  0.5615 -0.2046
 6176TIP3   OH240018   5.689   2.246  12.328 -0.0951 -0.4043 -0.3142
 6176TIP3    H140019   5.673   2.243  12.234 -2.5557  2.4398 -0.1256
 6176TIP3    H240020   5.622   2.189  12.365 -0.9139  0.5948 -0.2079
 6177TIP3   OH240021   1.943   4.902   0.574  0.3429 -0.5664 -0.7870
 6177TIP3    H140022   1.914   4.863   0.657 -0.0216  0.7533 -0.2734
 6177TIP3    H240023   2.008   4.839   0.540  0.8212 -0.9336  0.7134
 6178TIP3   OH240024   6.875   4.928  15.423 -0.3073 -0.0162  0.5566
 6178TIP3    H140025   6.932   4.852  15.437 -1.1410 -0.7059  0.3191
 6178TIP3    H240026   6.795   4.891  15.387 -0.7966  0.9708  0.6006
 6179TIP3   OH240027   1.464   5.038  16.503  0.2108 -0.3455 -0.9988
 6179TIP3    H140028   1.417   4.955  16.513  0.2675 -0.1444  1.3622
 6179TIP3    H240029   1.551   5.020  16.539 -0.6742  1.4355  2.4519
 6180TIP3   OH240030   0.913   5.210  16.193  0.0967 -0.3054  0.4270
 6180TIP3    H140031   0.865   5.255  16.263  0.3989 -2.3579  2.0462
 6180TIP3    H240032   0.900   5.117  16.212  1.7781 -0.9029 -1.1731
 6181TIP3   OH240033   1.842   5.029  13.277  0.2110  0.1284  0.0324
 6181TIP3    H140034   1.924   4.989  13.250  1.0483  2.1855 -0.6764
 6181TIP3    H240035   1.850   5.040  13.372  0.3390 -0.5519  0.1026
 6182TIP3   OH240036   3.111   6.594  13.038 -0.0314 -0.4703  0.4010
 6182TIP3    H140037   3.130   6.561  13.126  0.5874  1.5171  1.0774
 6182TIP3    H240038   3.057   6.672  13.054  1.4608  0.8765 -0.8776
 6183TIP3   OH240039   5.831   0.110   5.165  0.1221 -0.1061 -0.1344
 6183TIP3    H140040   5.913   0.065   5.146  0.6882 -0.8762  3.4124
 6183TIP3    H240041   5.763   0.047   5.141  0.6729 -0.6113 -0.4160
 6184TIP3   OH240042   6.664   3.436   4.952 -0.6637  0.0653 -0.5263
 6184TIP3    H140043   6.677   3.351   4.995  0.2149  0.4468 -0.0074
 6184TIP3    H240044   6.661   3.499   5.023  0.5046  0.6708 -0.9824
 6185TIP3   OH240045   6.868   0.846   0.618 -0.2515  0.2247  0.2865
 6185TIP3    H140046   6.946   0.812   0.574 -1.0455 -2.9113  1.0298
 6185TIP3    H240047   6.899   0.921   0.669  1.7072  0.6703 -1.4223
 6186TIP3   OH240048   3.206   2.310  14.541  0.0958 -0.6713 -0.0050
 6186TIP3    H140049   3.126   2.300  14.592 -1.2622  1.0103 -1.6408
 6186TIP3    H240050   3.179   2.295  14.450  1.0591  2.1068 -0.8686
 6187TIP3   OH240051   6.596   5.302   3.941  0.1098 -0.2809 -0.1472
 6187TIP3    H140052   6.541   5.280   3.866  0.1333  0.8946 -0.5397
 6187TIP3    H240053   6.666   5.356   3.905 -1.9755  3.7119  1.0830
 6188TIP3   OH240054   0.427   5.883  10.881 -0.4156 -0.5606 -0.4831
 6188TIP3    H140055   0.383   5.813  10.832 -0.9637 -1.0550  0.6766
 6188TIP3    H240056   0.355   5.936  10.917 -0.0369  1.5687 -2.5953
 6189TIP3   OH240057   1.134   3.857   5.051  0.6692  0.7207  0.7369
 6189TIP3    H140058   1.229   3.862   5.048  0.6011  2.6455 -2.3345
 6189TIP3    H240059   1.114   3.767   5.024  1.5753  0.2035  1.7275
 6190TIP3   OH240060   3.082   4.124  11.423 -0.1525  0.9023  0.2614
 6190TIP3    H140061   3.143   4.188  11.460  1.5839 -0.7652  0.4229
 6190TIP3    H240062   3.051   4.165  11.342  0.1700  2.3403  0.8349
 6191TIP3   OH240063   4.746   2.526   0.011 -0.4646  0.5219  0.6734
 6191TIP3    H140064   4.708   2.609   0.038 -2.1250 -0.3933  1.2797
 6191TIP3    H240065   4.685   2.491  -0.054  0.3606 -0.0998  0.2118
 6192TIP3   OH240066   4.845   0.160   2.566 -0.2681  0.5679 -0.6307
 6192TIP3    H140067   4.936   0.176   2.590  0.3935 -0.8650 -1.9656
 6192TIP3    H240068   4.825   0.074   2.602 -1.6493  1.5177  1.0017
 6193TIP3   OH240069   0.076   1.279   4.576 -0.2649  0.0024  0.2038
 6193TIP3    H140070   0.151   1.230   4.610 -1.2928 -1.7563  0.0584
 6193TIP3    H240071   0.024   1.301   4.654 -0.5040 -0.3614  0.1486
 6194TIP3   OH240072   5.448   3.468  13.960 -0.0624 -0.1018 -0.2346
 6194TIP3    H140073   5.481   3.516  13.884  1.2877  0.3943  0.6274
 6194TIP3    H240074   5.354   3.486  13.961 -0.0158  0.2941 -1.4860
 6195TIP3   OH240075   0.395   4.187   2.265  0.1195 -0.0535 -0.0081
 6195TIP3    H140076   0.413   4.152   2.177 -1.2706 -0.4290 -0.1689
 6195TIP3    H240077   0.380   4.109   2.318 -0.6594  0.2245  0.1815
 6196TIP3   OH240078   1.054   2.797  11.305  0.4253 -0.0243 -0.9101
 6196TIP3    H140079   1.125   2.774  11.365 -1.3201  2.1112  2.2692
 6196TIP3    H240080   1.088   2.871  11.254  1.0589 -0.1548 -0.6816
 6197TIP3   OH240081   1.559   0.327  13.258 -0.0124 -0.1745  0.8366
 6197TIP3    H140082   1.550   0.385  13.334 -0.0504  1.6406 -0.4967
 6197TIP3    H240083   1.475   0.334  13.213  0.5233 -0.0545 -0.1604
 6198TIP3   OH240084   2.109   0.865   6.330 -0.3527 -0.4016  0.6087
 6198TIP3    H140085   2.093   0.830   6.417  2.5453  0.2532  1.5435
 6198TIP3    H240086   2.184   0.924   6.342 -0.3776  0.3431 -2.1899
 6199TIP3   OH240087   4.217   3.845   4.168 -0.2605 -0.4386  0.3710
 6199TIP3    H140088   4.268   3.788   4.110 -0.8009 -1.8929  1.2615
 6199TIP3    H240089   4.247   3.934   4.147  1.0441 -1.0812 -0.6562
 6200TIP3   OH240090   2.684   3.104  11.355 -0.6311  0.0839  0.4714
 6200TIP3    H140091   2.764   3.053  11.345 -0.8963 -0.4539  1.0137
 6200TIP3    H240092   2.696   3.151  11.438 -1.2783 -0.7814  1.0824
 6201TIP3   OH240093   5.796   6.262  16.026 -0.4143 -0.4172  0.3479
 6201TIP3    H140094   5.731   6.192  16.021  0.4804 -1.1646 -1.5633
 6201TIP3    H240095   5.776   6.318  15.951  1.1664 -0.7080 -0.3180
 6202TIP3   OH240096   4.551   6.738   1.950 -0.2889 -0.8974  0.4510
 6202TIP3    H140097   4.634   6.700   1.922  0.4591  1.6077 -1.0510
 6202TIP3    H240098   4.504   6.755   1.869 -0.5333  1.3272  1.0001
 6203TIP3   OH240099   1.613   6.206  13.331  0.1536 -0.4798  0.2976
 6203TIP3    H140100   1.659   6.123  13.319  1.2744  0.2899 -1.1296
 6203TIP3    H240101   1.556   6.192  13.406  1.0458 -2.2206  0.6944
 6204TIP3   OH240102   0.265   3.836   3.637 -1.1631  0.3088  0.2142
 6204TIP3    H140103   0.203   3.903   3.608 -1.3588  1.6540  3.2610
 6204TIP3    H240104   0.351   3.871   3.615 -1.3589  0.1617 -0.7988
 6205TIP3   OH240105   6.128   1.362   0.559  0.9886 -0.1442 -0.0205
 6205TIP3    H140106   6.117   1.305   0.635  1.9260 -2.1284 -1.2742
 6205TIP3    H240107   6.049   1.349   0.507 -0.0639  1.9031  0.9870
 6206TIP3   OH240108   5.693   2.441   0.682 -0.0570  0.3401  0.1509
 6206TIP3    H140109   5.751   2.515   0.700  1.7266 -1.1180  0.6128
 6206TIP3    H240110   5.730   2.368   0.732 -2.3759 -0.6459  0.5902
 6207TIP3   OH240111   2.525   0.230  12.397  0.3494  0.1064  0.2618
 6207TIP3    H140112   2.501   0.204  12.486 -0.1506 -1.1887 -0.2297
 6207TIP3    H240113   2.441   0.242  12.352  0.5062  3.2104  0.5747
 6208TIP3   OH240114   3.099   5.030   5.135 -0.2570  0.7333 -0.4110
 6208TIP3    H140115   3.142   5.055   5.053 -1.4106 -0.6696 -1.4808
 6208TIP3    H240116   3.164   4.976   5.180 -0.0021  0.6469 -0.8757
 6209TIP3   OH240117   6.066   0.348   2.089  0.7803 -0.0182  0.2425
 6209TIP3    H140118   6.057   0.264   2.045 -1.0662 -1.1392  2.5527
 6209TIP3    H240119   5.976   0.381   2.097  1.4201  2.0615 -0.2907
 6210TIP3   OH240120   5.838   3.032  14.563 -0.3247 -0.5479 -0.4680
 6210TIP3    H140121   5.872   3.074  14.642  1.0581 -0.4989 -1.0561
 6210TIP3    H240122   5.849   2.938  14.578 -2.1684 -0.6957  0.2905
 6211TIP3   OH240123   2.189   3.723   5.906 -0.3871 -0.1360 -0.2457
 6211TIP3    H140124   2.212   3.752   5.994 -1.3919 -1.1068  0.3682
 6211TIP3    H240125   2.158   3.633   5.918 -1.2139 -0.0371 -1.4893
 6212TIP3   OH240126   0.377   2.914   2.694  0.0418 -0.3594  0.5431
 6212TIP3    H140127   0.375   2.871   2.609  1.0522  0.5947  0.0113
 6212TIP3    H240128   0.299   2.883   2.739 -0.9707 -0.2336 -1.0551
 6213TIP3   OH240129   3.230   2.279  12.429  0.3725  0.1706  0.5275
 6213TIP3    H140130   3.252   2.205  12.487  1.2626 -0.1635 -0.2064
 6213TIP3    H240131   3.309   2.333  12.429 -0.1289  0.9089  0.7288
 6214TIP3   OH240132   3.924   4.350   3.304  0.1483 -0.4684 -0.4165
 6214TIP3    H140133   4.012   4.381   3.283 -0.7385  2.3137 -0.3158
 6214TIP3    H240134   3.917   4.356   3.399 -0.7394  1.1812 -0.5518
 6215TIP3   OH240135   1.823   2.856  16.020 -0.2748 -0.0971  0.0670
 6215TIP3    H140136   1.852   2.884  15.933 -2.3269  1.5805 -0.1482
 6215TIP3    H240137   1.893   2.885  16.079  0.2779  0.4309 -0.8285
 6216TIP3   OH240138   4.707   0.756  13.084 -0.1047  0.0620  0.0567
 6216TIP3    H140139   4.757   0.772  13.003  1.1745  2.1365  1.1805
 6216TIP3    H240140   4.694   0.661  13.085 -0.7308  0.0124 -2.8682
 6217TIP3   OH240141   5.755   3.000   0.276 -0.3304 -0.3773  0.3949
 6217TIP3    H140142   5.678   3.003   0.333 -1.0509  0.0046 -0.5707
 6217TIP3    H240143   5.803   3.080   0.296 -2.2189  1.4188 -1.6927
 6218TIP3   OH240144   5.504   3.171  14.729 -0.0671 -0.7804 -0.2113
 6218TIP3    H140145   5.572   3.206  14.786 -0.5577 -0.5566  0.2436
 6218TIP3    H240146   5.422   3.189  14.775 -0.5840  0.5394 -1.5580
 6219TIP3   OH240147   1.326   6.076   4.999 -0.1835  0.5329  0.0446
 6219TIP3    H140148   1.356   6.117   5.080 -0.8273 -0.4851  0.8146
 6219TIP3    H240149   1.309   6.150   4.940 -1.8835  1.4418  1.5775
 6220TIP3   OH240150   6.134   6.125   2.164  0.4642  0.1058 -0.0576
 6220TIP3    H140151   6.039   6.123   2.180  0.5158 -1.2416  0.1332
 6220TIP3    H240152   6.150   6.053   2.104  1.4825 -0.1690  0.5242
 6221TIP3   OH240153   5.858   6.721  13.130 -0.3171 -0.1164  0.7360
 6221TIP3    H140154   5.901   6.688  13.051 -1.2224 -2.0735  1.0002
 6221TIP3    H240155   5.788   6.658  13.147 -0.6966  0.7457  2.6066
 6222TIP3   OH240156   1.242   5.435   5.749  0.0565  0.2750 -0.1032
 6222TIP3    H140157   1.194   5.510   5.785  0.3595  1.0178 -1.2234
 6222TIP3    H240158   1.194   5.412   5.670 -0.0785 -0.7834  0.2695
 6223TIP3   OH240159   4.597   2.390  13.736 -0.1644 -0.2728  0.1668
 6223TIP3    H140160   4.541   2.438  13.797  1.4130 -0.0121  1.4821
 6223TIP3    H240161   4.657   2.456  13.702 -0.2105 -0.6698 -0.6902
 6224TIP3   OH240162   1.897   5.288  10.915 -0.5233 -0.1892 -0.0894
 6224TIP3    H140163   1.851   5.373  10.918 -0.6190 -0.2612  2.7478
 6224TIP3    H240164   1.973   5.305  10.859 -0.1141  2.0343  0.9968
 6225TIP3   OH240165   3.065   2.211   2.758  0.0597  0.7140 -0.2063
 6225TIP3    H140166   3.021   2.241   2.838  0.3822 -0.7420  0.5596
 6225TIP3    H240167   3.156   2.240   2.769  0.3101 -0.2609  0.4051
 6226TIP3   OH240168   3.069   0.824   3.338 -0.2781 -0.2537 -0.3806
 6226TIP3    H140169   3.017   0.904   3.344  0.9067  0.4884  0.4995
 6226TIP3    H240170   3.007   0.753   3.350 -1.2843  0.5480 -0.7312
 6227TIP3   OH240171   0.260   1.409  11.251 -0.4499 -0.1110 -0.5554
 6227TIP3    H140172   0.323   1.454  11.307 -1.7420 -0.9628  1.7665
 6227TIP3    H240173   0.180   1.461  11.259 -0.7164 -0.3517 -1.5165
 6228TIP3   OH240174   2.438   2.407   0.818  0.0278  0.0043 -0.2785
 6228TIP3    H140175   2.508   2.451   0.769  0.9885 -2.7164 -1.5824
 6228TIP3    H240176   2.360   2.459   0.802  1.1497  1.4330 -1.3511
 6229TIP3   OH240177   5.708   1.257   2.411  0.0989  0.6348  0.8804
 6229TIP3    H140178   5.673   1.202   2.341 -0.3164  2.1468 -0.1434
 6229TIP3    H240179   5.751   1.195   2.471 -0.0897 -0.7545 -0.3637
 6230TIP3   OH240180   0.026   4.723   0.785 -0.3516 -0.0747 -0.3598
 6230TIP3    H140181   0.099   4.691   0.838 -0.8197 -1.3698 -0.4512
 6230TIP3    H240182   0.062   4.735   0.698 -0.1717 -0.3855 -0.3287
 6231TIP3   OH240183   6.040   2.607  11.103  0.1007 -0.6543  0.3361
 6231TIP3    H140184   6.043   2.576  11.194  1.4920 -1.8951 -0.0746
 6231TIP3    H240185   6.129   2.591  11.070  0.3131  1.9617 -0.5752
 6232TIP3   OH240186   4.135   1.677   0.827  0.1963  0.3486  0.1196
 6232TIP3    H140187   4.106   1.647   0.913  0.2317 -1.5397 -0.4669
 6232TIP3    H240188   4.194   1.750   0.844 -0.1617  0.2973  1.6618
 6233TIP3   OH240189   5.551   5.614  15.273 -0.6311  0.3056 -0.7848
 6233TIP3    H140190   5.466   5.653  15.254 -0.7738 -0.5987 -2.1610
 6233TIP3    H240191   5.585   5.587  15.188  0.1579 -1.1151 -0.0646
 6234TIP3   OH240192   5.877   6.713  16.538 -0.2645  0.6226  0.4792
 6234TIP3    H140193   5.835   6.728  16.623  0.0095  0.5019  0.6408
 6234TIP3    H240194   5.966   6.748  16.550  0.3328 -0.9565  0.8008
 6235TIP3   OH240195   2.327   6.099   5.982 -0.0123 -0.2568 -0.9114
 6235TIP3    H140196   2.318   6.146   6.065 -0.5218 -0.3294 -0.9230
 6235TIP3    H240197   2.414   6.123   5.950 -0.2466  0.6577 -0.9029
 6236TIP3   OH240198   3.930   6.305   0.894 -0.3999  0.0801 -0.3528
 6236TIP3    H140199   3.867   6.306   0.967 -0.4662 -1.7832 -0.3499
 6236TIP3    H240200   3.945   6.213   0.876  0.2379  0.4989 -2.1982
 6237TIP3   OH240201   2.294   1.074   1.331  0.1390 -0.4652  0.0637
 6237TIP3    H140202   2.347   1.142   1.287 -0.0094 -0.1653  0.3439
 6237TIP3    H240203   2.344   0.994   1.319 -0.8264 -0.7970 -2.4129
 6238TIP3   OH240204   1.890   5.773   1.826  0.2485 -0.3993  0.1759
 6238TIP3    H140205   1.958   5.795   1.890  0.1943  0.2858  0.0092
 6238TIP3    H240206   1.871   5.681   1.842  1.4663 -0.7007 -0.0071
 6239TIP3   OH240207   4.311   6.468  13.092  0.2426 -0.0143 -0.0182
 6239TIP3    H140208   4.362   6.527  13.036  0.8674  1.0942  1.6414
 6239TIP3    H240209   4.371   6.395  13.111  0.3353  0.0463 -0.0750
 6240TIP3   OH240210   2.039   4.319  13.053  0.0593 -0.1283 -0.2472
 6240TIP3    H140211   2.106   4.251  13.045  2.0288  1.3200  2.3123
 6240TIP3    H240212   2.000   4.304  13.139 -0.1282  1.3606 -0.0418
 6241TIP3   OH240213   4.695   5.585   6.554 -0.5115  0.2830  0.7295
 6241TIP3    H140214   4.626   5.565   6.617 -1.7955 -0.0447 -0.7122
 6241TIP3    H240215   4.741   5.502   6.542 -0.6258  0.2082  0.8097
 6242TIP3   OH240216   4.227   5.115   2.493  0.0685  0.1815 -0.4705
 6242TIP3    H140217   4.186   5.112   2.580  2.0646  1.8491  0.6180
 6242TIP3    H240218   4.169   5.171   2.441 -0.8722 -0.3993 -0.0765
 6243TIP3   OH240219   6.287   4.465  12.772  0.9630  0.8371 -0.0056
 6243TIP3    H140220   6.356   4.426  12.719  0.4552 -0.1613  0.0268
 6243TIP3    H240221   6.313   4.556  12.783  1.9171  0.6480 -0.5650
 6244TIP3   OH240222   6.797   1.488  16.728  0.3487 -0.6292 -0.0449
 6244TIP3    H140223   6.786   1.397  16.701 -0.3929 -0.0710 -1.7698
 6244TIP3    H240224   6.798   1.538  16.646  1.5326  0.8532  0.8076
 6245TIP3   OH240225   2.283   0.994  15.451  0.4140  0.2603 -1.3253
 6245TIP3    H140226   2.307   0.934  15.380  0.7321 -0.7021 -0.4354
 6245TIP3    H240227   2.193   0.970  15.472  0.5326  0.1100 -0.9874
 6246TIP3   OH240228   4.532   1.504   5.513 -0.2643  0.3035 -0.1410
 6246TIP3    H140229   4.614   1.509   5.562 -0.7308  0.8472  0.6147
 6246TIP3    H240230   4.534   1.580   5.455 -0.0643  0.1058 -0.3916
 6247TIP3   OH240231   4.739   6.670  14.383 -0.2437 -0.5843 -0.1958
 6247TIP3    H140232   4.813   6.726  14.408 -1.5107  0.7976  0.5889
 6247TIP3    H240233   4.768   6.581  14.402  1.9357 -0.2850 -1.7081
 6248TIP3   OH240234   2.687   1.620  12.806 -0.1594 -0.2927  0.0183
 6248TIP3    H140235   2.654   1.596  12.719  0.8737 -0.3126 -0.3813
 6248TIP3    H240236   2.676   1.541  12.859  0.4142 -0.6976 -0.4572
 6249TIP3   OH240237   6.803   0.198  12.929 -0.1853 -0.4194 -0.2025
 6249TIP3    H140238   6.821   0.156  13.013 -0.3090 -1.0662 -0.4931
 6249TIP3    H240239   6.725   0.250  12.945 -0.3278 -0.7021  0.0372
 6250TIP3   OH240240   2.393   4.884   3.758 -0.3092  0.1823 -0.2103
 6250TIP3    H140241   2.318   4.828   3.742 -0.3483 -0.5170  2.0469
 6250TIP3    H240242   2.446   4.876   3.679 -1.9441 -0.3469 -1.3057
 6251TIP3   OH240243   2.933   5.737   5.064 -0.1656  0.8867  0.5552
 6251TIP3    H140244   2.862   5.679   5.038  1.8961 -1.0548 -1.2038
 6251TIP3    H240245   2.944   5.722   5.158  0.8626 -2.3933  0.0313
 6252TIP3   OH240246   0.961   0.392   4.930  0.1174 -0.5631  0.6480
 6252TIP3    H140247   0.996   0.384   5.019  1.5108  2.6758  0.5168
 6252TIP3    H240248   0.885   0.449   4.940 -0.2385 -0.8856 -0.1512
 6253TIP3   OH240249   0.423   2.770  12.624  0.4824 -0.5797  0.3904
 6253TIP3    H140250   0.366   2.749  12.550  0.9934 -0.0782 -0.1481
 6253TIP3    H240251   0.430   2.687  12.672 -1.1670 -0.5117  0.8004
 6254TIP3   OH240252   4.635   3.876  12.124  0.0923 -0.6087 -0.6154
 6254TIP3    H140253   4.691   3.920  12.188  0.6542 -2.1201 -0.0328
 6254TIP3    H240254   4.656   3.919  12.041  2.3392 -1.3157 -0.4622
 6255TIP3   OH240255   3.300   2.253   2.480 -0.3762  0.2063  0.5753
 6255TIP3    H140256   3.359   2.178   2.490 -0.3611  0.1899  0.3756
 6255TIP3    H240257   3.287   2.260   2.385 -1.2807 -0.2573  0.6440
 6256TIP3   OH240258   3.347   1.325   5.609 -0.1702  0.0165 -0.1421
 6256TIP3    H140259   3.380   1.291   5.692 -0.6093  0.1019  0.0704
 6256TIP3    H240260   3.257   1.353   5.629 -1.1676 -2.2000 -1.1964
 6257TIP3   OH240261   0.433   6.874   4.264 -0.2939  0.2566  0.3737
 6257TIP3    H140262   0.380   6.900   4.188  0.5337  0.5157 -0.1280
 6257TIP3    H240263   0.443   6.779   4.254 -0.2999  0.2708  0.2230
 6258TIP3   OH240264   2.656   2.233   3.745  0.0188  0.0526  0.8487
 6258TIP3    H140265   2.737   2.182   3.734 -2.2767 -3.8676  0.0154
 6258TIP3    H240266   2.633   2.260   3.656 -0.1088  0.3083  0.9593
 6259TIP3   OH240267   5.231   6.876   1.323 -0.4195  0.0507 -0.1478
 6259TIP3    H140268   5.192   6.789   1.335  1.5840 -0.8104  0.5144
 6259TIP3    H240269   5.193   6.929   1.393 -1.5087 -0.3101 -0.4323
 6260TIP3   OH240270   4.223   0.449   3.197 -0.1113  0.2915  0.0967
 6260TIP3    H140271   4.301   0.459   3.142 -1.0253  0.4039 -1.2216
 6260TIP3    H240272   4.205   0.356   3.197 -0.1056  0.2891  0.2455
 6261TIP3   OH240273   1.298   2.757   0.096 -0.0470  0.4218  0.2584
 6261TIP3    H140274   1.260   2.675   0.065 -0.3765  0.5311  0.3633
 6261TIP3    H240275   1.386   2.733   0.126  0.6443  0.4774 -1.5801
 6262TIP3   OH240276   6.556   1.044   2.295 -0.3029  0.2154  0.7899
 6262TIP3    H140277   6.538   1.131   2.260 -1.5094 -0.5142 -0.5219
 6262TIP3    H240278   6.560   1.056   2.390  2.6853  2.2140  0.5312
 6263TIP3   OH240279   0.152   6.739   4.905 -0.2520  0.2154  0.0625
 6263TIP3    H140280   0.132   6.827   4.937 -0.7650 -0.5687  2.0583
 6263TIP3    H240281   0.090   6.682   4.952  2.0909 -1.5566  1.2012
 6264TIP3   OH240282   0.064   1.556  13.972 -0.0152 -0.4364  0.1764
 6264TIP3    H140283   0.115   1.478  13.994  0.2269 -0.2074  0.4484
 6264TIP3    H240284  -0.025   1.537  14.002  0.1200 -0.4732  0.5642
 6265TIP3   OH240285   3.903   2.113  12.622  0.6903  0.0953 -0.5665
 6265TIP3    H140286   3.975   2.074  12.574 -0.1600 -1.3653 -0.7111
 6265TIP3    H240287   3.937   2.198  12.652  2.6301 -0.7757 -0.1629
 6266TIP3   OH240288   3.063   4.199   1.975 -0.3582 -0.0116  0.1916
 6266TIP3    H140289   3.029   4.286   2.000 -0.4109  0.1039 -0.2815
 6266TIP3    H240290   2.990   4.158   1.929 -0.0661 -0.0064 -0.2744
 6267TIP3   OH240291   3.387   0.368   5.581  0.3078  0.0852  0.2509
 6267TIP3    H140292   3.444   0.440   5.557 -0.4657  0.4039 -0.7400
 6267TIP3    H240293   3.299   0.400   5.562 -0.0761 -0.9949  0.1216
 6268TIP3   OH240294   1.016   0.309  10.458 -0.0306 -0.3317 -0.2169
 6268TIP3    H140295   1.034   0.219  10.432 -1.2075 -0.3089 -1.2134
 6268TIP3    H240296   0.922   0.310  10.476  0.0431  0.6076  0.1423
 6269TIP3   OH240297   1.206   1.343  10.572  0.4297 -0.1658 -0.0570
 6269TIP3    H140298   1.281   1.402  10.578  0.4444 -0.2183  0.3162
 6269TIP3    H240299   1.243   1.256  10.587  0.4379 -0.2992 -0.7851
 6270TIP3   OH240300   5.642   3.096   2.435 -0.4180 -0.5574  0.0389
 6270TIP3    H140301   5.562   3.106   2.384 -0.7337 -0.8571  0.4634
 6270TIP3    H240302   5.656   3.001   2.440 -0.6515 -0.5559  0.8930
 6271TIP3   OH240303   6.205   4.110   2.794  0.3018  0.5038  0.4451
 6271TIP3    H140304   6.175   4.036   2.847 -3.5594  0.6115 -1.2454
 6271TIP3    H240305   6.157   4.186   2.829  1.6591  1.6063  0.0285
 6272TIP3   OH240306   2.718   3.754  11.840 -0.1263 -0.3033  0.3027
 6272TIP3    H140307   2.799   3.790  11.877 -0.5329  0.5515  0.3747
 6272TIP3    H240308   2.664   3.830  11.820 -0.0380 -0.7538 -1.8392
 6273TIP3   OH240309   6.828   2.103  11.568  0.1331 -0.3251  0.3729
 6273TIP3    H140310   6.908   2.133  11.611  1.1633 -1.2140 -0.9032
 6273TIP3    H240311   6.761   2.166  11.598  1.3761  0.7147  1.0761
 6274TIP3   OH240312   3.290   4.010  16.525 -0.1123 -0.1891 -0.5685
 6274TIP3    H140313   3.328   3.940  16.579 -1.2096 -0.4586 -0.1220
 6274TIP3    H240314   3.366   4.063  16.499  0.4231  0.3962  1.8573
 6275TIP3   OH240315   2.661   2.898  14.491 -0.1664 -0.4196  0.0453
 6275TIP3    H140316   2.646   2.812  14.530 -0.3661 -0.9283 -1.1202
 6275TIP3    H240317   2.753   2.897  14.465  0.4745  0.5938  2.0738
 6276TIP3   OH240318   4.235   1.364   3.033 -0.2881  0.3283  0.0041
 6276TIP3    H140319   4.238   1.326   2.945  0.0492 -1.8263  0.8787
 6276TIP3    H240320   4.254   1.456   3.020  1.1734 -0.1905 -2.0612
 6277TIP3   OH240321   4.123   6.830  13.238 -0.6235 -0.3270 -0.1411
 6277TIP3    H140322   4.051   6.771  13.213 -1.4756  0.8819 -0.6582
 6277TIP3    H240323   4.081   6.915  13.249  0.7616  0.4443 -0.5762
 6278TIP3   OH240324   0.216   4.022   0.907  0.3168  0.0598 -0.2480
 6278TIP3    H140325   0.255   3.938   0.933  0.9972  0.6464  0.6719
 6278TIP3    H240326   0.122   4.005   0.905  0.5245 -1.0824 -1.4045
 6279TIP3   OH240327   6.246   5.015  15.109  0.4913 -0.1026  0.1403
 6279TIP3    H140328   6.229   4.941  15.167  0.0708  0.5671  0.8863
 6279TIP3    H240329   6.177   5.010  15.043  0.4254 -0.3369  0.2282
 6280TIP3   OH240330   0.694   2.090   3.429 -0.2329  0.3573  0.2418
 6280TIP3    H140331   0.674   2.091   3.335 -0.5346 -0.1680  0.2984
 6280TIP3    H240332   0.623   2.139   3.469 -0.6912 -0.3576  0.3062
 6281TIP3   OH240333   1.919   1.569   2.561 -0.0245  0.3312  0.1532
 6281TIP3    H140334   1.959   1.530   2.483  1.3371 -0.6805  1.3080
 6281TIP3    H240335   1.900   1.659   2.536 -0.1406 -0.1273 -1.5216
 6282TIP3   OH240336   2.980   3.258  12.967 -0.3489  0.2946  0.2821
 6282TIP3    H140337   3.043   3.321  13.001  1.3237  0.1643 -2.3116
 6282TIP3    H240338   2.934   3.306  12.898  0.2504 -0.9656 -1.0449
 6283TIP3   OH240339   6.258   3.814  11.941  0.0969  0.4696  0.2566
 6283TIP3    H140340   6.350   3.810  11.969  0.0335 -0.2483  0.3848
 6283TIP3    H240341   6.215   3.867  12.007  0.6401  1.8411 -0.4469
 6284TIP3   OH240342   6.107   3.640  14.294 -0.2111 -0.3757 -0.4304
 6284TIP3    H140343   6.067   3.658  14.209  0.9023 -0.6584 -1.0364
 6284TIP3    H240344   6.051   3.685  14.357 -0.9966 -0.0716 -1.3210
 6285TIP3   OH240345   2.268   1.234  13.894 -0.2569 -0.5788 -0.3337
 6285TIP3    H140346   2.311   1.164  13.943  3.2084  0.2254 -1.8959
 6285TIP3    H240347   2.339   1.277  13.845 -2.4849  2.7802 -1.0099
 6286TIP3   OH240348   6.134   1.617  12.315  1.1669  0.5093  0.2067
 6286TIP3    H140349   6.180   1.557  12.374  1.9441  0.7092 -0.1740
 6286TIP3    H240350   6.041   1.599  12.329  1.3307  0.6076  1.5493
 6287TIP3   OH240351   2.519   1.965  13.983  0.7102  0.0887  0.0057
 6287TIP3    H140352   2.477   2.019  14.050  1.2692  0.7101 -0.1353
 6287TIP3    H240353   2.613   1.983  13.993  0.7086  1.8219 -2.2946
 6288TIP3   OH240354   2.689   5.702   6.547  0.2786  0.0579 -0.4553
 6288TIP3    H140355   2.599   5.672   6.534  0.4671 -0.6866 -0.1170
 6288TIP3    H240356   2.707   5.685   6.640  0.5588  0.7976 -0.3588
 6289TIP3   OH240357   0.408   6.589   4.874  0.9293 -0.1664  0.0283
 6289TIP3    H140358   0.418   6.565   4.782 -1.8650 -1.3141 -0.0740
 6289TIP3    H240359   0.333   6.649   4.875  0.0303 -1.2588  1.6657
 6290TIP3   OH240360   1.415   3.003   0.557 -0.3772  0.6104 -0.1717
 6290TIP3    H140361   1.380   3.076   0.607 -0.8555 -1.9772  3.6407
 6290TIP3    H240362   1.356   2.930   0.575  1.8709 -1.5924 -1.0924
 6291TIP3   OH240363   1.514   4.648  13.242 -0.2097 -0.5090 -0.5875
 6291TIP3    H140364   1.595   4.599  13.255  0.0955  0.0674 -0.2793
 6291TIP3    H240365   1.501   4.649  13.147 -1.5822 -3.3493 -0.5144
 6292TIP3   OH240366   3.782   5.419  13.352 -0.1981 -0.0747 -0.0332
 6292TIP3    H140367   3.802   5.409  13.259 -2.4960 -0.4202 -0.5287
 6292TIP3    H240368   3.712   5.484  13.356 -1.3535 -1.3276  1.2793
 6293TIP3   OH240369   4.537   0.082   0.748  0.0320 -0.1400 -0.0529
 6293TIP3    H140370   4.619   0.033   0.739 -0.2325 -0.4411 -0.9382
 6293TIP3    H240371   4.560   0.172   0.726  0.2878 -0.0653  0.4962
 6294TIP3   OH240372   5.155   6.274   5.737 -0.0933 -0.3337  0.0331
 6294TIP3    H140373   5.189   6.363   5.727 -3.3179  1.0648  0.3740
 6294TIP3    H240374   5.105   6.259   5.657  0.0497 -1.7091  0.1769
 6295TIP3   OH240375   5.937   3.088   1.110 -0.1296  0.4670  0.1091
 6295TIP3    H140376   5.853   3.100   1.065  0.1151 -0.4717 -0.6088
 6295TIP3    H240377   5.995   3.154   1.070 -0.3502  0.7018  0.1732
 6296TIP3   OH240378   1.916   5.446   1.491  0.2399  0.3543 -0.2190
 6296TIP3    H140379   1.824   5.449   1.466  0.1960  0.1311 -0.0897
 6296TIP3    H240380   1.929   5.356   1.522  0.4881  0.3995 -0.1900
 6297TIP3   OH240381   4.741   4.874   1.606 -0.3244  0.0043 -0.3799
 6297TIP3    H140382   4.724   4.850   1.697  0.5941  1.1649  0.1143
 6297TIP3    H240383   4.832   4.904   1.605  0.1529 -1.3220 -1.9672
 6298TIP3   OH240384   5.135   6.044  13.089 -0.4022 -0.6773  0.3413
 6298TIP3    H140385   5.209   5.991  13.060  0.8600  0.9528  0.4278
 6298TIP3    H240386   5.078   6.051  13.013  0.1669 -0.9108 -0.1092
 6299TIP3   OH240387   6.858   2.778  13.886 -0.0625  1.1434  0.8865
 6299TIP3    H140388   6.882   2.691  13.918 -1.9802  0.0703 -0.4240
 6299TIP3    H240389   6.832   2.826  13.965  1.6473  0.7906  1.7086
 6300TIP3   OH240390   6.565   0.583  15.867 -0.3059  0.7426 -0.2253
 6300TIP3    H140391   6.601   0.496  15.848 -0.4251  0.9147 -1.2990
 6300TIP3    H240392   6.497   0.567  15.932  0.8687  0.2624  0.9313
 6301TIP3   OH240393   5.180   1.214  10.316  0.5099  0.0787 -0.6227
 6301TIP3    H140394   5.257   1.257  10.277  0.7762  0.4865  0.3335
 6301TIP3    H240395   5.113   1.282  10.320  0.7879  0.3061  0.4809
 6302TIP3   OH240396   2.962   6.656  16.575 -0.2318  0.3274  0.2539
 6302TIP3    H140397   2.924   6.581  16.530 -0.9670  1.4952 -1.1385
 6302TIP3    H240398   2.887   6.702  16.613  0.2213  0.3606  1.1529
 6303TIP3   OH240399   3.995   4.087  12.919  0.0156 -0.3418 -0.0781
 6303TIP3    H140400   3.988   3.992  12.911  0.5059 -0.2862 -1.3636
 6303TIP3    H240401   3.924   4.122  12.865 -0.3537  0.0357  0.6310
 6304TIP3   OH240402   6.404   0.345  14.228  0.0545 -0.5451 -0.1397
 6304TIP3    H140403   6.415   0.385  14.142  0.4172  0.6858  0.4573
 6304TIP3    H240404   6.316   0.370  14.255  1.2360  2.3008  1.4141
 6305TIP3   OH240405   5.038   0.390  16.913  0.5283 -0.8394  0.7835
 6305TIP3    H140406   5.026   0.426  17.001  0.7745  1.0519  0.0871
 6305TIP3    H240407   5.080   0.460  16.864  0.4839 -1.8933 -0.8378
 6306TIP3   OH240408   0.316   5.766   0.212 -0.0108  0.2811 -0.3045
 6306TIP3    H140409   0.311   5.686   0.264  1.6510 -0.5709 -1.4007
 6306TIP3    H240410   0.230   5.807   0.224  0.0423 -0.2213  2.5295
 6307TIP3   OH240411   4.122   1.920  13.945  0.3974  0.2369  0.6414
 6307TIP3    H140412   4.162   1.854  13.889  1.1511  0.9467  0.3326
 6307TIP3    H240413   4.140   1.890  14.034 -1.2565 -1.1679  0.5538
 6308TIP3   OH240414   1.142   4.534   1.992  0.2501 -0.0941  0.0821
 6308TIP3    H140415   1.181   4.473   1.930 -1.4201  0.5827 -1.7628
 6308TIP3    H240416   1.198   4.612   1.988 -0.5625  0.4657 -1.7237
 6309TIP3   OH240417   5.124   1.656  13.826 -0.1103  0.2322 -0.1677
 6309TIP3    H140418   5.110   1.637  13.919  0.5542  0.0271 -0.1047
 6309TIP3    H240419   5.043   1.698  13.798 -0.0729  0.8953  0.6646
 6310TIP3   OH240420   6.346   5.124  13.258 -0.6059  0.0384 -0.9341
 6310TIP3    H140421   6.262   5.168  13.269 -0.8665 -0.5929 -0.3845
 6310TIP3    H240422   6.324   5.038  13.221  0.0203  1.0144 -3.8969
 6311TIP3   OH240423   2.192   1.530  11.450 -0.2966  0.2088  0.5219
 6311TIP3    H140424   2.106   1.491  11.461 -0.1193 -0.1428  0.6957
 6311TIP3    H240425   2.235   1.518  11.535 -0.1182  0.4814  0.4723
 6312TIP3   OH240426   2.777   2.711  13.140 -0.0655  0.3037  0.9221
 6312TIP3    H140427   2.827   2.717  13.059 -1.2511 -0.2065  0.1114
 6312TIP3    H240428   2.819   2.641  13.190  0.2556  0.1425  0.4283
 6313TIP3   OH240429   4.264   2.985  11.554  0.1389  0.2177 -0.0868
 6313TIP3    H140430   4.360   2.990  11.555  0.1002  0.9970  0.5452
 6313TIP3    H240431   4.238   3.053  11.491 -0.0554  1.3924  1.2220
 6314TIP3   OH240432   1.877   3.088  16.444  0.3239 -0.1157 -0.5581
 6314TIP3    H140433   1.812   3.154  16.422  0.3241 -0.3127 -1.1846
 6314TIP3    H240434   1.826   3.013  16.475  0.3284  0.2009  0.2280
 6315TIP3   OH240435   4.527   4.803  13.183 -0.1692 -0.1444 -0.3236
 6315TIP3    H140436   4.533   4.797  13.279  1.3451  0.1038 -0.3752
 6315TIP3    H240437   4.470   4.878  13.167  0.3713  0.4431  0.4049
 6316TIP3   OH240438   5.153   1.324  16.791 -0.3245 -0.0817  0.0724
 6316TIP3    H140439   5.189   1.354  16.875 -0.3215  1.8188 -0.5714
 6316TIP3    H240440   5.069   1.369  16.784  0.3967  1.0743 -1.6661
 6317TIP3   OH240441   5.127   5.088  10.707  0.5115  0.3667 -0.1725
 6317TIP3    H140442   5.145   5.177  10.676 -1.6199  1.2094  0.8475
 6317TIP3    H240443   5.084   5.100  10.792  0.5753 -1.6754  0.2012
 6318TIP3   OH240444   4.130   2.257   3.963 -0.1067 -0.0884  0.0016
 6318TIP3    H140445   4.050   2.303   3.986 -0.2586 -0.6350  0.6213
 6318TIP3    H240446   4.197   2.325   3.959 -0.7991  0.5418 -1.6426
 6319TIP3   OH240447   0.354   6.437   0.882  0.2713  0.6439 -0.1308
 6319TIP3    H140448   0.402   6.516   0.906 -0.5913  1.3589 -0.7206
 6319TIP3    H240449   0.380   6.419   0.792  2.4545 -1.2661  0.7543
 6320TIP3   OH240450   4.580   5.096  15.330  0.5238  0.8710  0.3818
 6320TIP3    H140451   4.565   5.185  15.360 -1.1505  1.0189 -0.7947
 6320TIP3    H240452   4.580   5.102  15.235 -0.2128 -0.4586  0.2664
 6321TIP3   OH240453   1.603   5.781   4.471 -0.2118 -0.5823  0.4586
 6321TIP3    H140454   1.565   5.697   4.496 -1.8420  0.6566  2.5485
 6321TIP3    H240455   1.657   5.806   4.546  0.1922  0.2679 -0.1024
 6322TIP3   OH240456   0.223   6.562   0.427 -0.0107  0.3371 -0.1709
 6322TIP3    H140457   0.299   6.563   0.369 -0.0187  0.4817 -0.1809
 6322TIP3    H240458   0.157   6.511   0.381  0.0234  0.3520 -0.2356
 6323TIP3   OH240459   3.476   2.773  16.351  0.2671 -0.5458  0.3696
 6323TIP3    H140460   3.571   2.774  16.360  0.6782 -1.5990 -2.7071
 6323TIP3    H240461   3.458   2.835  16.281 -0.9134 -2.6480 -1.3123
 6324TIP3   OH240462   1.146   3.910  15.407  0.6636  0.3565  0.2990
 6324TIP3    H140463   1.147   4.002  15.377 -0.5684  0.3101  0.0534
 6324TIP3    H240464   1.225   3.872  15.368  0.6921  1.0764 -0.3873
 6325TIP3   OH240465   4.855   0.590   3.200 -0.1485 -0.2713  0.1206
 6325TIP3    H140466   4.763   0.587   3.226 -0.9421  0.0011 -2.3728
 6325TIP3    H240467   4.858   0.541   3.118  2.0533 -0.7412  0.4297
 6326TIP3   OH240468   4.796   3.109   5.273  0.4764 -0.0240 -0.1832
 6326TIP3    H140469   4.804   3.128   5.180 -0.3096  1.6707  0.0571
 6326TIP3    H240470   4.769   3.017   5.276  2.7286 -0.8069 -1.4909
 6327TIP3   OH240471   5.990   5.198   2.938 -0.1420  0.1913 -0.1907
 6327TIP3    H140472   6.043   5.119   2.930  0.1150  0.2413  0.8829
 6327TIP3    H240473   6.045   5.258   2.989 -1.2585  0.2164  1.0255
 6328TIP3   OH240474   4.039   4.734   1.512  0.2104 -0.1233 -0.2954
 6328TIP3    H140475   4.000   4.821   1.507  1.1385  0.3149 -0.1243
 6328TIP3    H240476   4.132   4.749   1.500  0.4451 -1.0346  0.3014
 6329TIP3   OH240477   6.809   1.880  12.502  0.3456 -0.5278  0.2103
 6329TIP3    H140478   6.857   1.920  12.429 -1.0823 -0.0932 -0.5202
 6329TIP3    H240479   6.751   1.949  12.534  0.7042 -0.8153  1.5687
 6330TIP3   OH240480   2.032   4.055  14.423  0.6122  0.6411  0.1021
 6330TIP3    H140481   2.122   4.045  14.456  0.1317  0.3883  1.3882
 6330TIP3    H240482   1.995   3.966  14.427 -0.0456  0.9336  0.6355
 6331TIP3   OH240483   3.158   1.890   3.964 -0.4685 -0.9206 -0.1095
 6331TIP3    H140484   3.132   1.840   4.041 -0.1142 -0.4561  0.3129
 6331TIP3    H240485   3.231   1.841   3.927  1.4716  0.4811  1.6507
 6332TIP3   OH240486   1.055   2.111   0.707  0.6085  0.0966  0.5208
 6332TIP3    H140487   1.053   2.087   0.800 -1.2203  1.1522  0.8080
 6332TIP3    H240488   1.017   2.199   0.704  2.3481  0.8681 -1.0536
 6333TIP3   OH240489   0.616   2.000  16.228  0.1327  0.0695  0.1805
 6333TIP3    H140490   0.555   2.074  16.227 -0.5133 -0.3772  1.7738
 6333TIP3    H240491   0.565   1.928  16.266  1.2537 -0.7137  0.2570
 6334TIP3   OH240492   1.221   2.588  12.020 -0.7414  0.1107 -0.3584
 6334TIP3    H140493   1.135   2.547  12.032 -0.8838  0.9614  1.8922
 6334TIP3    H240494   1.222   2.614  11.928 -3.1017  0.5406 -0.3145
 6335TIP3   OH240495   1.738   2.521   3.766  0.6558 -0.1014  0.7295
 6335TIP3    H140496   1.749   2.552   3.856 -0.1109  0.8639  0.5037
 6335TIP3    H240497   1.657   2.562   3.736  0.8263 -0.5286 -0.3543
 6336TIP3   OH240498   3.638   5.908   9.815 -0.0881  0.3575  0.3994
 6336TIP3    H140499   3.598   5.973   9.873 -3.6386 -2.3475  1.3993
 6336TIP3    H240500   3.565   5.851   9.790  2.0060 -0.9359 -3.6841
 6337TIP3   OH240501   1.083   4.650   5.619  0.0578  0.4087 -0.1744
 6337TIP3    H140502   1.111   4.574   5.670  2.1977  0.5492 -1.0141
 6337TIP3    H240503   1.008   4.619   5.568  1.5733 -1.5502 -1.3682
 6338TIP3   OH240504   5.888   3.885  13.322 -0.1070 -0.1890 -0.3885
 6338TIP3    H140505   5.922   3.907  13.235 -0.8407 -3.1900 -1.5500
 6338TIP3    H240506   5.964   3.889  13.380  0.4738  1.4493 -1.2067
 6339TIP3   OH240507   2.464   4.400   2.285  0.0331  0.3892 -0.2352
 6339TIP3    H140508   2.432   4.489   2.273  1.7810  1.3130  1.5186
 6339TIP3    H240509   2.500   4.376   2.199 -2.0617  0.6071 -1.2477
 6340TIP3   OH240510   2.934   4.417  16.831 -0.0533  0.1922  0.0732
 6340TIP3    H140511   2.851   4.375  16.856  0.0940 -0.4651 -0.5097
 6340TIP3    H240512   3.001   4.353  16.855  0.3454  0.9732  1.1060
 6341TIP3   OH240513   5.069   0.519  12.821 -0.6682 -0.1402 -1.0009
 6341TIP3    H140514   5.008   0.447  12.841  0.7732 -1.8015 -2.2890
 6341TIP3    H240515   5.124   0.525  12.899 -0.4225 -0.8513 -1.1100
 6342TIP3   OH240516   5.260   4.342   3.460  0.2039  0.4720 -0.1728
 6342TIP3    H140517   5.275   4.248   3.469  0.5808  0.6779  1.6210
 6342TIP3    H240518   5.174   4.349   3.419 -0.1734 -0.6528  0.3954
 6343TIP3   OH240519   4.929   3.239   6.045 -0.1536 -0.0671  0.1148
 6343TIP3    H140520   4.953   3.225   6.136  1.4553 -1.3243 -0.4422
 6343TIP3    H240521   4.989   3.308   6.014  0.9116 -1.2504 -0.5567
 6344TIP3   OH240522   1.221   4.880  10.820  0.6367 -0.3151  0.2945
 6344TIP3    H140523   1.301   4.855  10.867  1.7004  0.6836 -0.9325
 6344TIP3    H240524   1.251   4.936  10.749 -1.0346 -0.9377 -0.9682
 6345TIP3   OH240525   1.967   4.522   1.183 -0.0569  0.0800 -0.0355
 6345TIP3    H140526   2.030   4.532   1.254 -1.0426 -2.5014  1.3498
 6345TIP3    H240527   1.916   4.603   1.184  0.0821  0.1964  2.1124
 6346TIP3   OH240528   6.657   3.657  12.392 -1.1771  0.0975 -0.2544
 6346TIP3    H140529   6.590   3.600  12.354  0.8752 -1.0619 -2.3510
 6346TIP3    H240530   6.669   3.625  12.481 -2.6152 -0.3627 -0.2090
 6347TIP3   OH240531   1.201   3.336   3.171  0.4743  0.2899 -0.2638
 6347TIP3    H140532   1.221   3.287   3.091  0.3336 -1.6147  0.8020
 6347TIP3    H240533   1.267   3.404   3.175  0.8256  0.0698 -1.7016
 6348TIP3   OH240534   3.707   0.285  14.196 -0.4947 -0.0752  0.4444
 6348TIP3    H140535   3.781   0.262  14.252  0.1679  2.4354  0.6969
 6348TIP3    H240536   3.746   0.296  14.109 -0.7204  0.4471  0.4078
 6349TIP3   OH240537   2.120   5.336   0.979 -0.3006 -0.6206 -0.2837
 6349TIP3    H140538   2.201   5.339   1.029 -1.1856  0.6131  1.1759
 6349TIP3    H240539   2.114   5.246   0.948  1.8912 -0.6012 -0.9325
 6350TIP3   OH240540   4.802   5.948  14.380  0.3374  0.1785  0.6087
 6350TIP3    H140541   4.871   5.889  14.408 -0.6412 -0.7938  1.0310
 6350TIP3    H240542   4.777   5.996  14.459 -2.8635 -3.0115  1.8047
 6351TIP3   OH240543   0.288   5.135   2.646 -0.6820 -0.1503  0.1460
 6351TIP3    H140544   0.318   5.201   2.709 -3.0536 -0.2219  1.4408
 6351TIP3    H240545   0.355   5.067   2.650 -0.5093  0.0618  2.2890
 6352TIP3   OH240546   3.823   1.090  12.474 -0.3366 -0.4047 -0.0193
 6352TIP3    H140547   3.854   1.167  12.426  1.1558 -0.2690  1.0895
 6352TIP3    H240548   3.729   1.087  12.456  0.1485 -0.5333 -3.1697
 6353TIP3   OH240549   1.004   3.824  14.913 -0.3159  0.6405  0.0401
 6353TIP3    H140550   0.915   3.818  14.948 -0.6729  0.4308 -0.8543
 6353TIP3    H240551   1.008   3.754  14.848  0.2346  1.1628 -0.4988
 6354TIP3   OH240552   2.477   3.722  15.037 -0.2989 -0.0726 -0.4708
 6354TIP3    H140553   2.392   3.680  15.024 -0.7807  0.6726  0.1695
 6354TIP3    H240554   2.486   3.781  14.962 -1.2033  1.1912  0.3583
 6355TIP3   OH240555   4.517   5.770  15.126 -0.3510 -1.0882 -0.0886
 6355TIP3    H140556   4.549   5.856  15.102 -2.9124  0.0331  0.1967
 6355TIP3    H240557   4.585   5.734  15.183  0.5691  0.9297  0.1690
 6356TIP3   OH240558   4.339   0.179   3.223 -0.1074  0.3657 -0.5231
 6356TIP3    H140559   4.412   0.137   3.177  0.0250 -0.2759  0.2226
 6356TIP3    H240560   4.376   0.203   3.308 -1.3699 -2.4184  0.9631
 6357TIP3   OH240561   4.172   5.605   0.997  0.2217 -0.2821 -0.0734
 6357TIP3    H140562   4.157   5.636   0.908  1.7819  1.8808  0.3378
 6357TIP3    H240563   4.261   5.568   0.995 -0.1118 -1.1469  0.3801
 6358TIP3   OH240564   4.375   3.836  11.983  0.2952 -0.0028 -0.0322
 6358TIP3    H140565   4.430   3.819  11.906  0.1601  1.9780 -0.6404
 6358TIP3    H240566   4.433   3.880  12.045 -0.0028 -0.1222  0.3368
 6359TIP3   OH240567   6.491   6.173   0.729 -0.5596 -0.0344 -0.1244
 6359TIP3    H140568   6.542   6.213   0.799  0.2239  1.6078 -1.5598
 6359TIP3    H240569   6.535   6.200   0.649 -0.6859 -2.8913 -1.2616
 6360TIP3   OH240570   5.221   4.558   4.360  0.5726  0.5617  0.2407
 6360TIP3    H140571   5.200   4.639   4.314  3.2150  1.2569  0.0879
 6360TIP3    H240572   5.256   4.587   4.445  0.6136 -0.4627  0.5890
 6361TIP3   OH240573   4.757   2.339   3.781  0.2967 -0.0833 -0.6411
 6361TIP3    H140574   4.799   2.267   3.828  1.4367  2.0678  1.8650
 6361TIP3    H240575   4.827   2.378   3.729 -0.2730 -0.6116 -1.8389
 6362TIP3   OH240576   5.914   2.275   4.190 -0.0007  0.3243 -0.1853
 6362TIP3    H140577   5.976   2.254   4.119  1.5752 -0.3274  1.3198
 6362TIP3    H240578   5.829   2.249   4.156  0.8397 -0.8798 -1.4807
 6363TIP3   OH240579   2.265   2.955  12.056  0.0999 -0.1293 -0.3131
 6363TIP3    H140580   2.268   3.033  12.110 -0.6059 -0.4192  0.1534
 6363TIP3    H240581   2.274   2.882  12.118  1.2229 -0.4227 -0.7833
 6364TIP3   OH240582   4.749   3.616   4.260  0.0361  0.2255  0.7077
 6364TIP3    H140583   4.705   3.586   4.339 -0.6469 -0.3900  0.1140
 6364TIP3    H240584   4.843   3.602   4.277 -0.1547 -0.5705  1.1408
 6365TIP3   OH240585   3.706   5.473  12.193  0.3250 -0.0440  0.3233
 6365TIP3    H140586   3.744   5.560  12.200  1.3825 -0.5451  1.1195
 6365TIP3    H240587   3.752   5.421  12.260  1.2941 -1.7555 -1.5496
 6366TIP3   OH240588   3.421   4.141  15.070  0.3962  0.1143  0.4057
 6366TIP3    H140589   3.345   4.198  15.063  0.9332  0.6392 -2.0224
 6366TIP3    H240590   3.496   4.200  15.068  0.9258 -0.5460 -1.0450
 6367TIP3   OH240591   5.028   1.888   5.039 -0.3112 -0.3989  0.1048
 6367TIP3    H140592   4.997   1.972   5.005  1.2523  0.7313  1.3238
 6367TIP3    H240593   5.073   1.910   5.120 -1.2378 -2.6304  1.2996
 6368TIP3   OH240594   6.705   6.256   3.237  0.2854 -0.3009  0.2580
 6368TIP3    H140595   6.776   6.193   3.228  0.1491 -0.4097 -0.0824
 6368TIP3    H240596   6.748   6.338   3.261  0.4075 -0.6784  1.4274
 6369TIP3   OH240597   3.569   2.396  14.969 -0.5733 -0.1910  0.1281
 6369TIP3    H140598   3.504   2.416  14.901  0.8940 -0.3523 -1.3774
 6369TIP3    H240599   3.622   2.475  14.975  0.3163 -0.7619 -0.0962
 6370TIP3   OH240600   2.846   6.756  10.804  0.5399 -0.2403  0.1868
 6370TIP3    H140601   2.941   6.748  10.791  0.2777 -1.0061 -1.5115
 6370TIP3    H240602   2.809   6.683  10.754 -0.9422 -0.0552  0.9734
 6371TIP3   OH240603   2.634   4.954   2.254  0.7801 -0.0686  0.2347
 6371TIP3    H140604   2.618   4.948   2.348  0.0025  0.1520  0.1285
 6371TIP3    H240605   2.709   5.013   2.246  0.7687  0.0155  0.7102
 6372TIP3   OH240606   5.001   1.670   1.255 -0.0237  0.1785  0.3579
 6372TIP3    H140607   5.071   1.718   1.298 -0.1681  0.4270  0.3204
 6372TIP3    H240608   4.931   1.735   1.243  0.1675  0.2187 -0.6250
 6373TIP3   OH240609   5.693   5.793  11.432 -0.3813  0.2773 -0.4139
 6373TIP3    H140610   5.713   5.704  11.463  1.6499 -0.1086 -2.4709
 6373TIP3    H240611   5.629   5.827  11.493  1.8563 -1.0546  2.9497
 6374TIP3   OH240612   0.914   5.224  14.582  0.6652  0.0333  0.3824
 6374TIP3    H140613   0.922   5.141  14.534 -3.0047 -0.5300  0.4588
 6374TIP3    H240614   0.979   5.281  14.541 -0.3738 -1.2418 -3.5669
 6375TIP3   OH240615   5.085   0.871  12.597 -0.2516  0.4681  0.1885
 6375TIP3    H140616   5.137   0.851  12.675 -0.5228  0.5685  0.3975
 6375TIP3    H240617   5.115   0.808  12.532 -1.4392 -0.9663  0.9777
 6376TIP3   OH240618   4.244   4.673  16.675  0.1757 -0.7297  0.0989
 6376TIP3    H140619   4.258   4.764  16.648  1.0708 -1.3489 -1.7247
 6376TIP3    H240620   4.179   4.640  16.613  0.0094 -1.3950  0.6141
 6377TIP3   OH240621   3.781   1.134  12.834 -1.1267 -0.3202  0.1200
 6377TIP3    H140622   3.815   1.217  12.869 -0.3249 -0.7122  0.2873
 6377TIP3    H240623   3.791   1.072  12.906  0.9963 -1.2609 -0.8888
 6378TIP3   OH240624   5.226   6.009  15.892 -0.6898 -0.5380  0.1008
 6378TIP3    H140625   5.258   5.965  15.813 -1.9744  0.2887 -0.9148
 6378TIP3    H240626   5.280   5.973  15.963 -0.1620 -2.0213 -1.0051
 6379TIP3   OH240627   0.981   1.931  11.219  0.4415 -0.6637  0.4775
 6379TIP3    H140628   0.954   2.010  11.172 -0.0953 -0.2823  1.4111
 6379TIP3    H240629   0.954   1.859  11.162 -0.0081 -0.2017  0.0988
 6380TIP3   OH240630   1.663   1.306   1.979  0.5628 -0.1619 -0.3756
 6380TIP3    H140631   1.647   1.212   1.986  0.1773 -0.3552 -2.7245
 6380TIP3    H240632   1.592   1.347   2.028  0.1163 -1.1065 -0.2135
 6381TIP3   OH240633   5.355   6.717  13.734  0.6856  0.0216  0.0053
 6381TIP3    H140634   5.352   6.642  13.792 -0.2328 -0.5559 -0.7607
 6381TIP3    H240635   5.409   6.688  13.660  2.0293  0.8214  0.6336
 6382TIP3   OH240636   6.108   3.361  13.879 -0.0297 -0.1927 -0.3559
 6382TIP3    H140637   6.183   3.421  13.886 -0.7551  0.8990 -1.4732
 6382TIP3    H240638   6.055   3.398  13.809 -2.9135  0.5490  1.9993
 6383TIP3   OH240639   0.541   5.865   5.864  0.2564 -0.5695 -0.0636
 6383TIP3    H140640   0.557   5.818   5.946  0.5059 -2.3662 -1.0828
 6383TIP3    H240641   0.627   5.872   5.823  0.6485  2.9104  1.0471
 6384TIP3   OH240642   4.153   1.864   5.124  0.6894  0.0591  0.0482
 6384TIP3    H140643   4.115   1.940   5.081 -0.0563  0.3461  1.1875
 6384TIP3    H240644   4.111   1.861   5.210  0.4602 -1.8181 -0.0876
 6385TIP3   OH240645   5.867   5.098   5.845  0.4588  0.1097 -1.1078
 6385TIP3    H140646   5.877   5.160   5.917 -1.3599  1.6387 -2.0495
 6385TIP3    H240647   5.784   5.054   5.863  0.9231 -0.8773 -1.3185
 6386TIP3   OH240648   4.856   2.189   5.685 -0.0662 -0.2168 -0.3751
 6386TIP3    H140649   4.820   2.131   5.752 -0.5562  0.1436 -0.3199
 6386TIP3    H240650   4.942   2.153   5.666 -0.1793 -0.6934 -0.0083
 6387TIP3   OH240651   3.907   3.335   2.141 -0.3082 -0.2402  0.2731
 6387TIP3    H140652   3.926   3.396   2.212  1.5548 -2.1466  1.5104
 6387TIP3    H240653   3.982   3.341   2.083 -1.3209  0.4884 -1.0312
 6388TIP3   OH240654   6.323   0.658  16.683  0.1264  0.3078 -0.2318
 6388TIP3    H140655   6.336   0.663  16.588 -2.5330  1.1695 -0.6169
 6388TIP3    H240656   6.251   0.596  16.695  0.4424  0.1828  1.2353
 6389TIP3   OH240657   1.389   3.062   3.438  0.2095 -0.7119 -0.3667
 6389TIP3    H140658   1.312   3.038   3.386  0.2439  1.3129 -1.4653
 6389TIP3    H240659   1.445   3.111   3.377  0.6597  1.0125  1.3358
 6390TIP3   OH240660   0.060   5.861   0.217 -0.0775  0.4557  0.0745
 6390TIP3    H140661   0.031   5.837   0.129 -1.4998 -0.3342  0.7288
 6390TIP3    H240662   0.005   5.809   0.276  0.8656  0.9442  1.4367
 6391TIP3   OH240663   1.294   1.320  12.246 -0.4967 -0.6913  0.3443
 6391TIP3    H140664   1.347   1.379  12.193 -1.7177 -0.9823 -1.3050
 6391TIP3    H240665   1.215   1.370  12.266 -0.8582 -1.2197  0.2609
 6392TIP3   OH240666   1.380   4.345  12.754  0.0140  0.2171  0.0365
 6392TIP3    H140667   1.358   4.253  12.737 -2.5265  0.9065 -0.9109
 6392TIP3    H240668   1.352   4.360  12.844  0.2094  0.1357  0.1124
 6393TIP3   OH240669   1.662   3.658  11.957 -0.4874 -0.0962  0.5748
 6393TIP3    H140670   1.715   3.615  12.025 -2.6487  1.2551  3.3269
 6393TIP3    H240671   1.590   3.597  11.941  1.0664 -1.3634 -2.2301
 6394TIP3   OH240672   0.601   2.234  10.898 -0.2051 -0.0059 -0.2694
 6394TIP3    H140673   0.592   2.143  10.872 -0.5508  0.2289 -0.9848
 6394TIP3    H240674   0.524   2.278  10.860 -0.0494  0.5765  0.0775
 6395TIP3   OH240675   4.881   2.846  13.960  0.3593  0.0451  0.1271
 6395TIP3    H140676   4.908   2.823  13.871  1.2106  0.1600  0.3506
 6395TIP3    H240677   4.958   2.829  14.014  0.6778  2.3990  0.4777
 6396TIP3   OH240678   1.796   0.953  15.150  0.1071  0.0701 -0.5518
 6396TIP3    H140679   1.779   0.860  15.135 -0.8247 -0.0602  1.0766
 6396TIP3    H240680   1.719   0.998  15.116 -0.2177  0.0945  0.2058
 6397TIP3   OH240681   4.571   2.379   2.887  0.4557 -0.6266  0.4568
 6397TIP3    H140682   4.647   2.412   2.839  0.5213 -0.6104  0.5703
 6397TIP3    H240683   4.534   2.456   2.930  0.6410 -0.7081  0.7676
 6398TIP3   OH240684   1.354   3.786  12.206 -0.1490 -0.1779  0.5145
 6398TIP3    H140685   1.275   3.751  12.245  0.3469 -1.1622  0.6599
 6398TIP3    H240686   1.402   3.824  12.279 -0.0599 -0.3971  0.5684
 6399TIP3   OH240687   3.158   3.545  16.361  0.2866 -0.5641  0.1541
 6399TIP3    H140688   3.185   3.634  16.341  0.4369 -0.6283  0.0759
 6399TIP3    H240689   3.239   3.499  16.382  0.1713 -0.5949  0.5307
 6400TIP3   OH240690   1.277   4.788  15.950 -0.2392  0.2695 -0.2621
 6400TIP3    H140691   1.200   4.762  15.899 -1.3249 -0.2625  1.5741
 6400TIP3    H240692   1.258   4.879  15.975 -0.6914 -0.1203  0.8753
 6401TIP3   OH240693   0.988   6.353   6.353 -0.5577 -0.5872 -0.6825
 6401TIP3    H140694   0.975   6.258   6.350 -0.1139 -0.6717 -0.1330
 6401TIP3    H240695   1.079   6.364   6.381 -0.6472 -0.0003 -0.6008
 6402TIP3   OH240696   4.492   0.702   5.374  0.3628  0.1347 -0.1946
 6402TIP3    H140697   4.487   0.760   5.449  0.8452  1.6748 -1.3013
 6402TIP3    H240698   4.424   0.636   5.390 -0.4152  1.1755  0.9598
 6403TIP3   OH240699   4.100   6.051   5.591 -0.5826 -0.2766 -0.2876
 6403TIP3    H140700   4.109   6.146   5.582 -0.7617 -0.2494 -0.1799
 6403TIP3    H240701   4.104   6.018   5.501 -2.0000 -0.0314 -0.4575
 6404TIP3   OH240702   5.909   5.777  16.615  0.1268  0.1156 -0.1586
 6404TIP3    H140703   5.850   5.793  16.688 -1.2506  0.7230 -1.3598
 6404TIP3    H240704   5.855   5.787  16.537  1.8363  0.7578 -1.3267
 6405TIP3   OH240705   0.497   1.236   1.036  0.1092  0.2618 -0.0883
 6405TIP3    H140706   0.543   1.212   0.955 -2.6349  1.4034 -2.1476
 6405TIP3    H240707   0.557   1.297   1.079  2.2925 -1.5140 -0.4120
 6406TIP3   OH240708   5.751   0.834  15.607 -0.6410 -0.0227 -0.0537
 6406TIP3    H140709   5.688   0.870  15.669 -0.4303 -3.0764  2.1670
 6406TIP3    H240710   5.711   0.752  15.577 -0.1867  0.7443 -3.1575
 6407TIP3   OH240711   6.331   2.376   4.160 -0.1903  0.4487  0.2487
 6407TIP3    H140712   6.386   2.387   4.083  1.2586 -0.6672  1.0625
 6407TIP3    H240713   6.256   2.324   4.130 -0.6829  1.7333 -0.8076
 6408TIP3   OH240714   5.274   4.622  15.959 -0.1460  0.2830  0.4202
 6408TIP3    H140715   5.196   4.643  15.907 -0.2760  1.5012  1.0594
 6408TIP3    H240716   5.253   4.541  16.004 -1.1458  0.7079  0.7401
 6409TIP3   OH240717   1.567   1.773   1.805  0.6677 -0.1684 -0.2305
 6409TIP3    H140718   1.546   1.681   1.790 -0.7591  0.1839 -0.5240
 6409TIP3    H240719   1.637   1.771   1.871  1.5724 -1.4874 -1.1627
 6410TIP3   OH240720   2.145   4.279  12.416  0.2278  0.3104  0.1136
 6410TIP3    H140721   2.078   4.267  12.484 -1.3178  3.6423 -0.5897
 6410TIP3    H240722   2.199   4.352  12.448  1.0324  0.2970 -1.1294
 6411TIP3   OH240723   2.073   1.009   4.256  0.3612  0.0446 -0.0131
 6411TIP3    H140724   2.166   1.017   4.276  0.3438  0.4359 -0.0830
 6411TIP3    H240725   2.071   0.956   4.175  0.4864 -0.5148  0.3422
 6412TIP3   OH240726   5.866   2.714   0.710 -0.6116 -0.0179 -0.1717
 6412TIP3    H140727   5.877   2.716   0.615 -1.5071 -0.5516 -0.2953
 6412TIP3    H240728   5.841   2.803   0.733  1.9004  0.7709 -0.1027
 6413TIP3   OH240729   0.683   2.463  13.275 -0.3046  0.7055  1.0597
 6413TIP3    H140730   0.743   2.520  13.324  0.1748 -0.1297  1.4789
 6413TIP3    H240731   0.616   2.522  13.241  1.1686  1.8048 -0.0891
 6414TIP3   OH240732   3.895   5.164   3.929 -0.2004  0.2658  0.8700
 6414TIP3    H140733   3.960   5.094   3.921  0.2165  0.4606  2.3024
 6414TIP3    H240734   3.847   5.143   4.010 -0.1378  1.5763  1.2646
 6415TIP3   OH240735   3.623   1.755  11.736  0.1388 -0.3031 -0.2888
 6415TIP3    H140736   3.610   1.682  11.676 -0.9238 -0.1947 -0.2126
 6415TIP3    H240737   3.633   1.713  11.822 -0.6338 -0.3649 -0.2204
 6416TIP3   OH240738   6.056   5.785  16.846  0.1388  0.0992  0.0311
 6416TIP3    H140739   5.992   5.755  16.782  1.4022 -1.2027 -0.6583
 6416TIP3    H240740   6.133   5.730  16.833  0.9992  0.8174  1.6406
 6417TIP3   OH240741   6.548   4.875  16.737 -0.0575 -0.0479 -0.7708
 6417TIP3    H140742   6.470   4.923  16.710 -2.2411 -2.8090  0.1017
 6417TIP3    H240743   6.559   4.897  16.830  0.0262  0.1162 -0.8189
 6418TIP3   OH240744   1.714   2.942  16.734  0.7312 -0.8120 -0.3883
 6418TIP3    H140745   1.732   3.033  16.711  2.3435 -1.1254 -0.5198
 6418TIP3    H240746   1.679   2.904  16.653 -2.4312  0.2376  0.3638
 6419TIP3   OH240747   6.223   3.286  12.524  0.5098  0.0455  0.8678
 6419TIP3    H140748   6.288   3.229  12.482  0.7567  0.4484  0.6975
 6419TIP3    H240749   6.172   3.227  12.579 -0.3574 -0.6434 -0.6256
 6420TIP3   OH240750   6.289   0.413  16.225  0.0220  0.1468  0.3139
 6420TIP3    H140751   6.205   0.443  16.191 -0.1219  0.9249  1.2765
 6420TIP3    H240752   6.277   0.321  16.245 -1.2375  0.6717  2.2132
 6421TIP3   OH240753   3.184   6.022  16.266  0.0188 -0.1751  0.0051
 6421TIP3    H140754   3.199   5.934  16.301  0.1155  0.0123  0.4468
 6421TIP3    H240755   3.213   6.017  16.175 -0.8218 -0.8442 -0.2405
 6422TIP3   OH240756   6.201   4.208   1.802  0.0019 -0.3909  0.0607
 6422TIP3    H140757   6.274   4.177   1.855 -1.9195 -1.8858  2.0337
 6422TIP3    H240758   6.176   4.292   1.841  2.5694  1.8989 -2.6873
 6423TIP3   OH240759   1.005   3.583  13.263  0.1681  0.2029  0.6629
 6423TIP3    H140760   0.962   3.601  13.346 -0.2148 -1.2981  0.8217
 6423TIP3    H240761   1.040   3.494  13.273 -0.8431 -0.4566 -1.1395
 6424TIP3   OH240762   6.349   1.319   5.332 -0.1051 -0.2792 -0.4919
 6424TIP3    H140763   6.360   1.408   5.365  0.1975  0.3343 -2.1911
 6424TIP3    H240764   6.434   1.295   5.298 -0.6519 -0.4982 -1.7477
 6425TIP3   OH240765   0.327   0.084   1.999  0.0066 -0.1004 -0.8401
 6425TIP3    H140766   0.402   0.039   2.039 -1.0685  1.5435  3.6516
 6425TIP3    H240767   0.362   0.169   1.973  0.3045 -0.4404 -1.5661
 6426TIP3   OH240768   4.046   3.479   1.477  0.4749 -0.2799  0.0547
 6426TIP3    H140769   4.103   3.556   1.479  1.3680 -0.7954 -2.4045
 6426TIP3    H240770   3.962   3.513   1.444  1.4223 -0.5581 -2.9194
 6427TIP3   OH240771   0.367   5.958  12.405 -0.1926  0.2077  0.1782
 6427TIP3    H140772   0.415   6.032  12.441  2.3186 -1.8026  1.3668
 6427TIP3    H240773   0.275   5.976  12.424  0.0913  3.7383 -1.1494
 6428TIP3   OH240774   2.067   2.959   4.631 -0.4947 -0.2031 -0.0592
 6428TIP3    H140775   2.095   2.941   4.721  2.5659 -3.5616 -1.4240
 6428TIP3    H240776   2.111   3.041   4.609  0.1624 -0.2481  0.9809
 6429TIP3   OH240777   2.844   2.887  13.705  0.1019  0.7748 -0.0256
 6429TIP3    H140778   2.852   2.860  13.614 -0.6563 -0.3643  0.2311
 6429TIP3    H240779   2.879   2.976  13.707  1.1690  0.4028 -1.2097
 6430TIP3   OH240780   6.325   6.379  10.978  0.2295 -0.0198 -0.3858
 6430TIP3    H140781   6.396   6.342  11.030 -0.4880  1.4445  1.7742
 6430TIP3    H240782   6.364   6.456  10.936 -0.3653  1.8143  2.1753
 6431TIP3   OH240783   5.642   2.767   2.624 -0.1821  0.2888  0.0638
 6431TIP3    H140784   5.623   2.743   2.533  2.5235  3.0204 -1.4073
 6431TIP3    H240785   5.556   2.768   2.667 -1.3500 -2.8096 -1.9206
 6432TIP3   OH240786   1.502   2.143   2.397 -0.4102 -0.0623 -0.4513
 6432TIP3    H140787   1.474   2.098   2.318 -2.0632  0.8831 -0.4628
 6432TIP3    H240788   1.548   2.221   2.365 -0.2067 -0.1922 -0.4729
 6433TIP3   OH240789   3.421   3.888  15.932 -0.4851  0.7770 -0.4535
 6433TIP3    H140790   3.492   3.940  15.895  0.6720 -0.1932  0.3073
 6433TIP3    H240791   3.426   3.904  16.026 -0.3045 -0.4218 -0.2352
 6434TIP3   OH240792   1.461   2.661  15.704 -0.1556  0.0127  0.3885
 6434TIP3    H140793   1.516   2.722  15.753  0.3687  0.8728 -1.2083
 6434TIP3    H240794   1.478   2.576  15.744 -0.8971  0.8563  2.6562
 6435TIP3   OH240795   3.727   2.738  16.932  0.5026 -0.2976 -0.0647
 6435TIP3    H140796   3.683   2.733  17.017  1.2223  1.7785  0.4877
 6435TIP3    H240797   3.820   2.732  16.952  0.6855  0.3397 -0.6922
 6436TIP3   OH240798   3.436   1.959  16.288 -0.4621  0.0957  0.1982
 6436TIP3    H140799   3.364   1.930  16.343 -1.3645 -0.3576 -1.1854
 6436TIP3    H240800   3.472   1.879  16.251 -0.7251  0.4782 -0.9095
 6437TIP3   OH240801   0.447   0.203  13.413 -0.1147  0.1535  0.0549
 6437TIP3    H140802   0.468   0.201  13.506 -0.7229 -1.4392  0.1780
 6437TIP3    H240803   0.355   0.229  13.410 -0.0393  0.4060 -0.1208
 6438TIP3   OH240804   1.869   3.344   7.897 -0.8470 -0.3780  0.0887
 6438TIP3    H140805   1.906   3.291   7.826 -0.1367 -0.9188  0.8491
 6438TIP3    H240806   1.879   3.290   7.975 -0.4194  0.7355  0.8290
 6439TIP3   OH240807   0.680   1.227  12.297  0.0763  0.4605 -0.1236
 6439TIP3    H140808   0.591   1.217  12.330 -0.0602  0.1473 -0.5730
 6439TIP3    H240809   0.731   1.256  12.372 -0.2682 -0.0580  0.3192
 6440TIP3   OH240810   6.695   4.680  11.176 -0.3260  0.3605  0.2105
 6440TIP3    H140811   6.751   4.693  11.100  0.8216  1.2531  1.1662
 6440TIP3    H240812   6.671   4.587  11.173  0.8667  0.0545 -0.4572
 6441TIP3   OH240813   2.513   5.360   1.998  0.0547  0.3206  0.3686
 6441TIP3    H140814   2.535   5.349   1.906 -0.0513  1.6610  0.1531
 6441TIP3    H240815   2.427   5.319   2.008 -0.4540  1.1390 -0.4167
 6442TIP3   OH240816   2.814   4.175   4.385 -0.0106 -0.0428 -0.1316
 6442TIP3    H140817   2.810   4.091   4.432 -0.6867 -0.7261 -1.3528
 6442TIP3    H240818   2.797   4.152   4.294  2.8820  0.9979 -1.0679
 6443TIP3   OH240819   1.903   2.376   5.624  0.7960 -0.1740  0.2735
 6443TIP3    H140820   1.887   2.384   5.718 -0.0583 -0.8647  0.1995
 6443TIP3    H240821   1.873   2.288   5.602 -0.3068  0.4525 -0.8872
 6444TIP3   OH240822   3.892   2.703   2.499  0.4865  1.0182  0.4938
 6444TIP3    H140823   3.955   2.643   2.539  0.5386  0.4279 -0.4635
 6444TIP3    H240824   3.806   2.668   2.524  0.5231  0.9834  0.5715
 6445TIP3   OH240825   3.406   1.819  10.735 -0.0811  0.3474  0.2388
 6445TIP3    H140826   3.335   1.882  10.748 -0.2321  0.0361  0.9901
 6445TIP3    H240827   3.421   1.782  10.822 -1.4729 -2.2371 -0.5162
 6446TIP3   OH240828   1.000   5.131  10.729 -0.3161  0.4180 -0.1400
 6446TIP3    H140829   1.017   5.216  10.770 -0.5053  0.2442  0.2997
 6446TIP3    H240830   1.075   5.116  10.672 -0.0293  0.6320  0.1835
 6447TIP3   OH240831   5.832   3.962  16.817 -0.4043 -0.3398 -0.1577
 6447TIP3    H140832   5.873   3.892  16.767 -0.7537 -0.6611  0.0030
 6447TIP3    H240833   5.906   4.013  16.852 -0.0141 -2.3630  2.2394
 6448TIP3   OH240834   1.979   5.204  16.824  1.2138 -0.5229  0.6004
 6448TIP3    H140835   2.041   5.245  16.764  1.1386 -1.6122 -0.2655
 6448TIP3    H240836   2.006   5.112  16.827  0.3127 -0.7822  1.0678
 6449TIP3   OH240837   0.910   6.364  16.224  0.0261  0.1504  0.0869
 6449TIP3    H140838   0.818   6.337  16.230  0.4715 -1.3187  0.7654
 6449TIP3    H240839   0.948   6.340  16.309  1.5240 -1.3022 -0.9127
 6450TIP3   OH240840   1.845   4.377   3.509 -0.1645  0.3894 -0.0396
 6450TIP3    H140841   1.811   4.288   3.512  0.1302  0.2626 -0.3867
 6450TIP3    H240842   1.845   4.406   3.600  0.9192 -0.4154  0.2326
 6451TIP3   OH240843   2.933   5.649   6.006  0.1694 -0.2517 -0.2166
 6451TIP3    H140844   2.993   5.574   6.009 -1.1484 -1.4464 -1.8190
 6451TIP3    H240845   2.974   5.710   5.945  0.0143 -0.8265 -0.9030
 6452TIP3   OH240846   2.403   2.718  14.351 -0.2419  0.0547  0.1536
 6452TIP3    H140847   2.328   2.670  14.315  1.6864 -1.3356 -2.2987
 6452TIP3    H240848   2.413   2.793  14.293  1.5534 -1.0165 -1.0492
 6453TIP3   OH240849   6.461   1.940   5.686 -0.7152 -0.1203 -0.5473
 6453TIP3    H140850   6.387   1.999   5.702 -0.3562  0.0204  0.7568
 6453TIP3    H240851   6.495   1.921   5.774 -0.2660 -1.5494 -0.9975
 6454TIP3   OH240852   2.587   2.787   0.060  0.8832 -0.1684 -0.6335
 6454TIP3    H140853   2.518   2.721   0.058  1.3741 -0.6790 -0.8130
 6454TIP3    H240854   2.626   2.785  -0.027  0.5331  0.7575 -0.8191
 6455TIP3   OH240855   1.544   6.733   2.501  0.2788 -0.2943 -0.3875
 6455TIP3    H140856   1.512   6.820   2.478  0.8094 -0.3246 -1.2564
 6455TIP3    H240857   1.586   6.744   2.587 -0.7686  0.0302  0.1062
 6456TIP3   OH240858   0.769   6.397   4.730 -0.3437  0.3206  0.2040
 6456TIP3    H140859   0.734   6.428   4.646  0.0548 -1.0343 -0.4929
 6456TIP3    H240860   0.863   6.386   4.715 -0.4433 -1.0874  0.4166
 6457TIP3   OH240861   0.905   0.584   1.579 -0.0804  0.0514  0.2996
 6457TIP3    H140862   0.881   0.676   1.562 -2.0544 -0.5438 -0.4440
 6457TIP3    H240863   0.890   0.540   1.495 -0.6327 -1.2078  1.0286
 6458TIP3   OH240864   4.345   6.743  15.684  0.0494 -0.4598  0.3657
 6458TIP3    H140865   4.314   6.739  15.774 -0.8195  1.8961  0.2409
 6458TIP3    H240866   4.438   6.766  15.691 -0.7135  3.0704  0.7604
 6459TIP3   OH240867   0.245   6.339  12.421 -0.2645 -0.1297 -0.2195
 6459TIP3    H140868   0.333   6.308  12.440  0.2217  1.4212  0.2320
 6459TIP3    H240869   0.257   6.411  12.360 -1.4775 -1.7627 -2.5673
 6460TIP3   OH240870   3.959   4.649   6.351 -0.8268  0.0507  0.6299
 6460TIP3    H140871   4.053   4.656   6.363 -0.4767  1.0049 -1.9591
 6460TIP3    H240872   3.925   4.737   6.364 -0.9571  0.2590 -0.8820
 6461TIP3   OH240873   1.058   1.016   5.765 -0.3442  0.1262  0.4479
 6461TIP3    H140874   1.043   1.034   5.672 -1.3501  1.2392  0.8039
 6461TIP3    H240875   1.127   1.079   5.790 -0.6502  0.3916  0.6346
 6462TIP3   OH240876   1.307   4.922  15.625  0.0941 -0.3750 -0.0052
 6462TIP3    H140877   1.342   4.949  15.540  0.3605 -0.9448 -0.0837
 6462TIP3    H240878   1.216   4.898  15.607  0.0524 -0.1676 -0.0653
 6463TIP3   OH240879   5.151   0.968  15.980  0.3502  0.5046 -0.3936
 6463TIP3    H140880   5.167   0.874  15.983 -0.8647  0.2396 -1.2463
 6463TIP3    H240881   5.227   1.004  15.935 -0.1761 -0.3779 -2.0839
 6464TIP3   OH240882   2.292   4.308  15.330  0.1538  0.3016  0.4041
 6464TIP3    H140883   2.306   4.329  15.422  1.2499 -0.5392  0.4405
 6464TIP3    H240884   2.373   4.334  15.287 -0.3949  0.8056 -0.3611
 6465TIP3   OH240885   0.208   1.219   3.211 -0.0966  0.4423 -0.3566
 6465TIP3    H140886   0.143   1.244   3.277 -0.4503 -0.1749 -0.4594
 6465TIP3    H240887   0.159   1.215   3.129  0.2129  0.6135 -0.5494
 6466TIP3   OH240888   5.566   4.704   2.385 -0.5334 -0.3344 -0.1731
 6466TIP3    H140889   5.477   4.736   2.398  0.2429  1.3216  1.3838
 6466TIP3    H240890   5.564   4.664   2.298 -1.5995  4.1993 -2.5433
 6467TIP3   OH240891   0.632   6.044  10.785  1.0772 -0.1531 -0.4285
 6467TIP3    H140892   0.646   5.977  10.718  0.3648 -0.1366 -0.5973
 6467TIP3    H240893   0.563   6.009  10.840  1.5907 -0.1218  0.2534
 6468TIP3   OH240894   2.743   6.061   3.071 -0.2094 -0.3664  0.1695
 6468TIP3    H140895   2.719   6.094   3.157 -0.9930  3.3147 -1.2924
 6468TIP3    H240896   2.808   6.123   3.038  2.5496 -3.4481 -0.7486
 6469TIP3   OH240897   2.630   2.734   3.906 -0.6864  0.5242  0.1716
 6469TIP3    H140898   2.561   2.748   3.841  0.0289  2.3847 -0.2621
 6469TIP3    H240899   2.691   2.674   3.863 -1.0911  0.3618 -0.1859
 6470TIP3   OH240900   0.729   0.948   4.266 -0.0802 -0.0762 -0.0205
 6470TIP3    H140901   0.802   0.946   4.329  0.0665 -1.3630 -0.1992
 6470TIP3    H240902   0.720   0.857   4.238  0.2124  0.5459 -2.2888
 6471TIP3   OH240903   4.139   5.402  14.968  0.3082  0.3987  0.2228
 6471TIP3    H140904   4.185   5.485  14.985  1.9780 -0.2588 -0.7636
 6471TIP3    H240905   4.072   5.425  14.904 -0.3625  1.2813  1.2132
 6472TIP3   OH240906   0.801   5.754   4.703 -0.1752 -0.5511 -0.1102
 6472TIP3    H140907   0.749   5.679   4.675  0.5595 -1.1073  0.0062
 6472TIP3    H240908   0.766   5.776   4.789 -0.9889 -0.1848 -0.5155
 6473TIP3   OH240909   6.586   1.535  13.239 -0.7380 -0.2647  0.1900
 6473TIP3    H140910   6.533   1.521  13.318  0.3541 -1.2004  0.7841
 6473TIP3    H240911   6.654   1.468  13.244  0.2402  0.6288 -0.7886
 6474TIP3   OH240912   0.842   5.242   1.257 -0.9032  0.3309 -0.7719
 6474TIP3    H140913   0.752   5.265   1.281 -0.8399  0.2077 -0.4104
 6474TIP3    H240914   0.838   5.148   1.238 -0.8855  0.3609 -0.9235
 6475TIP3   OH240915   5.770   2.989   2.688 -0.0417 -0.4013  0.1654
 6475TIP3    H140916   5.700   3.053   2.671 -0.8721 -1.0816  0.9189
 6475TIP3    H240917   5.730   2.904   2.669  0.7951 -0.7547 -0.0371
 6476TIP3   OH240918   5.541   3.889   2.436 -0.0643 -0.2412 -0.0234
 6476TIP3    H140919   5.560   3.939   2.356  0.5808 -0.1055  0.2013
 6476TIP3    H240920   5.521   3.956   2.502 -0.2857 -0.3341  0.0029
 6477TIP3   OH240921   5.807   2.397  16.944 -0.3711  0.2713  1.3337
 6477TIP3    H140922   5.856   2.397  17.026  0.6558  1.7484  0.7805
 6477TIP3    H240923   5.875   2.402  16.876 -1.2394  2.0074  0.5160
 6478TIP3   OH240924   1.373   5.095  11.896 -0.0865 -0.4934 -0.0473
 6478TIP3    H140925   1.352   5.101  11.803 -0.0939 -1.4134 -0.1140
 6478TIP3    H240926   1.314   5.028  11.929 -0.9750  0.7042  0.8955
 6479TIP3   OH240927   3.868   5.735  13.876 -0.1302 -0.5806 -0.3625
 6479TIP3    H140928   3.795   5.794  13.895  0.3385  0.1129 -0.7055
 6479TIP3    H240929   3.923   5.782  13.814  0.0991 -1.4986 -0.8803
 6480TIP3   OH240930   1.493   2.315   4.693 -0.1447 -0.2411 -0.0900
 6480TIP3    H140931   1.454   2.245   4.746  1.6449 -1.5531 -0.4254
 6480TIP3    H240932   1.568   2.274   4.651 -0.2525  1.3394 -1.9635
 6481TIP3   OH240933   0.946   5.502   0.690  0.1667  0.1829 -0.2923
 6481TIP3    H140934   0.892   5.528   0.615 -0.9274  2.6083  1.2204
 6481TIP3    H240935   0.883   5.468   0.754  1.0092 -1.1890 -0.1453
 6482TIP3   OH240936   6.662   6.689  11.229 -0.4936  0.1024  0.2694
 6482TIP3    H140937   6.709   6.717  11.307 -0.7941 -0.0857  0.5193
 6482TIP3    H240938   6.721   6.711  11.157 -0.2115  0.2698  0.5473
 6483TIP3   OH240939   1.655   5.286   4.448 -0.3258 -0.4913 -0.1051
 6483TIP3    H140940   1.600   5.219   4.409 -1.0865 -0.3016  0.6117
 6483TIP3    H240941   1.628   5.368   4.406 -2.0822 -0.0780  1.6717
 6484TIP3   OH240942   2.663   6.820  13.857  0.0413  0.2069  0.8966
 6484TIP3    H140943   2.585   6.841  13.805  0.9321  1.5321  0.0453
 6484TIP3    H240944   2.649   6.729  13.885 -1.0371 -0.1253 -0.6066
 6485TIP3   OH240945   6.521   3.054   5.277  0.2407  0.0265  0.0722
 6485TIP3    H140946   6.504   3.082   5.187  0.3660 -0.1482 -0.0047
 6485TIP3    H240947   6.499   2.961   5.278 -0.6370  0.2236  0.4447
 6486TIP3   OH240948   4.692   0.125   2.335 -0.3074 -0.0965 -0.5829
 6486TIP3    H140949   4.762   0.103   2.273 -0.2962  0.4018 -0.7492
 6486TIP3    H240950   4.736   0.128   2.420 -0.3562 -0.9631 -0.5112
 6487TIP3   OH240951   2.740   4.854  13.012  0.2273 -0.0317  0.4005
 6487TIP3    H140952   2.827   4.880  13.044  0.6786 -1.1041  0.1130
 6487TIP3    H240953   2.719   4.919  12.945  1.9184 -1.0707 -1.2496
 6488TIP3   OH240954   3.775   1.102   5.444 -0.1272 -0.6204 -0.0487
 6488TIP3    H140955   3.682   1.101   5.465 -0.3697 -0.2337 -1.0448
 6488TIP3    H240956   3.814   1.040   5.506 -0.8134  0.2863  1.3568
 6489TIP3   OH240957   6.582   5.359  11.851  0.2931 -0.1925  0.5609
 6489TIP3    H140958   6.551   5.294  11.789 -0.7457  0.7548  0.0543
 6489TIP3    H240959   6.666   5.325  11.882  1.2872 -0.2703 -2.0127
 6490TIP3   OH240960   3.241   6.026  13.293  0.7227  0.1553 -0.3026
 6490TIP3    H140961   3.328   6.062  13.275  0.7287 -0.3365 -1.3276
 6490TIP3    H240962   3.221   5.972  13.217 -0.4742  0.2291 -0.0636
 6491TIP3   OH240963   0.289   3.050  14.493 -0.2370 -0.1783  0.4572
 6491TIP3    H140964   0.250   3.063  14.406  1.0773  0.0193 -0.1147
 6491TIP3    H240965   0.248   2.969  14.525 -1.9064  0.5713  0.3483
 6492TIP3   OH240966   0.268   2.957  11.788 -0.1420 -0.3006 -0.5803
 6492TIP3    H140967   0.222   2.901  11.725 -1.3075 -1.7173  1.4204
 6492TIP3    H240968   0.209   3.032  11.801 -0.8973 -1.0198  0.3083
 6493TIP3   OH240969   3.368   3.241  13.037  0.3524 -0.3209 -0.3995
 6493TIP3    H140970   3.299   3.192  12.992  0.1353 -0.8232  0.4552
 6493TIP3    H240971   3.335   3.331  13.042 -0.1551 -0.5191 -0.1625
 6494TIP3   OH240972   2.358   5.997   4.713 -0.0408 -0.0417 -0.0598
 6494TIP3    H140973   2.305   6.063   4.758  0.9485  0.1258  0.8922
 6494TIP3    H240974   2.420   6.048   4.660  0.7367 -0.1900  0.6894
 6495TIP3   OH240975   6.002   3.534   5.044 -0.0485 -0.1254  0.0790
 6495TIP3    H140976   6.076   3.595   5.044  0.3468 -0.4677 -2.6324
 6495TIP3    H240977   5.925   3.589   5.034  0.2986  0.0625 -2.2460
 6496TIP3   OH240978   6.548   6.080  13.120  0.5003 -1.0674 -0.1243
 6496TIP3    H140979   6.616   6.073  13.186 -0.7458 -3.3773  1.0335
 6496TIP3    H240980   6.562   6.005  13.063 -0.2506 -0.7858 -0.6904
 6497TIP3   OH240981   4.097   3.945   0.392 -0.1446  0.4496  0.0681
 6497TIP3    H140982   4.028   3.987   0.341 -1.4653 -1.4094  0.2333
 6497TIP3    H240983   4.055   3.922   0.474  0.9187  0.0225  0.5051
 6498TIP3   OH240984   6.434   1.172  12.526  0.6622 -0.5092  0.2093
 6498TIP3    H140985   6.517   1.188  12.481  0.0853  1.4494 -0.2366
 6498TIP3    H240986   6.458   1.114  12.599  2.8582  1.6648  1.3751
 6499TIP3   OH240987   1.081   3.572   5.263  0.1340 -0.0065  0.2940
 6499TIP3    H140988   1.100   3.549   5.354 -0.7592  3.0785  1.3989
 6499TIP3    H240989   0.997   3.618   5.267 -0.6342 -1.0254 -2.3445
 6500TIP3   OH240990   3.454   0.341   1.688  0.0414 -0.2036 -0.1924
 6500TIP3    H140991   3.380   0.374   1.740  1.4860  3.2495 -0.0639
 6500TIP3    H240992   3.471   0.410   1.624  0.6536 -2.7280 -2.9538
 6501TIP3   OH240993   1.624   3.413   3.653  0.4346  0.7810  0.0111
 6501TIP3    H140994   1.708   3.413   3.607  1.1104  1.0058  1.2087
 6501TIP3    H240995   1.624   3.331   3.702  0.2367  1.0835  0.5149
 6502TIP3   OH240996   3.983   1.798  12.014 -0.0395  0.1000 -0.1688
 6502TIP3    H140997   3.935   1.716  12.004  1.6736 -0.8889 -0.9057
 6502TIP3    H240998   4.043   1.799  11.939  0.2852  1.8319  0.0699
 6503TIP3   OH240999   5.124   3.285   6.776 -0.6619 -0.2196  0.2139
 6503TIP3    H141000   5.096   3.370   6.810 -0.9264 -0.7215  1.2974
 6503TIP3    H241001   5.073   3.221   6.826  1.0427 -1.0977  0.9363
 6504TIP3   OH241002   3.700   3.811   6.093 -0.4408  0.4174  0.3723
 6504TIP3    H141003   3.759   3.757   6.145  0.1860  1.6526  1.0018
 6504TIP3    H241004   3.715   3.784   6.002 -0.6374 -0.9029  0.7264
 6505TIP3   OH241005   0.746   1.076  15.031  0.7190 -0.0659 -0.2319
 6505TIP3    H141006   0.743   1.165  14.996  1.0686 -0.1107 -0.3829
 6505TIP3    H241007   0.709   1.022  14.962  0.2647 -0.0068 -0.0349
 6506TIP3   OH241008   5.159   3.257   3.568  0.6132  0.2617  0.0702
 6506TIP3    H141009   5.170   3.344   3.607 -1.3791  0.7378 -0.3267
 6506TIP3    H241010   5.244   3.237   3.530  1.2433  1.8372  0.5761
 6507TIP3   OH241011   1.921   3.322  15.743 -0.0455  0.5702 -0.1903
 6507TIP3    H141012   1.983   3.334  15.815 -0.5141 -0.4615  0.4102
 6507TIP3    H241013   1.873   3.243  15.766  0.5319 -0.4298 -2.1763
 6508TIP3   OH241014   5.644   2.597  16.188 -0.1536 -0.2829 -0.0409
 6508TIP3    H141015   5.628   2.518  16.136  0.9471 -1.0968  0.8198
 6508TIP3    H241016   5.739   2.602  16.196 -0.2924 -0.5032  2.3650
 6509TIP3   OH241017   4.074   5.697  10.930  0.1256 -0.2565 -0.8012
 6509TIP3    H141018   4.084   5.766  10.996 -0.7119 -0.1475 -0.7742
 6509TIP3    H241019   4.123   5.728  10.855 -0.2950  0.4115 -0.8127
 6510TIP3   OH241020   3.673   5.399   4.860 -0.1010  0.3020  0.3191
 6510TIP3    H141021   3.583   5.372   4.844  0.1722 -0.9161  0.7550
 6510TIP3    H241022   3.673   5.434   4.949  0.2029 -1.3714  0.9980
 6511TIP3   OH241023   3.464   2.970   4.419  0.1154  0.4404  0.1948
 6511TIP3    H141024   3.447   3.033   4.349 -1.1178  1.2055  1.1449
 6511TIP3    H241025   3.428   2.888   4.386  1.3018  0.3109 -0.8530
 6512TIP3   OH241026   1.285   2.328   3.570 -0.2915 -0.0756 -0.5157
 6512TIP3    H141027   1.365   2.330   3.623 -0.4918 -0.4815 -0.1930
 6512TIP3    H241028   1.290   2.407   3.516  2.2654 -1.9290 -3.3767
 6513TIP3   OH241029   5.491   4.474  11.486 -0.3120 -0.0953 -0.0574
 6513TIP3    H141030   5.450   4.442  11.567 -0.3517  0.4996  0.1689
 6513TIP3    H241031   5.476   4.405  11.422  1.7257 -1.6581  1.0118
 6514TIP3   OH241032   3.033   0.614   2.401 -0.1019  0.3991 -0.2869
 6514TIP3    H141033   3.077   0.632   2.484  2.5956 -0.2135 -1.4619
 6514TIP3    H241034   3.009   0.700   2.367  0.3571  0.7788  0.3321
 6515TIP3   OH241035   0.918   6.797   2.394 -0.1422 -0.1155 -0.4605
 6515TIP3    H141036   0.976   6.805   2.319  0.4732  0.4907  0.0635
 6515TIP3    H241037   0.832   6.776   2.357  0.2160 -0.1046 -1.3031
 6516TIP3   OH241038   5.219   5.064   3.794 -0.1446 -0.4014 -0.3327
 6516TIP3    H141039   5.181   5.096   3.875  0.7324  0.5650 -0.2843
 6516TIP3    H241040   5.244   4.973   3.813  2.4074  0.5552  1.3425
 6517TIP3   OH241041   4.642   0.085   5.606 -0.3965 -0.4509  0.0131
 6517TIP3    H141042   4.681   0.157   5.556  2.5437 -2.3453 -0.6991
 6517TIP3    H241043   4.717   0.042   5.648 -2.4904 -0.2186  4.5393
 6518TIP3   OH241044   2.188   0.749  15.644 -0.0970  0.2656  0.2341
 6518TIP3    H141045   2.109   0.759  15.696  0.5381 -1.4405  1.6171
 6518TIP3    H241046   2.185   0.658  15.613  0.2106  0.8416 -1.6361
 6519TIP3   OH241047   1.470   4.605   5.142  0.4963  0.1486 -0.0190
 6519TIP3    H141048   1.497   4.514   5.148  1.5388  0.4523  0.1956
 6519TIP3    H241049   1.540   4.647   5.091  1.4218  1.3361  2.1036
 6520TIP3   OH241050   0.808   6.815   4.810  0.3100 -0.1794  0.5555
 6520TIP3    H141051   0.852   6.746   4.760 -0.4128 -0.5019  0.3570
 6520TIP3    H241052   0.724   6.827   4.766  0.9846  1.8603 -0.3227
 6521TIP3   OH241053   1.599   2.294   0.836  0.3695  0.3672 -0.0962
 6521TIP3    H141054   1.598   2.198   0.845  0.0921  0.4496  0.8843
 6521TIP3    H241055   1.508   2.317   0.819  0.4132  0.4689 -0.1889
 6522TIP3   OH241056   2.663   1.306  13.938 -0.4846  0.0221 -0.0720
 6522TIP3    H141057   2.699   1.393  13.918 -1.0838  0.0714 -0.9913
 6522TIP3    H241058   2.666   1.301  14.034  0.1554  0.7943 -0.0388
 6523TIP3   OH241059   2.666   6.382  16.603 -0.3545 -0.3052  0.0636
 6523TIP3    H141060   2.678   6.443  16.676 -0.9679  1.2071 -1.0321
 6523TIP3    H241061   2.640   6.300  16.644  1.2956 -0.1067  1.6631
 6524TIP3   OH241062   0.053   5.262  15.281  0.1723  0.1761  0.1760
 6524TIP3    H141063  -0.039   5.280  15.268  0.1477  0.1677  0.3304
 6524TIP3    H241064   0.069   5.180  15.233  0.1672  0.3335 -0.0925
 6525TIP3   OH241065   5.458   4.149   0.465 -0.4942  0.0682  0.5018
 6525TIP3    H141066   5.368   4.136   0.493 -1.1676 -0.3343 -1.6616
 6525TIP3    H241067   5.467   4.244   0.456 -0.8892  0.0791  0.1832
 6526TIP3   OH241068   2.718   1.824  16.453  0.4159 -0.1933  0.1318
 6526TIP3    H141069   2.742   1.885  16.383  1.4201 -0.5813  0.1246
 6526TIP3    H241070   2.720   1.738  16.413 -1.4305 -0.2375  0.0360
 6527TIP3   OH241071   4.273   6.480  13.550  0.1721  0.5595 -0.3377
 6527TIP3    H141072   4.333   6.407  13.535 -0.8312 -0.3601  0.0008
 6527TIP3    H241073   4.219   6.482  13.471  0.1645  0.9036 -0.3226
 6528TIP3   OH241074   2.631   0.846  11.488 -0.1177  0.0633 -0.8692
 6528TIP3    H141075   2.634   0.816  11.579 -0.1147  0.8992 -0.5879
 6528TIP3    H241076   2.538   0.855  11.468 -0.1751 -1.4602 -1.4145
 6529TIP3   OH241077   2.574   3.900   5.930 -0.3777 -0.1601  0.3286
 6529TIP3    H141078   2.652   3.846   5.915 -0.3105 -0.0889  0.4220
 6529TIP3    H241079   2.540   3.917   5.843 -1.1966 -1.5254  0.3552
 6530TIP3   OH241080   3.180   3.308   4.420 -0.0836 -0.0099 -0.0905
 6530TIP3    H141081   3.164   3.403   4.425  0.1615 -0.0065  0.7903
 6530TIP3    H241082   3.157   3.276   4.508 -0.9388 -0.8913 -0.6188
 6531TIP3   OH241083   6.416   2.626   1.750  0.1395 -0.6558 -0.2032
 6531TIP3    H141084   6.494   2.677   1.728  1.2494 -1.0895  2.4157
 6531TIP3    H241085   6.388   2.660   1.835 -1.4547 -1.7566 -0.2381
 6532TIP3   OH241086   4.786   4.284   2.503 -0.0593 -0.2540 -0.3891
 6532TIP3    H141087   4.867   4.331   2.481  0.5210 -0.6011  0.9187
 6532TIP3    H241088   4.719   4.353   2.506  0.1788  0.0440 -1.4460
 6533TIP3   OH241089   1.836   0.701   2.721 -0.2202  0.1654  0.0037
 6533TIP3    H141090   1.813   0.787   2.686 -2.0747 -0.5333 -0.5856
 6533TIP3    H241091   1.835   0.713   2.816  0.9583  1.1188 -0.0773
 6534TIP3   OH241092   5.363   0.256   4.995 -0.0297  0.1821  0.5514
 6534TIP3    H141093   5.335   0.318   4.928 -0.5657 -0.0786  0.5253
 6534TIP3    H241094   5.385   0.310   5.070 -0.8167  0.3943  0.6442
 6535TIP3   OH241095   4.576   2.620  14.937  0.0932 -0.0871 -0.8095
 6535TIP3    H141096   4.620   2.653  15.015 -1.4036  1.0734 -0.4042
 6535TIP3    H241097   4.581   2.525  14.945  0.0132  0.0157  0.6792
 6536TIP3   OH241098   2.294   1.374   3.193  0.5698  0.6895 -0.1032
 6536TIP3    H141099   2.224   1.402   3.252  0.6535 -1.5492  1.1585
 6536TIP3    H241100   2.373   1.375   3.248  0.6876 -1.2181 -0.1934
 6537TIP3   OH241101   0.237   1.817   2.552  0.3002 -0.2262  0.1017
 6537TIP3    H141102   0.191   1.786   2.474  1.1362  1.3211 -1.0855
 6537TIP3    H241103   0.283   1.740   2.586 -1.6523 -1.3708  0.2498
 6538TIP3   OH241104   3.364   5.303  15.522 -0.3746 -0.1519  0.2926
 6538TIP3    H141105   3.422   5.285  15.448 -1.4002 -0.7317 -0.4021
 6538TIP3    H241106   3.338   5.395  15.510 -0.0970 -0.0781  0.2529
 6539TIP3   OH241107   1.462   6.107  13.550  0.5312 -0.0470  0.1125
 6539TIP3    H141108   1.389   6.167  13.538  0.2999  0.1009  1.9524
 6539TIP3    H241109   1.424   6.020  13.544  0.4781  0.0120 -0.4155
 6540TIP3   OH241110   0.703   3.679   4.133  0.0961  0.2202  0.1393
 6540TIP3    H141111   0.746   3.649   4.054 -2.1981 -0.2608 -1.0219
 6540TIP3    H241112   0.702   3.602   4.191 -0.6287 -0.2603 -0.4924
 6541TIP3   OH241113   2.431   6.164  16.036 -0.4957  0.0365  0.2816
 6541TIP3    H141114   2.527   6.162  16.040 -0.5256 -2.2849  3.3043
 6541TIP3    H241115   2.408   6.249  16.074  0.3244  0.5246 -0.2670
 6542TIP3   OH241116   0.639   6.341  11.506  0.3667 -0.2210  0.1788
 6542TIP3    H141117   0.602   6.262  11.547  0.7085 -0.5937 -0.2146
 6542TIP3    H241118   0.591   6.350  11.424  1.6639 -1.1789 -0.7288
 6543TIP3   OH241119   6.814   1.811  10.894  0.0768  0.7327 -0.2715
 6543TIP3    H141120   6.731   1.856  10.881  0.4369  0.7717 -2.8795
 6543TIP3    H241121   6.809   1.733  10.839  0.9144 -0.4966  1.2977
 6544TIP3   OH241122   0.906   3.476  14.027 -0.1458  0.6281  0.5091
 6544TIP3    H141123   0.830   3.528  14.002 -1.6349 -0.4994  2.4191
 6544TIP3    H241124   0.950   3.529  14.094  1.5365  1.8154 -1.3983
 6545TIP3   OH241125   2.644   3.830  14.240  0.4775 -0.0315 -0.0151
 6545TIP3    H141126   2.571   3.822  14.301 -0.4058  2.7744 -0.5392
 6545TIP3    H241127   2.623   3.768  14.170 -0.3269 -0.7444  0.8309
 6546TIP3   OH241128   3.808   4.886  16.513 -0.7567 -0.2612  0.0784
 6546TIP3    H141129   3.777   4.853  16.598  1.4159 -0.8579  0.6946
 6546TIP3    H241130   3.838   4.808  16.467 -0.1719  0.2763 -0.4651
 6547TIP3   OH241131   6.207   0.380   3.512 -0.5364 -0.4624  0.9527
 6547TIP3    H141132   6.243   0.292   3.521 -0.5757 -0.4870  0.8651
 6547TIP3    H241133   6.117   0.372   3.543 -1.3054 -0.9823 -1.2478
 6548TIP3   OH241134   4.652   5.212   2.563  0.1816 -0.3669  0.3536
 6548TIP3    H141135   4.744   5.222   2.538 -0.0805 -0.4212 -0.6917
 6548TIP3    H241136   4.645   5.256   2.648  1.5883 -2.0978  1.4296
 6549TIP3   OH241137   0.878   0.347  14.955 -0.7670 -0.1097  0.4585
 6549TIP3    H141138   0.788   0.315  14.950 -1.5299  2.0037 -0.6352
 6549TIP3    H241139   0.869   0.441  14.971  1.1845  0.4869 -1.4851
 6550TIP3   OH241140   6.405   1.616   3.453  0.5404 -0.4157 -0.1197
 6550TIP3    H141141   6.326   1.646   3.408  0.5825 -2.1901 -1.4942
 6550TIP3    H241142   6.378   1.607   3.545 -1.3053 -2.2217 -0.7487
 6551TIP3   OH241143   2.404   1.401  13.054 -0.3852  0.5652 -0.2569
 6551TIP3    H141144   2.357   1.449  12.985 -0.0978 -1.0146 -1.6084
 6551TIP3    H241145   2.496   1.407  13.029 -0.4136 -1.4332 -0.9893
 6552TIP3   OH241146   4.334   3.728  13.995 -0.4638  0.4412 -0.8649
 6552TIP3    H141147   4.384   3.663  13.945  0.3168  1.4051 -1.3585
 6552TIP3    H241148   4.390   3.805  13.998 -0.9116  0.7473  0.6691
 6553TIP3   OH241149   0.944   1.339  13.243  0.0575 -0.3218 -0.7494
 6553TIP3    H141150   0.886   1.304  13.311 -1.0646 -1.3698 -2.1953
 6553TIP3    H241151   0.933   1.434  13.249  0.3021 -0.3674  0.7875
 6554TIP3   OH241152   4.875   1.378   2.602  0.0189  0.2010  0.3577
 6554TIP3    H141153   4.953   1.426   2.574 -0.3571  0.5432 -0.1053
 6554TIP3    H241154   4.850   1.418   2.685  1.3022 -0.9993  1.3861
 6555TIP3   OH241155   1.451   2.900  14.107 -0.2959 -0.6490  0.2806
 6555TIP3    H141156   1.433   2.890  14.014 -1.1537  0.6858  0.2706
 6555TIP3    H241157   1.366   2.918  14.147  0.1032 -0.8679  1.2717
 6556TIP3   OH241158   0.005   0.916  11.618  0.2824  0.0985 -0.4410
 6556TIP3    H141159  -0.035   0.979  11.678 -0.5032 -0.7792 -0.0191
 6556TIP3    H241160   0.017   0.837  11.671  1.6149 -0.0024 -0.8533
 6557TIP3   OH241161   3.016   4.202  15.780 -0.4702 -0.1918  0.0154
 6557TIP3    H141162   3.073   4.171  15.851  1.1050  0.8346 -0.7520
 6557TIP3    H241163   3.035   4.143  15.707  1.0685  1.2873 -0.8297
 6558TIP3   OH241164   0.963   0.582   3.110  0.2268  0.2816  0.1281
 6558TIP3    H141165   1.001   0.516   3.052 -0.5749 -0.0838  0.0141
 6558TIP3    H241166   1.033   0.647   3.120  0.8589 -0.3352 -0.1386
 6559TIP3   OH241167   2.697   2.029   2.717  0.0148 -0.5727  0.3230
 6559TIP3    H141168   2.748   1.983   2.650 -0.0647 -0.0774 -0.0871
 6559TIP3    H241169   2.605   2.011   2.693 -0.0832  1.3658 -1.0198
 6560TIP3   OH241170   4.234   0.584  12.726 -0.4118 -0.0259 -0.5254
 6560TIP3    H141171   4.163   0.627  12.773 -1.0036  0.5376 -1.9124
 6560TIP3    H241172   4.198   0.499  12.700 -0.6524  0.3390 -1.3993
 6561TIP3   OH241173   4.892   1.796  13.706  0.2103 -0.1655 -0.3807
 6561TIP3    H141174   4.853   1.713  13.681  1.1287 -1.2610  1.6152
 6561TIP3    H241175   4.852   1.818  13.790  3.9419 -1.6134  2.0554
 6562TIP3   OH241176   2.245   5.309   6.838 -0.2211  0.2082  0.2868
 6562TIP3    H141177   2.230   5.385   6.781 -1.4546 -0.0333  0.2469
 6562TIP3    H241178   2.179   5.317   6.907 -0.5246 -0.9180  0.1636
 6563TIP3   OH241179   5.113   0.231   2.564  0.7608 -0.4602  0.2867
 6563TIP3    H141180   5.188   0.177   2.538  0.4309 -1.9319  2.1560
 6563TIP3    H241181   5.139   0.270   2.647  0.1955  0.6448 -0.0354
 6564TIP3   OH241182   2.241   3.479  11.550 -0.8702  0.6244  0.1687
 6564TIP3    H141183   2.217   3.403  11.603 -1.1482  0.2220 -0.5241
 6564TIP3    H241184   2.312   3.521  11.599 -0.6538 -0.1313  0.5057
 6565TIP3   OH241185   6.792   3.256  14.747 -0.0265  0.3256 -0.5038
 6565TIP3    H141186   6.884   3.267  14.724 -0.1416 -0.1658 -1.2371
 6565TIP3    H241187   6.789   3.266  14.842  0.7992  0.2465 -0.4658
 6566TIP3   OH241188   3.477   3.237  15.792 -0.1505  0.0821 -0.3397
 6566TIP3    H141189   3.472   3.326  15.757  0.0819  0.5320  0.7410
 6566TIP3    H241190   3.490   3.249  15.886 -1.8030 -1.0966  0.0809
 6567TIP3   OH241191   4.340   1.449  13.735 -0.2953  0.5039 -0.1346
 6567TIP3    H141192   4.383   1.417  13.815  0.3572 -0.2539 -0.7667
 6567TIP3    H241193   4.260   1.396  13.729 -0.0368  0.1337 -0.3122
 6568TIP3   OH241194   0.918   4.530  11.251  0.1402  0.1566  0.6360
 6568TIP3    H141195   1.008   4.557  11.234 -0.4885  1.4587 -0.8758
 6568TIP3    H241196   0.891   4.485  11.171 -0.4631 -0.5105  1.2040
 6569TIP3   OH241197   0.756   6.652  14.564  0.3018 -0.3525  0.7619
 6569TIP3    H141198   0.781   6.718  14.500  0.0503 -0.9644  0.0148
 6569TIP3    H241199   0.688   6.694  14.616 -0.6085 -0.3482 -0.3751
 6570TIP3   OH241200   0.202   2.309  11.478 -0.1836  0.0476 -0.3250
 6570TIP3    H141201   0.276   2.307  11.417  0.9565 -0.0634  1.0078
 6570TIP3    H241202   0.212   2.229  11.530 -0.4492  0.6881  0.7457
 6571TIP3   OH241203   0.147   5.194   3.180 -0.1158  0.4778 -0.8779
 6571TIP3    H141204   0.114   5.192   3.091 -2.2784  0.2073 -0.1338
 6571TIP3    H241205   0.075   5.160   3.233  2.1230 -2.2724  0.6855
 6572TIP3   OH241206   5.035   2.185  15.015  0.0943  0.0652 -0.0559
 6572TIP3    H141207   4.966   2.121  15.030  1.2285 -1.4644 -1.0550
 6572TIP3    H241208   5.047   2.185  14.920  0.5339  1.3175 -0.0196
 6573TIP3   OH241209   6.789   3.388  13.085 -0.1065 -0.3565 -0.9165
 6573TIP3    H141210   6.795   3.469  13.135 -0.7122  0.3515 -1.9664
 6573TIP3    H241211   6.876   3.376  13.048  0.2118 -0.6322 -0.1059
 6574TIP3   OH241212   5.643   0.620   0.318  0.3520 -0.2479 -0.0382
 6574TIP3    H141213   5.641   0.533   0.276  3.8560 -0.3882 -0.1812
 6574TIP3    H241214   5.734   0.647   0.312 -0.4861  3.1569  0.7419
 6575TIP3   OH241215   1.693   4.555   5.493 -0.1810  0.3834 -0.3287
 6575TIP3    H141216   1.759   4.566   5.424 -1.1374  0.1714 -1.3142
 6575TIP3    H241217   1.728   4.603   5.568  1.6142 -0.6466 -0.4435
 6576TIP3   OH241218   4.922   0.186   1.805  0.2674 -0.3179  0.4752
 6576TIP3    H141219   4.926   0.099   1.845  1.9085 -0.0665  0.9642
 6576TIP3    H241220   4.835   0.191   1.765  0.9182 -3.1077 -1.6245
 6577TIP3   OH241221   5.994   1.060   1.590 -0.3129 -0.3734  0.5996
 6577TIP3    H141222   5.989   0.993   1.658 -0.2220 -0.5598  0.4236
 6577TIP3    H241223   5.938   1.131   1.622 -0.4775 -0.5687  0.7454
 6578TIP3   OH241224   4.676   5.985   1.638  0.4263  0.0076  0.3416
 6578TIP3    H141225   4.724   5.919   1.687 -1.3119 -2.0946 -0.6482
 6578TIP3    H241226   4.652   5.942   1.556 -1.3682  1.6169 -0.0481
 6579TIP3   OH241227   1.730   2.725   1.683  0.1821 -0.1167  0.3937
 6579TIP3    H141228   1.758   2.652   1.738  1.5620  0.3077  0.2938
 6579TIP3    H241229   1.809   2.752   1.637 -0.2119  1.6533  0.6800
 6580TIP3   OH241230   0.674   4.480   6.394  0.2294  0.2498 -0.3232
 6580TIP3    H141231   0.614   4.472   6.319 -0.7047  0.3807  0.3908
 6580TIP3    H241232   0.626   4.440   6.467  2.2001 -2.4322 -0.3471
 6581TIP3   OH241233   6.045   3.872  14.454 -0.2952  0.2819 -0.0957
 6581TIP3    H141234   6.027   3.832  14.539  0.7671  2.1135  1.0596
 6581TIP3    H241235   5.966   3.924  14.434 -0.3299  0.2788  0.0341
 6582TIP3   OH241236   6.364   6.486   5.609  1.1514  0.1779 -0.5961
 6582TIP3    H141237   6.431   6.551   5.631 -0.0320  1.1144  0.4151
 6582TIP3    H241238   6.349   6.498   5.516  2.7330 -0.4098 -0.9554
 6583TIP3   OH241239   5.704   3.179   0.990 -0.4117  0.4042  0.2131
 6583TIP3    H141240   5.635   3.232   1.030 -0.3666 -0.3415  1.3298
 6583TIP3    H241241   5.744   3.237   0.926 -2.2353  0.7865 -0.6609
 6584TIP3   OH241242   2.567   5.301  15.803  0.0667 -0.0916  0.8824
 6584TIP3    H141243   2.648   5.260  15.833 -0.4038 -1.0863  0.8169
 6584TIP3    H241244   2.516   5.317  15.882  0.0995  0.0577  0.8748
 6585TIP3   OH241245   0.265   5.346   5.585  0.3720  0.0365 -0.1086
 6585TIP3    H141246   0.186   5.360   5.532 -0.7180 -0.9218  1.2089
 6585TIP3    H241247   0.318   5.286   5.533 -0.0865  0.1244 -0.6880
 6586TIP3   OH241248   4.123   1.194  12.332 -0.2070  0.0374  0.4432
 6586TIP3    H141249   4.192   1.140  12.372  0.6928  0.6336 -0.2667
 6586TIP3    H241250   4.051   1.134  12.317  0.4456 -0.7759  0.5021
 6587TIP3   OH241251   5.268   2.059   5.373  0.1986 -0.2690 -0.5834
 6587TIP3    H141252   5.278   2.119   5.448 -2.1670  0.9528 -1.1182
 6587TIP3    H241253   5.347   2.006   5.374  0.6254  0.2178  2.3197
 6588TIP3   OH241254   6.153   2.211   4.017 -0.0800 -0.3492  0.0354
 6588TIP3    H141255   6.202   2.238   3.939  0.7298  2.5962  1.4246
 6588TIP3    H241256   6.183   2.122   4.035  1.2762 -0.3139 -1.7923
 6589TIP3   OH241257   0.181   5.289  14.582  0.1820  0.6608 -0.0914
 6589TIP3    H141258   0.259   5.277  14.637 -1.1333  1.1938  2.0198
 6589TIP3    H241259   0.140   5.369  14.615 -1.7974 -0.1423 -0.4462
 6590TIP3   OH241260   0.692   6.854  16.256 -0.0175  0.2419 -0.0828
 6590TIP3    H141261   0.777   6.853  16.213 -0.1732 -0.5025 -0.3707
 6590TIP3    H241262   0.632   6.811  16.195 -0.2464 -0.7938  0.8505
 6591TIP3   OH241263   4.854   3.912   5.832 -0.2098 -0.1912 -0.0509
 6591TIP3    H141264   4.821   3.913   5.743 -2.0370  0.6423  0.5903
 6591TIP3    H241265   4.867   3.819   5.852 -2.3897 -0.5987 -0.2950
 6592TIP3   OH241266   6.826   2.869   3.997 -0.2714 -0.3124 -0.4195
 6592TIP3    H141267   6.917   2.869   3.968 -0.3942  0.5500 -0.8726
 6592TIP3    H241268   6.811   2.782   4.034  1.3993  0.2743  1.8228
 6593TIP3   OH241269   5.399   6.372  12.262 -0.1830  0.1567  0.7026
 6593TIP3    H141270   5.463   6.326  12.208 -0.2599  0.0422  0.7090
 6593TIP3    H241271   5.413   6.338  12.351 -0.2358  0.1474  0.7077
 6594TIP3   OH241272   2.587   6.448   4.460  0.1676 -0.1083  0.6450
 6594TIP3    H141273   2.637   6.530   4.464  0.7348 -0.3478 -0.9196
 6594TIP3    H241274   2.536   6.455   4.379  0.2521 -1.3184  0.4744
 6595TIP3   OH241275   0.580   4.091  12.679 -0.0623 -0.1469 -0.1217
 6595TIP3    H141276   0.613   4.162  12.624 -1.5374  0.3343 -0.4214
 6595TIP3    H241277   0.641   4.087  12.753  2.0578 -0.8989 -1.8040
 6596TIP3   OH241278   3.246   3.595  16.671 -0.0360 -0.0259  0.0919
 6596TIP3    H141279   3.270   3.533  16.740  1.5336  1.6535  1.1339
 6596TIP3    H241280   3.330   3.618  16.630 -0.6012  1.2789 -0.3628
 6597TIP3   OH241281   2.271   4.089   4.892  0.3059  0.1508 -0.0062
 6597TIP3    H141282   2.298   4.047   4.973 -1.1939  0.6200  0.7710
 6597TIP3    H241283   2.179   4.111   4.905 -0.0420  0.0518 -1.9181
 6598TIP3   OH241284   3.700   0.346   1.482 -0.5122 -0.4763  0.2759
 6598TIP3    H141285   3.663   0.433   1.461 -1.2423 -0.7827  0.2556
 6598TIP3    H241286   3.670   0.329   1.571  0.6888 -0.1658  0.7469
 6599TIP3   OH241287   3.645   1.867   3.861 -0.4198  0.5571  0.3937
 6599TIP3    H141288   3.586   1.934   3.826 -0.6285  1.0771  1.6631
 6599TIP3    H241289   3.731   1.891   3.827 -0.7047  0.6802 -0.2482
 6600TIP3   OH241290   5.740   4.375  16.244 -0.3089 -0.3211  0.0529
 6600TIP3    H141291   5.725   4.289  16.283 -1.7609 -0.5586 -0.9402
 6600TIP3    H241292   5.660   4.393  16.195 -0.6178  2.2233  1.3269
 6601TIP3   OH241293   4.209   1.136   3.806 -0.7192 -0.5061  0.0230
 6601TIP3    H141294   4.119   1.160   3.829 -1.1561  0.0387 -2.0369
 6601TIP3    H241295   4.221   1.048   3.843 -1.3716  0.2046  2.0463
 6602TIP3   OH241296   3.420   0.963  13.088 -0.4900 -0.0223  0.2492
 6602TIP3    H141297   3.351   0.987  13.150 -1.4257 -1.1724 -0.2998
 6602TIP3    H241298   3.396   1.009  13.008  0.3160  0.8937  0.5316
 6603TIP3   OH241299   2.134   2.363   4.295  0.0384 -0.0213  0.0034
 6603TIP3    H141300   2.079   2.438   4.272 -2.3619 -1.7635 -0.4268
 6603TIP3    H241301   2.204   2.363   4.230 -0.2167  1.5349 -0.2885
 6604TIP3   OH241302   4.892   0.103   4.049  0.0342  0.3200 -0.6655
 6604TIP3    H141303   4.812   0.156   4.048 -0.0895  0.1330 -0.5183
 6604TIP3    H241304   4.889   0.054   3.967 -0.4453 -0.3547 -0.2501
 6605TIP3   OH241305   6.092   1.942  14.013 -0.2291 -0.1181 -0.3791
 6605TIP3    H141306   6.040   1.896  14.079 -1.6179 -0.3321 -1.5611
 6605TIP3    H241307   6.057   1.911  13.930 -0.1174  1.8611 -1.2262
 6606TIP3   OH241308   0.298   2.503   2.611  0.2637 -0.5735  0.2390
 6606TIP3    H141309   0.208   2.516   2.583  0.3383  0.3236  0.3738
 6606TIP3    H241310   0.350   2.558   2.552  0.7371 -1.2227  0.0475
 6607TIP3   OH241311   5.754   2.934   0.808 -0.5794  0.1533  0.1236
 6607TIP3    H141312   5.809   3.011   0.794 -1.1276  0.3341 -1.1875
 6607TIP3    H241313   5.671   2.970   0.841 -0.0214 -0.0961  1.8596
 6608TIP3   OH241314   1.621   1.328   3.705  0.2207 -0.0302  0.1691
 6608TIP3    H141315   1.689   1.330   3.638  0.4483 -0.8984  0.3544
 6608TIP3    H241316   1.539   1.317   3.656 -0.0161  2.7155 -0.1697
 6609TIP3   OH241317   5.367   4.020  13.109 -0.1935  0.4636  0.3036
 6609TIP3    H141318   5.284   4.029  13.156 -0.8970 -0.3918 -0.7433
 6609TIP3    H241319   5.418   3.958  13.161  0.6885  2.5478  2.0984
 6610TIP3   OH241320   3.639   5.586  11.790 -0.1830 -0.1002 -0.1367
 6610TIP3    H141321   3.560   5.570  11.739 -0.0668 -0.3487 -0.2370
 6610TIP3    H241322   3.611   5.575  11.881 -0.3490  0.1770 -0.1523
 6611TIP3   OH241323   2.402   1.493  16.756 -0.0739  0.2494  0.0295
 6611TIP3    H141324   2.434   1.439  16.828  0.7252  1.5253  0.6543
 6611TIP3    H241325   2.345   1.434  16.706 -1.7204 -0.3240  2.4089
 6612TIP3   OH241326   4.828   4.359  12.788 -0.1366  0.1567 -0.1030
 6612TIP3    H141327   4.848   4.449  12.760  0.4954 -0.2628 -1.0759
 6612TIP3    H241328   4.854   4.305  12.713 -0.8669 -0.8092  0.3224
 6613TIP3   OH241329   3.833   0.165  14.438 -0.3963  0.5904  0.0707
 6613TIP3    H141330   3.920   0.169  14.478 -0.5873 -0.3460  0.5964
 6613TIP3    H241331   3.774   0.143  14.510 -0.9954  0.6695 -0.3845
 6614TIP3   OH241332   5.091   6.668  15.545 -0.0478  0.3394  0.4096
 6614TIP3    H141333   5.144   6.592  15.568  1.0151  0.4366 -1.5307
 6614TIP3    H241334   5.004   6.648  15.581  0.8025 -0.6653  2.0312
 6615TIP3   OH241335   1.212   1.433   3.550 -0.2554  0.2435 -0.4973
 6615TIP3    H141336   1.164   1.447   3.469  0.7033  0.9119 -0.9556
 6615TIP3    H241337   1.255   1.516   3.568  1.7430 -0.6809 -0.7745
 6616TIP3   OH241338   1.046   6.693  13.410 -0.4612 -0.3351 -0.4268
 6616TIP3    H141339   1.063   6.627  13.477 -0.5582 -0.1656 -0.2334
 6616TIP3    H241340   1.049   6.645  13.327 -1.3053 -0.7411 -0.2367
 6617TIP3   OH241341   4.895   2.399  12.682 -0.3356  0.6714  0.2090
 6617TIP3    H141342   4.865   2.337  12.749  0.1840  0.3749  0.1779
 6617TIP3    H241343   4.893   2.349  12.600  0.8795  0.4157  0.3077
 6618TIP3   OH241344   4.349   3.247  15.788  0.4414 -0.8939  0.3698
 6618TIP3    H141345   4.411   3.210  15.724 -0.1711 -0.7506 -0.3135
 6618TIP3    H241346   4.268   3.199  15.773 -0.0440 -0.0393  0.2338
 6619TIP3   OH241347   5.859   6.717  14.463  0.3901 -0.5174  1.0865
 6619TIP3    H141348   5.924   6.777  14.426 -1.6126  1.2209  0.2067
 6619TIP3    H241349   5.826   6.762  14.541 -0.0805 -1.1800  1.2784
 6620TIP3   OH241350   6.750   0.952  13.002  0.3891 -0.2232 -0.0509
 6620TIP3    H141351   6.677   0.947  12.941  0.4676  0.5839 -0.2163
 6620TIP3    H241352   6.762   0.862  13.033  0.4177 -0.6643 -1.2991
 6621TIP3   OH241353   6.529   4.860   1.596 -0.0329  0.0274 -0.0489
 6621TIP3    H141354   6.466   4.875   1.667 -2.0401 -1.7600 -1.3494
 6621TIP3    H241355   6.589   4.935   1.602 -1.8540  1.4704  1.6906
 6622TIP3   OH241356   4.742   1.721   4.542 -0.1319  0.9919  0.2540
 6622TIP3    H141357   4.670   1.731   4.604 -1.3404  0.7706 -1.0540
 6622TIP3    H241358   4.804   1.663   4.585 -1.1802  0.4327  1.0471
 6623TIP3   OH241359   0.941   2.382  13.840 -0.0950  0.4146  0.3181
 6623TIP3    H141360   0.948   2.351  13.931  1.6902  0.1482  0.1248
 6623TIP3    H241361   0.878   2.454  13.844 -0.9003 -0.3090  1.5602
 6624TIP3   OH241362   3.700   1.649   1.270  0.2066  0.4799  0.2647
 6624TIP3    H141363   3.785   1.616   1.298 -0.6489 -2.8301 -0.5883
 6624TIP3    H241364   3.719   1.735   1.232  3.3119 -0.4379 -0.5636
 6625TIP3   OH241365   5.052   5.061  15.567 -0.1712 -0.1253  0.0030
 6625TIP3    H141366   5.110   4.998  15.607 -0.2403  0.0953  0.4603
 6625TIP3    H241367   4.967   5.017  15.562 -0.0970 -0.2494 -0.1526
 6626TIP3   OH241368   5.271   6.011   1.248 -0.3830 -0.0938  0.6841
 6626TIP3    H141369   5.356   6.055   1.246 -0.4139 -0.0366  0.5957
 6626TIP3    H241370   5.255   5.984   1.157 -1.1746  1.2951  0.3722
 6627TIP3   OH241371   4.090   2.303   5.556  0.1912  0.0758 -0.3416
 6627TIP3    H141372   4.086   2.369   5.487 -0.0768 -0.0266 -0.4254
 6627TIP3    H241373   4.168   2.252   5.536  0.3903  0.3570 -0.2855
 6628TIP3   OH241374   0.860   2.291   4.012 -0.0922  0.2488  0.1512
 6628TIP3    H141375   0.894   2.257   4.094 -0.1537  1.2552  0.6159
 6628TIP3    H241376   0.814   2.371   4.037 -0.1923  0.5150 -0.8502
 6629TIP3   OH241377   3.131   6.385  12.871 -0.4155 -0.0727 -0.0893
 6629TIP3    H141378   3.166   6.417  12.789  3.0610  0.0494  1.2768
 6629TIP3    H241379   3.123   6.462  12.926 -0.2808 -0.4512  0.4741
 6630TIP3   OH241380   5.375   4.596  13.628 -0.6967  0.0931 -0.1305
 6630TIP3    H141381   5.339   4.626  13.545 -0.5008  1.8456  0.3803
 6630TIP3    H241382   5.452   4.651  13.642 -0.6230 -0.2922  1.1335
 6631TIP3   OH241383   1.813   0.338   4.158  0.1361 -0.3353 -0.4589
 6631TIP3    H141384   1.730   0.291   4.165  0.3684 -0.5387  1.4455
 6631TIP3    H241385   1.877   0.271   4.131  0.2183 -0.8605  0.9734
 6632TIP3   OH241386   0.190   6.683  11.989 -0.5565 -0.5838 -0.7773
 6632TIP3    H141387   0.110   6.730  12.011 -1.6369 -2.7072  0.1058
 6632TIP3    H241388   0.163   6.617  11.926  0.6126 -1.0009 -0.8683
 6633TIP3   OH241389   2.095   6.752  14.592 -0.4293 -0.2470  0.0970
 6633TIP3    H141390   2.126   6.665  14.567 -0.5876  0.0236 -1.1195
 6633TIP3    H241391   2.137   6.811  14.530 -1.7144  0.3535 -0.2414
 6634TIP3   OH241392   2.857   4.056   4.961 -0.1018  0.3087  0.5617
 6634TIP3    H141393   2.775   4.011   4.982  0.1320 -0.5049 -0.2081
 6634TIP3    H241394   2.832   4.148   4.954 -1.4987 -0.1736 -2.1264
 6635TIP3   OH241395   1.848   6.749   5.675  0.3212  0.3815 -0.1450
 6635TIP3    H141396   1.891   6.762   5.760 -1.1280  2.7060  0.2982
 6635TIP3    H241397   1.772   6.694   5.695  1.2047 -0.9894 -0.3855
 6636TIP3   OH241398   5.054   5.563  13.127  0.3137 -0.2803  0.5917
 6636TIP3    H141399   5.023   5.473  13.116 -2.0788  0.4315  0.7547
 6636TIP3    H241400   5.082   5.568  13.218 -0.7273 -0.5803  0.9474
 6637TIP3   OH241401   0.226   6.862   0.962 -0.3722  0.0824 -0.5336
 6637TIP3    H141402   0.219   6.828   0.873  0.4184 -0.3755 -0.4291
 6637TIP3    H241403   0.195   6.791   1.018  1.0816 -0.4183 -0.3273
 6638TIP3   OH241404   6.473   3.203   0.727  0.2170 -0.8300  0.6561
 6638TIP3    H141405   6.534   3.166   0.663  0.0069 -2.2009  1.2226
 6638TIP3    H241406   6.522   3.202   0.809 -0.8882 -3.0050  1.3600
 6639TIP3   OH241407   5.304   1.970  12.619  0.4207  0.0135  0.4831
 6639TIP3    H141408   5.220   1.954  12.661 -0.5062  1.7073 -0.6002
 6639TIP3    H241409   5.310   1.902  12.551 -0.8422  0.8151 -0.4656
 6640TIP3   OH241410   5.080   3.038  10.910 -0.9704 -0.2503  0.2855
 6640TIP3    H141411   5.095   2.954  10.952  2.5521  0.4997  0.8580
 6640TIP3    H241412   5.132   3.034  10.829 -3.0018  0.4169 -1.1370
 6641TIP3   OH241413   4.808   2.994   6.044 -0.1101 -0.1581 -0.3287
 6641TIP3    H141414   4.816   3.090   6.038 -1.2653 -0.1145 -1.6986
 6641TIP3    H241415   4.714   2.979   6.056  0.1812 -1.1068  1.0364
 6642TIP3   OH241416   2.058   2.736   1.948  0.2790 -0.3626 -0.5180
 6642TIP3    H141417   2.141   2.780   1.930  0.5622 -1.2029 -1.3527
 6642TIP3    H241418   1.992   2.806   1.941  0.8227  0.1433 -0.6855
 6643TIP3   OH241419   5.902   3.250   4.976 -0.6647 -0.2045  0.1422
 6643TIP3    H141420   5.945   3.332   5.001  0.9260 -0.9708  0.0377
 6643TIP3    H241421   5.877   3.209   5.059 -1.6119  0.4349  0.1902
 6644TIP3   OH241422   4.110   6.739  10.277 -0.2075  0.1983  0.4552
 6644TIP3    H141423   4.100   6.832  10.255  1.9852  0.0816 -1.5062
 6644TIP3    H241424   4.194   6.734  10.323  0.3303 -0.9211 -0.5811
 6645TIP3   OH241425   1.608   5.859  12.111  0.4140  0.0371  0.4679
 6645TIP3    H141426   1.688   5.904  12.086 -0.3801  0.0631 -2.3333
 6645TIP3    H241427   1.599   5.788  12.047 -1.9337  0.2162  0.5100
 6646TIP3   OH241428   0.351   5.986   2.340  0.0536 -0.1394 -0.1274
 6646TIP3    H141429   0.262   5.951   2.348  0.1612 -0.1133  1.5755
 6646TIP3    H241430   0.407   5.909   2.336  0.2080 -0.2426  2.5671
 6647TIP3   OH241431   0.860   2.984  16.082  0.4629 -0.0826  0.4331
 6647TIP3    H141432   0.846   2.997  16.176 -0.2995 -1.4626  0.5444
 6647TIP3    H241433   0.827   3.065  16.042 -0.5944 -0.0782  1.2631
 6648TIP3   OH241434   2.276   5.216   2.490 -0.4670 -0.5469  0.4478
 6648TIP3    H141435   2.351   5.228   2.432 -1.0032 -2.7548 -0.8158
 6648TIP3    H241436   2.224   5.296   2.479 -0.4862 -0.8337 -2.0876
 6649TIP3   OH241437   1.801   3.644  16.908 -0.6911  0.2202 -0.3206
 6649TIP3    H141438   1.846   3.565  16.879 -0.1462  0.4538 -0.1201
 6649TIP3    H241439   1.752   3.616  16.985 -0.8521 -0.0215 -0.5049
 6650TIP3   OH241440   1.867   1.870   6.043 -0.6335  0.1058 -0.6960
 6650TIP3    H141441   1.900   1.934   6.106 -0.7823 -2.2488  1.9349
 6650TIP3    H241442   1.771   1.877   6.050 -0.7265  1.5764 -2.6343
 6651TIP3   OH241443   1.706   4.708  13.687  0.0473  0.4516  0.9402
 6651TIP3    H141444   1.792   4.746  13.671 -0.1477  0.3099 -0.6006
 6651TIP3    H241445   1.717   4.615  13.667 -1.0688  0.8515 -2.1103
 6652TIP3   OH241446   6.561   3.338   4.724  0.1611  0.1155  0.4218
 6652TIP3    H141447   6.579   3.386   4.643  1.3667 -0.7217  0.1740
 6652TIP3    H241448   6.608   3.387   4.792 -0.7759  0.7655  0.6292
 6653TIP3   OH241449   0.444   0.498  16.820 -0.2506 -0.3877 -0.1503
 6653TIP3    H141450   0.515   0.476  16.760  0.2982  0.6880  0.0672
 6653TIP3    H241451   0.377   0.432  16.805  1.2658 -2.1472  0.4654
 6654TIP3   OH241452   0.427   3.484   1.413  0.6682 -0.1518 -0.0861
 6654TIP3    H141453   0.415   3.417   1.347  1.0335  1.0357 -1.3990
 6654TIP3    H241454   0.407   3.440   1.496 -0.6186 -1.4436 -1.0396
 6655TIP3   OH241455   1.975   5.657  11.436  0.0045  0.4995  0.4245
 6655TIP3    H141456   1.933   5.597  11.375  0.8806 -0.2328  0.5201
 6655TIP3    H241457   2.035   5.708  11.382  0.5124  0.1010  0.6023
 6656TIP3   OH241458   5.419   2.691   4.848  0.1755  0.2948  0.2044
 6656TIP3    H141459   5.478   2.755   4.888 -0.1085  0.8904 -0.3053
 6656TIP3    H241460   5.334   2.735   4.846 -0.4284 -0.7407  1.4062
 6657TIP3   OH241461   4.257   1.376   2.759 -0.2969  0.4542 -0.0018
 6657TIP3    H141462   4.348   1.365   2.731  0.2052  1.1008  1.2876
 6657TIP3    H241463   4.250   1.470   2.780 -1.5176  0.5931 -0.9058
 6658TIP3   OH241464   6.101   2.192  14.708  0.1435  0.2593  0.6720
 6658TIP3    H141465   6.151   2.165  14.786 -0.6843 -1.9959  0.5025
 6658TIP3    H241466   6.057   2.112  14.680 -1.1315  1.4916 -0.9897
 6659TIP3   OH241467   6.839   4.311   1.071  0.2053 -0.1360 -0.2765
 6659TIP3    H141468   6.792   4.244   1.023  2.8840 -3.4647  1.3316
 6659TIP3    H241469   6.815   4.297   1.162  0.3459  1.5533  0.0601
 6660TIP3   OH241470   1.841   5.734  12.939 -0.3377  0.0452 -0.3848
 6660TIP3    H141471   1.917   5.786  12.912  1.4507 -2.0555  0.2163
 6660TIP3    H241472   1.838   5.661  12.877 -0.7972 -0.8082  0.5965
 6661TIP3   OH241473   5.859   1.650   5.453 -0.3305 -0.4460 -0.1179
 6661TIP3    H141474   5.882   1.685   5.539 -0.1904  1.7094 -0.9674
 6661TIP3    H241475   5.937   1.603   5.424 -0.1828 -0.7174  0.7029
 6662TIP3   OH241476   3.706   0.052   4.920 -0.4167 -0.2764  0.1872
 6662TIP3    H141477   3.660   0.087   4.843 -0.9876 -2.8220 -0.7234
 6662TIP3    H241478   3.639   0.004   4.968  0.6569 -1.6842  0.3525
 6663TIP3   OH241479   1.278   1.724   1.466 -0.8937 -0.2360 -0.2466
 6663TIP3    H141480   1.321   1.794   1.418 -0.0838  0.0909  0.9164
 6663TIP3    H241481   1.253   1.661   1.399  1.8513 -0.6861 -0.9589
 6664TIP3   OH241482   4.327   3.110   6.510 -0.1134 -0.0646 -0.2376
 6664TIP3    H141483   4.242   3.098   6.551  0.5099  2.0975  1.9185
 6664TIP3    H241484   4.389   3.115   6.583  1.6296  0.1227 -1.6510
 6665TIP3   OH241485   5.447   0.819   4.396  0.3972 -0.3901  0.3619
 6665TIP3    H141486   5.493   0.799   4.477  0.5655 -0.8160  0.1632
 6665TIP3    H241487   5.359   0.844   4.423  0.7649  0.5302  0.7542
 6666TIP3   OH241488   3.066   0.580  16.563  0.3612 -0.2559  0.0140
 6666TIP3    H141489   3.114   0.498  16.558 -2.0185 -1.9373  1.9888
 6666TIP3    H241490   3.027   0.580  16.650  0.8391  3.3846  0.3892
 6667TIP3   OH241491   5.952   0.013   5.863  0.1712  0.3666 -0.2565
 6667TIP3    H141492   6.004   0.076   5.913 -1.1928 -1.0864  3.3356
 6667TIP3    H241493   5.913  -0.044   5.929 -1.7578 -1.8869 -3.0690
 6668TIP3   OH241494   0.469   1.390   2.477  0.5765  0.0927 -0.1287
 6668TIP3    H141495   0.489   1.367   2.386 -0.5435 -0.2420 -0.3055
 6668TIP3    H241496   0.533   1.341   2.529 -0.8462 -2.4085 -0.5684
 6669TIP3   OH241497   3.074   1.692   6.455 -0.3805 -0.1642  0.3466
 6669TIP3    H141498   3.155   1.643   6.444 -0.2304  0.4744 -1.6982
 6669TIP3    H241499   3.102   1.783   6.467 -0.7384 -0.2425  2.0572
 6670TIP3   OH241500   4.022   4.683  12.661 -0.5589 -0.4491  0.5842
 6670TIP3    H141501   3.936   4.663  12.699  0.3850 -1.7156  2.1885
 6670TIP3    H241502   4.083   4.629  12.711  1.0924 -0.2244 -1.0791
 6671TIP3   OH241503   2.855   1.830   3.695  0.4634 -0.1677  0.3731
 6671TIP3    H141504   2.894   1.745   3.714 -0.7634 -0.4767  1.6332
 6671TIP3    H241505   2.907   1.893   3.745 -0.1803 -0.4938  1.4737
 6672TIP3   OH241506   6.543   2.171  12.098  0.0008 -0.3435 -0.4336
 6672TIP3    H141507   6.544   2.267  12.098  2.5696 -0.2931  0.8321
 6672TIP3    H241508   6.451   2.149  12.087 -0.5655  2.2324 -1.8974
 6673TIP3   OH241509   5.767   3.650  13.453 -0.0913  0.2500  0.2762
 6673TIP3    H141510   5.779   3.555  13.455 -2.5041 -0.1366 -0.3929
 6673TIP3    H241511   5.819   3.680  13.379  1.1834 -0.4482  0.8712
 6674TIP3   OH241512   5.896   0.453  15.462  0.1961 -0.1762  0.1083
 6674TIP3    H141513   5.967   0.488  15.409 -0.4294 -0.2203 -0.7789
 6674TIP3    H241514   5.938   0.430  15.546  1.5745 -1.7685 -0.9571
 6675TIP3   OH241515   1.826   1.961  10.280 -0.2333 -0.2319  0.0630
 6675TIP3    H141516   1.829   2.055  10.300 -1.9001  0.2292 -1.5588
 6675TIP3    H241517   1.884   1.952  10.204 -1.2613 -0.1996 -0.7466
 6676TIP3   OH241518   5.084   6.736  16.806 -0.0688 -0.4245 -0.0744
 6676TIP3    H141519   5.167   6.719  16.852 -1.7273 -4.2478  1.8979
 6676TIP3    H241520   5.056   6.821  16.840  2.5373  0.5629 -0.1180
 6677TIP3   OH241521   1.041   1.073  12.310  0.3686 -0.3284  0.1425
 6677TIP3    H141522   1.125   1.051  12.350  0.7538  2.0963  0.8230
 6677TIP3    H241523   0.981   1.086  12.384 -0.5871 -1.8397 -0.3277
 6678TIP3   OH241524   0.965   6.671   3.576  0.5016 -0.5259  0.5290
 6678TIP3    H141525   0.909   6.705   3.646 -2.8239  2.2546 -3.0054
 6678TIP3    H241526   0.991   6.748   3.525  2.9778 -2.3228 -1.2142
 6679TIP3   OH241527   6.132   4.846   2.227  0.5098 -0.3444 -0.3331
 6679TIP3    H141528   6.226   4.866   2.231  0.6382 -1.0401  0.3910
 6679TIP3    H241529   6.099   4.902   2.157  1.3237  0.4632 -0.0900
 6680TIP3   OH241530   4.236   3.179   0.855  0.5203 -0.1499  0.1158
 6680TIP3    H141531   4.256   3.222   0.938  0.8914 -0.0254 -0.0365
 6680TIP3    H241532   4.146   3.148   0.865  0.4881  0.0588  0.4814
 6681TIP3   OH241533   6.760   2.525  10.268 -0.0492  0.6491 -0.6588
 6681TIP3    H141534   6.815   2.558  10.339  1.3619  0.7166 -1.7536
 6681TIP3    H241535   6.759   2.596  10.204  0.3317 -0.1715 -1.5937
 6682TIP3   OH241536   1.474   0.832   2.981 -0.0193  0.2136 -0.0596
 6682TIP3    H141537   1.442   0.922   2.979 -1.8938 -0.4071 -0.2937
 6682TIP3    H241538   1.566   0.839   3.005 -0.0468  2.2021 -0.4117
 6683TIP3   OH241539   0.104   3.875   5.922  0.3147  0.6194 -0.0985
 6683TIP3    H141540   0.180   3.898   5.976 -0.3724  0.7182  0.8511
 6683TIP3    H241541   0.050   3.821   5.979  0.7069 -1.3249 -1.4847
 6684TIP3   OH241542   5.680   4.236   6.040  0.4293  0.4859  0.5179
 6684TIP3    H141543   5.688   4.249   6.135  0.5962  0.2279  0.5408
 6684TIP3    H241544   5.770   4.225   6.010  0.3439  0.0601  0.4054
 6685TIP3   OH241545   4.668   0.077  12.293  0.5083 -0.2720  0.7361
 6685TIP3    H141546   4.748   0.029  12.270  0.1580  0.0827 -1.4904
 6685TIP3    H241547   4.674   0.159  12.243 -1.7718 -0.7694 -0.5034
 6686TIP3   OH241548   6.591   5.812   1.347 -0.3049 -0.4249  0.1053
 6686TIP3    H141549   6.679   5.843   1.367  0.5109 -1.5360 -1.4913
 6686TIP3    H241550   6.586   5.725   1.387 -0.4120 -0.6415 -0.3638
 6687TIP3   OH241551   6.490   6.536  16.596 -0.6043  0.6215  0.1148
 6687TIP3    H141552   6.541   6.580  16.529 -1.2282 -0.3148 -1.0046
 6687TIP3    H241553   6.400   6.537  16.564 -0.9345  0.2202  0.9753
 6688TIP3   OH241554   0.177   2.890  16.206 -0.1932 -0.3555 -0.4960
 6688TIP3    H141555   0.192   2.983  16.187  0.2367  0.0816  1.7111
 6688TIP3    H241556   0.087   2.886  16.236 -0.6313 -0.9063 -1.8123
 6689TIP3   OH241557   2.814   2.509   3.203 -0.2693  0.0312  0.2371
 6689TIP3    H141558   2.812   2.588   3.257  1.0897 -0.3572  0.9026
 6689TIP3    H241559   2.793   2.541   3.115  1.3222  1.3668  0.2722
 6690TIP3   OH241560   6.839   1.847  16.749 -0.4063 -0.2318  0.3608
 6690TIP3    H141561   6.795   1.902  16.684  0.4924  0.1396  0.0532
 6690TIP3    H241562   6.777   1.843  16.822 -0.5676  1.0512  0.3231
 6691TIP3   OH241563   5.596   4.336  12.730  0.2302 -0.2271  0.0323
 6691TIP3    H141564   5.504   4.338  12.704 -0.1533  0.0286  1.3050
 6691TIP3    H241565   5.618   4.243  12.731  0.1014 -0.2682 -0.6471
 6692TIP3   OH241566   4.700   1.348  11.769 -0.1673  0.3935  0.0501
 6692TIP3    H141567   4.777   1.328  11.823 -0.6195 -0.2018  0.4795
 6692TIP3    H241568   4.672   1.435  11.799 -0.4272  0.0581  0.7818
 6693TIP3   OH241569   6.121   5.288   0.940 -0.6650  0.1764 -0.0282
 6693TIP3    H141570   6.158   5.268   1.026  1.0370  0.2972 -0.6793
 6693TIP3    H241571   6.151   5.217   0.884 -0.4988  0.8624 -0.8296
 6694TIP3   OH241572   0.464   0.113  13.783 -0.6442  0.3183 -0.7580
 6694TIP3    H141573   0.426   0.193  13.818 -0.3523  0.4741 -0.7989
 6694TIP3    H241574   0.558   0.128  13.784 -0.2529 -1.3574  2.6436
 6695TIP3   OH241575   5.104   0.448  15.436  0.2375  0.2315 -0.0819
 6695TIP3    H141576   5.176   0.483  15.384 -0.1240  0.1047 -0.6833
 6695TIP3    H241577   5.113   0.489  15.522  1.9087 -0.9042  0.3479
 6696TIP3   OH241578   1.683   2.691  16.204  0.5666  0.4951  0.4504
 6696TIP3    H141579   1.743   2.663  16.135 -0.0070 -1.2281  0.6093
 6696TIP3    H241580   1.656   2.779  16.179 -1.0606 -0.7315 -2.5380
 6697TIP3   OH241581   1.511   5.545   2.776  0.1628 -0.2870 -0.4769
 6697TIP3    H141582   1.449   5.618   2.775  1.4449  0.8275 -0.8174
 6697TIP3    H241583   1.572   5.563   2.705  1.6875 -0.6410  0.6913
 6698TIP3   OH241584   5.660   2.615  13.042  1.1005 -0.1076  0.0384
 6698TIP3    H141585   5.755   2.608  13.041  1.4168  2.7577 -1.1356
 6698TIP3    H241586   5.635   2.607  12.950  0.3533  0.3561  0.1925
 6699TIP3   OH241587   5.007   1.281  13.810  0.5555 -0.0762 -0.4239
 6699TIP3    H141588   5.084   1.329  13.781  0.8330 -0.6092 -0.5930
 6699TIP3    H241589   4.934   1.325  13.767  0.8376 -0.0287 -0.8705
 6700TIP3   OH241590   5.472   2.458  13.887 -0.2768 -0.5824 -0.3755
 6700TIP3    H141591   5.414   2.481  13.960 -1.5472  0.2284 -1.6094
 6700TIP3    H241592   5.442   2.512  13.814  2.2978  0.1927 -0.9786
 6701TIP3   OH241593   1.272   6.219   3.164 -0.0246  0.5048  0.2549
 6701TIP3    H141594   1.179   6.241   3.173  0.0746  0.3414  1.9493
 6701TIP3    H241595   1.274   6.124   3.163  0.0501  0.4926 -1.0992
 6702TIP3   OH241596   5.745   1.940   5.437 -1.0435 -0.1084  0.6009
 6702TIP3    H141597   5.734   1.912   5.346  1.5106  3.9815 -1.2594
 6702TIP3    H241598   5.817   1.887   5.470 -0.5088 -0.1224 -0.5470
 6703TIP3   OH241599   2.555   0.190  10.440 -0.3592  0.1786 -0.3051
 6703TIP3    H141600   2.488   0.130  10.405  0.6466 -0.9000 -0.4398
 6703TIP3    H241601   2.607   0.136  10.500  0.4792  0.9584 -0.3063
 6704TIP3   OH241602   0.902   4.061   3.118 -0.4689  0.1141  0.0531
 6704TIP3    H141603   0.893   3.967   3.134  0.3524  0.0755  0.3489
 6704TIP3    H241604   0.832   4.082   3.056  0.7318 -1.1525 -1.8374
 6705TIP3   OH241605   5.396   0.555  16.493  0.2695  0.2991 -0.2489
 6705TIP3    H141606   5.351   0.472  16.507  0.4077  0.3856  0.8058
 6705TIP3    H241607   5.326   0.618  16.478  0.0611  0.3308  0.8226
 6706TIP3   OH241608   2.144   5.276  14.824 -0.0032  0.6625 -0.5339
 6706TIP3    H141609   2.077   5.307  14.885  0.8425  2.4021 -0.4383
 6706TIP3    H241610   2.221   5.260  14.879  0.0053 -0.2256 -0.7992
 6707TIP3   OH241611   1.496   2.414  15.303 -0.2746  0.4923 -0.2796
 6707TIP3    H141612   1.589   2.435  15.301 -0.1523  0.4941  2.3384
 6707TIP3    H241613   1.452   2.499  15.301 -0.2594  0.4933 -1.4444
 6708TIP3   OH241614   6.394   5.915   0.339  0.2395  0.0039  0.3653
 6708TIP3    H141615   6.329   5.962   0.391  1.0502  0.2568  1.1733
 6708TIP3    H241616   6.401   5.829   0.381 -0.4156 -0.4434 -0.4255
 6709TIP3   OH241617   1.403   4.532  15.293 -0.6233 -0.0406  0.2025
 6709TIP3    H141618   1.449   4.471  15.236 -0.5095  0.8219 -0.6560
 6709TIP3    H241619   1.338   4.479  15.339 -0.5844 -0.7869 -0.5921
 6710TIP3   OH241620   0.196   4.396   2.321 -0.9164 -0.1168 -0.5204
 6710TIP3    H141621   0.190   4.363   2.411 -1.4133 -1.3291 -0.9814
 6710TIP3    H241622   0.125   4.352   2.275  0.2079 -0.6026 -1.8465
 6711TIP3   OH241623   0.999   0.985  13.465  0.1211  0.1509 -0.5862
 6711TIP3    H141624   1.023   1.009  13.375 -1.7470 -1.3031 -1.5538
 6711TIP3    H241625   0.928   0.922  13.454  0.8413 -1.2207  1.9029
 6712TIP3   OH241626   0.185   5.959   5.037  0.1938  0.2436  0.1128
 6712TIP3    H141627   0.160   6.004   5.118 -0.5507 -0.0574  0.0609
 6712TIP3    H241628   0.251   5.896   5.065 -1.1561 -0.9389  0.7934
 6713TIP3   OH241629   5.645   3.170   4.241 -0.2718  0.1790  0.4509
 6713TIP3    H141630   5.722   3.180   4.297  0.6024  0.7860 -0.7991
 6713TIP3    H241631   5.571   3.174   4.301  0.6853 -1.2615  1.7886
 6714TIP3   OH241632   1.851   1.495  12.291  0.1030 -0.4762  0.1387
 6714TIP3    H141633   1.886   1.512  12.379  1.5493 -1.2762 -0.2425
 6714TIP3    H241634   1.903   1.422  12.259 -0.8718 -0.6409 -1.1338
 6715TIP3   OH241635   4.648   6.095  10.847  0.2930  0.7180  0.1341
 6715TIP3    H141636   4.597   6.036  10.791  0.9630 -0.0364  0.2886
 6715TIP3    H241637   4.685   6.159  10.787  2.6007 -1.1995 -0.6817
 6716TIP3   OH241638   3.081   0.659  13.066 -0.5780  0.2306  0.2353
 6716TIP3    H141639   3.052   0.585  13.120 -0.1210  0.3848  0.7011
 6716TIP3    H241640   3.174   0.642  13.050 -0.1398  1.3577  1.4422
 6717TIP3   OH241641   3.427   6.226  13.761 -0.0267  0.0334 -0.4878
 6717TIP3    H141642   3.390   6.186  13.683 -1.8201  0.4004  0.1104
 6717TIP3    H241643   3.457   6.313  13.732  1.3089 -0.6280 -1.1851
 6718TIP3   OH241644   3.254   6.199   6.551 -0.3305 -0.5112 -0.5190
 6718TIP3    H141645   3.168   6.210   6.510  0.0973 -0.9104 -1.5627
 6718TIP3    H241646   3.297   6.132   6.498  1.8472  1.8987 -2.0457
 6719TIP3   OH241647   6.102   1.295   2.683 -0.0169 -1.2389 -0.2400
 6719TIP3    H141648   6.126   1.258   2.767  0.5836  0.6072  0.4457
 6719TIP3    H241649   6.129   1.229   2.619  2.4744 -1.3305  0.8111
 6720TIP3   OH241650   3.286   2.689   0.046  0.7760 -0.1091 -0.1506
 6720TIP3    H141651   3.368   2.686  -0.003 -0.1471 -0.7709 -1.7515
 6720TIP3    H241652   3.262   2.598   0.060 -0.3483  0.0385 -0.9297
 6721TIP3   OH241653   1.636   5.996  12.666  0.2949  0.3401 -0.3164
 6721TIP3    H141654   1.706   5.963  12.609  0.1296  2.0399 -1.5930
 6721TIP3    H241655   1.623   6.086  12.637 -2.6574 -0.0166 -0.3549
 6722TIP3   OH241656   3.527   4.484  16.513  0.0366  0.3395  0.5294
 6722TIP3    H141657   3.556   4.463  16.425 -0.8047 -0.4536  0.4209
 6722TIP3    H241658   3.581   4.430  16.570 -1.4471 -1.4797  0.3029
 6723TIP3   OH241659   2.017   3.257  11.970 -0.2894 -0.3805 -0.1182
 6723TIP3    H141660   2.005   3.306  11.888 -1.2483 -1.0390 -0.3916
 6723TIP3    H241661   1.931   3.262  12.013  0.2671  0.1640  0.9837
 6724TIP3   OH241662   6.015   1.860   1.612 -0.5048 -0.0502  0.2449
 6724TIP3    H141663   6.044   1.885   1.525  2.1806  1.3296  1.4145
 6724TIP3    H241664   5.920   1.874   1.611 -0.4952  0.1949 -2.3301
 6725TIP3   OH241665   4.095   5.114   2.787 -0.1558  0.2770  0.1715
 6725TIP3    H141666   4.027   5.141   2.848 -0.3533 -0.2563  0.1965
 6725TIP3    H241667   4.100   5.019   2.798  0.8732  0.3496  0.4660
 6726TIP3   OH241668   2.546   5.235  12.089  0.0563 -0.1940 -0.5118
 6726TIP3    H141669   2.611   5.249  12.020 -1.4292 -1.9578 -2.3879
 6726TIP3    H241670   2.469   5.284  12.061  0.1801  1.0921  1.2036
 6727TIP3   OH241671   0.605   0.415   0.894  0.1759 -0.1201 -0.4104
 6727TIP3    H141672   0.571   0.357   0.825 -1.7581  1.1622 -0.6280
 6727TIP3    H241673   0.636   0.493   0.847 -0.6193  0.5223  0.0967
 6728TIP3   OH241674   0.300   2.354  13.318 -0.3064  0.1651  0.2102
 6728TIP3    H141675   0.332   2.278  13.270  1.3009  0.3877  0.8901
 6728TIP3    H241676   0.290   2.323  13.408  0.6628  0.8299  0.5577
 6729TIP3   OH241677   0.809   3.690   5.906 -0.0855 -0.0969  0.2203
 6729TIP3    H141678   0.758   3.645   5.839 -0.3916 -0.5229  0.7349
 6729TIP3    H241679   0.791   3.783   5.890 -1.7180 -0.2502  0.8995
 6730TIP3   OH241680   3.639   0.966   0.791 -0.1271 -0.1973  0.7344
 6730TIP3    H141681   3.607   1.050   0.758  1.3521 -0.7968 -2.6321
 6730TIP3    H241682   3.598   0.900   0.735  2.8452 -1.2838 -0.3738
 6731TIP3   OH241683   5.243   4.989   2.767 -0.0781 -0.5855 -0.0532
 6731TIP3    H141684   5.260   5.074   2.728  0.5674 -0.8781 -0.4207
 6731TIP3    H241685   5.188   4.944   2.704  0.1530 -0.6942 -0.1787
 6732TIP3   OH241686   1.286   2.875  15.616  0.2147  0.0079 -0.1723
 6732TIP3    H141687   1.237   2.825  15.551 -0.9727 -1.5973  1.8275
 6732TIP3    H241688   1.340   2.810  15.660 -0.3003  0.6859  1.5656
 6733TIP3   OH241689   5.634   2.042   3.798 -0.5257  0.3096 -0.3837
 6733TIP3    H141690   5.606   1.988   3.872 -0.2516  0.4335 -0.1894
 6733TIP3    H241691   5.727   2.059   3.814 -0.0207 -1.0622 -1.6202
 6734TIP3   OH241692   5.349   1.387   0.646 -0.2675 -0.1667  0.5198
 6734TIP3    H141693   5.385   1.333   0.717  2.6845  1.6278  0.5764
 6734TIP3    H241694   5.280   1.439   0.688  0.9361  0.3419  1.9493
 6735TIP3   OH241695   4.923   1.126  12.563  0.3174 -0.3609 -0.5932
 6735TIP3    H141696   4.849   1.110  12.622  0.8444 -0.0913  0.1589
 6735TIP3    H241697   4.979   1.049  12.573  0.7885  0.0256 -0.1365
 6736TIP3   OH241698   5.671   6.369   1.341 -0.2032 -0.1879  0.0959
 6736TIP3    H141699   5.630   6.404   1.420  1.4885  0.7381  0.6032
 6736TIP3    H241700   5.618   6.292   1.319 -0.0367 -1.1714  2.7889
 6737TIP3   OH241701   1.208   5.429   0.646 -0.1312  0.3085 -0.2679
 6737TIP3    H141702   1.214   5.507   0.591  0.2148  1.7924  1.7694
 6737TIP3    H241703   1.125   5.440   0.694 -1.3924 -1.8900 -1.7451
 6738TIP3   OH241704   0.746   5.458  14.745  0.9872  0.0593 -0.1986
 6738TIP3    H141705   0.809   5.404  14.697  0.2674 -2.2348  1.2887
 6738TIP3    H241706   0.793   5.486  14.824  0.7614  0.0152 -0.0479
 6739TIP3   OH241707   4.277   1.706  12.421  0.1524  0.5914 -0.1501
 6739TIP3    H141708   4.230   1.631  12.456  0.3997  0.5339  0.0622
 6739TIP3    H241709   4.360   1.670  12.390 -0.3249  0.5300 -1.4018
 6740TIP3   OH241710   3.490   5.520  13.527  0.1221 -0.1814 -0.0623
 6740TIP3    H141711   3.537   5.585  13.474 -1.0757 -0.1555 -1.1631
 6740TIP3    H241712   3.464   5.453  13.464  0.3289 -1.1446  0.8638
 6741TIP3   OH241713   6.789   3.679  13.205 -0.6166 -0.2449  0.2534
 6741TIP3    H141714   6.751   3.767  13.212  1.1765  0.6359 -0.5028
 6741TIP3    H241715   6.870   3.684  13.256  0.7086 -0.7102 -1.7289
 6742TIP3   OH241716   0.022   1.371  15.497 -0.4235  0.2429 -0.8892
 6742TIP3    H141717  -0.011   1.422  15.423 -3.0015  0.0162 -0.0242
 6742TIP3    H241718   0.001   1.425  15.574  1.5990  0.1807 -0.2390
 6743TIP3   OH241719   3.866   3.364  12.701  0.2477 -0.1182  0.0620
 6743TIP3    H141720   3.864   3.455  12.729 -2.4306 -0.1667  0.2633
 6743TIP3    H241721   3.863   3.368  12.605 -1.8523  0.0769  0.0867
 6744TIP3   OH241722   6.594   5.817  13.822  0.5695 -0.2433 -0.7427
 6744TIP3    H141723   6.563   5.903  13.850  1.5756  0.1133 -0.7059
 6744TIP3    H241724   6.651   5.788  13.894 -0.1307 -1.1516 -0.5396
 6745TIP3   OH241725   2.856   4.205  13.167  0.3640  0.2671  0.5281
 6745TIP3    H141726   2.917   4.134  13.147 -1.0308 -1.1522  1.1136
 6745TIP3    H241727   2.838   4.197  13.261  0.2255  1.4491  0.6268
 6746TIP3   OH241728   0.129   5.904   3.760  0.2624 -0.1138  0.3866
 6746TIP3    H141729   0.172   5.859   3.688  0.3101  0.1183  0.2685
 6746TIP3    H241730   0.143   5.997   3.743 -1.8019  0.0802 -0.6532
 6747TIP3   OH241731   6.307   2.542  14.159  0.2729 -0.1462 -0.0134
 6747TIP3    H141732   6.379   2.489  14.191 -1.5090 -0.5948  3.8569
 6747TIP3    H241733   6.233   2.518  14.215 -2.6525  1.0556 -3.0092
 6748TIP3   OH241734   0.692   4.474   2.817  0.2752  0.4420  0.5598
 6748TIP3    H141735   0.691   4.522   2.734 -1.3554  1.5233  1.1558
 6748TIP3    H241736   0.774   4.425   2.815 -0.9685 -1.8989 -2.9973
 6749TIP3   OH241737   3.671   1.882  10.675 -0.4216  0.1148  0.0348
 6749TIP3    H141738   3.690   1.959  10.728 -1.5632 -0.0252  0.6715
 6749TIP3    H241739   3.579   1.863  10.692 -1.4637  1.2089 -3.4830
 6750TIP3   OH241740   4.537   6.598  12.934 -0.7864  0.5899 -0.5959
 6750TIP3    H141741   4.498   6.682  12.912 -1.9114  0.3651  0.4634
 6750TIP3    H241742   4.599   6.618  13.005 -1.2747  0.4919 -0.1359
 6751TIP3   OH241743   5.484   2.685   3.200  0.5104  0.1481  0.2588
 6751TIP3    H141744   5.572   2.656   3.177 -0.2363 -0.7568 -1.6698
 6751TIP3    H241745   5.493   2.780   3.212  1.6872  0.1268 -0.2933
 6752TIP3   OH241746   1.324   6.673  12.065 -0.1814  0.2662  0.2206
 6752TIP3    H141747   1.385   6.714  12.004  1.4987  0.3221  1.8452
 6752TIP3    H241748   1.259   6.740  12.083 -0.6693  0.2652 -1.4252
 6753TIP3   OH241749   2.912   1.467   2.903 -0.0161  0.5446 -0.0483
 6753TIP3    H141750   2.995   1.511   2.919  0.9320 -1.1497 -0.0693
 6753TIP3    H241751   2.893   1.421   2.985 -0.4343  0.1535 -0.3582
 6754TIP3   OH241752   2.669   5.724   2.653  0.0665 -0.1520  0.1307
 6754TIP3    H141753   2.625   5.765   2.579 -0.4688  2.4025  1.7391
 6754TIP3    H241754   2.708   5.797   2.701  1.0624 -1.7898  1.9407
 6755TIP3   OH241755   0.143   1.266  12.160  0.0874  0.4143 -0.1055
 6755TIP3    H141756   0.099   1.268  12.245 -2.3214 -1.7984 -1.1707
 6755TIP3    H241757   0.072   1.266  12.096  1.7475 -0.2704 -2.0549
 6756TIP3   OH241758   6.062   2.855   2.694  0.0362 -0.0220  0.0776
 6756TIP3    H141759   6.089   2.779   2.643  0.2199 -0.6227  1.0519
 6756TIP3    H241760   5.967   2.859   2.682 -0.0235 -0.6275  0.3122
 6757TIP3   OH241761   5.807   1.010  12.307  0.0652 -0.9642  0.0888
 6757TIP3    H141762   5.787   1.063  12.230 -0.3064 -1.3026 -0.0482
 6757TIP3    H241763   5.723   0.973  12.333 -0.2366  0.8146  1.9212
 6758TIP3   OH241764   3.457   5.138  14.412 -0.1224 -0.4446 -0.6627
 6758TIP3    H141765   3.535   5.089  14.439 -1.4779 -2.8096 -0.8056
 6758TIP3    H241766   3.384   5.095  14.457 -1.3258  2.2342  0.1448
 6759TIP3   OH241767   0.899   3.546  13.515  0.6974  0.0147 -0.2609
 6759TIP3    H141768   0.934   3.587  13.594  2.0079  0.6734 -1.1474
 6759TIP3    H241769   0.851   3.469  13.547  1.0884  0.3452  1.1741
 6760TIP3   OH241770   1.492   4.833   0.127 -0.3379 -0.1442 -0.4925
 6760TIP3    H141771   1.535   4.751   0.102 -1.4651 -0.3792 -1.7087
 6760TIP3    H241772   1.400   4.820   0.107 -0.8978  0.6482  1.3476
 6761TIP3   OH241773   6.791   5.200  16.760 -0.4821 -0.5480 -0.2049
 6761TIP3    H141774   6.786   5.118  16.809  0.1714 -1.0997 -1.0229
 6761TIP3    H241775   6.840   5.260  16.817  0.5749 -1.2856 -0.2953
 6762TIP3   OH241776   3.710   1.508  12.824  0.5250 -0.9294  0.2755
 6762TIP3    H141777   3.793   1.550  12.846 -0.3347  1.2578 -0.3232
 6762TIP3    H241778   3.643   1.568  12.857 -0.7982  0.2019 -3.8081
 6763TIP3   OH241779   6.223   6.244   3.302 -0.6356  0.2177 -0.0218
 6763TIP3    H141780   6.286   6.178   3.272  0.0911  0.3721  1.0739
 6763TIP3    H241781   6.150   6.194   3.337 -0.2306 -0.0196  0.5061
 6764TIP3   OH241782   1.543   0.104  16.386 -0.2088 -0.3732 -0.2053
 6764TIP3    H141783   1.523   0.014  16.414 -2.2223 -0.6450 -2.2012
 6764TIP3    H241784   1.612   0.094  16.321  0.1183 -0.3820  0.1388
 6765TIP3   OH241785   2.337   2.063   1.532  0.8315  0.3093  0.3460
 6765TIP3    H141786   2.247   2.096   1.539  0.8853  0.5511 -0.0331
 6765TIP3    H241787   2.361   2.082   1.441  1.2639  0.2388  0.4473
 6766TIP3   OH241788   5.823   2.407   2.052  0.5853  0.6274 -0.4030
 6766TIP3    H141789   5.859   2.494   2.073  0.7607  0.7732 -1.3009
 6766TIP3    H241790   5.883   2.346   2.095 -0.9135  0.9531  2.4329
 6767TIP3   OH241791   3.360   0.201   1.453 -0.1314 -0.1596 -0.4597
 6767TIP3    H141792   3.337   0.119   1.496 -0.9655 -0.2538 -1.0659
 6767TIP3    H241793   3.353   0.267   1.523  1.7275 -0.7317  0.3351
 6768TIP3   OH241794   4.760   6.210   4.305  0.8646  0.0670 -0.5189
 6768TIP3    H141795   4.799   6.211   4.217  1.6462  1.1322 -0.1795
 6768TIP3    H241796   4.831   6.178   4.361  0.6377  0.1967 -0.1601
 6769TIP3   OH241797   2.186   1.703   1.707 -0.5924  0.0712 -0.3625
 6769TIP3    H141798   2.109   1.645   1.700 -0.6288 -0.1022  1.1312
 6769TIP3    H241799   2.156   1.776   1.761  0.2380  0.0868  0.0922
 6770TIP3   OH241800   3.973   6.085  11.391  0.6263 -0.8840 -0.4405
 6770TIP3    H141801   4.030   6.140  11.336  0.1162 -0.2590 -0.3509
 6770TIP3    H241802   4.033   6.047  11.456  1.1020 -1.0026 -0.9364
 6771TIP3   OH241803   5.527   5.276   4.375  0.2457 -0.1441  0.1596
 6771TIP3    H141804   5.619   5.250   4.373  0.3382  0.1788  0.0325
 6771TIP3    H241805   5.512   5.317   4.289 -0.1552 -0.6601 -0.0187
 6772TIP3   OH241806   3.244   3.423   5.860  0.2549 -0.2955  0.1968
 6772TIP3    H141807   3.263   3.480   5.934  0.4155 -0.8118  0.5575
 6772TIP3    H241808   3.271   3.473   5.783 -0.3422  0.4319  0.4447
 6773TIP3   OH241809   5.915   0.360   3.198  0.1992 -0.4682 -0.1352
 6773TIP3    H141810   5.840   0.370   3.255 -0.2928  0.4947 -0.9247
 6773TIP3    H241811   5.951   0.448   3.188  1.2080 -0.8533 -0.0757
 6774TIP3   OH241812   6.466   6.435   6.396  0.0421  0.2411 -0.2847
 6774TIP3    H141813   6.411   6.513   6.405 -0.2072  0.2100 -1.4597
 6774TIP3    H241814   6.404   6.362   6.395  0.1815  0.1248 -0.4819
 6775TIP3   OH241815   1.173   5.161  15.817 -0.4892  0.0659  0.6953
 6775TIP3    H141816   1.194   5.221  15.888 -0.0122 -1.2324  1.6926
 6775TIP3    H241817   1.242   5.095  15.820 -0.6530 -0.2081 -0.7709
 6776TIP3   OH241818   1.909   4.311   0.386  0.0847  0.6553  0.0820
 6776TIP3    H141819   1.872   4.380   0.330  1.6454  2.0864  0.7298
 6776TIP3    H241820   1.942   4.246   0.325 -0.2259  1.1139 -0.5930
 6777TIP3   OH241821   1.421   6.740   1.060  0.5006 -0.0353 -0.0470
 6777TIP3    H141822   1.469   6.658   1.048 -1.0677 -0.8244 -1.2391
 6777TIP3    H241823   1.418   6.753   1.155  2.2128 -0.4495  0.0902
 6778TIP3   OH241824   0.555   5.629   2.079 -0.2910  0.2664 -0.3785
 6778TIP3    H141825   0.643   5.599   2.103 -0.2977 -1.1121 -1.9401
 6778TIP3    H241826   0.496   5.566   2.119 -0.4430 -0.1088 -1.1659
 6779TIP3   OH241827   1.676   0.766  16.776 -0.1423 -0.1150 -0.2742
 6779TIP3    H141828   1.588   0.772  16.738 -0.6072 -2.2370  0.3056
 6779TIP3    H241829   1.735   0.787  16.703 -1.0997 -1.1943 -1.4087
 6780TIP3   OH241830   3.052   6.498   5.947 -0.3712  0.4844  0.1703
 6780TIP3    H141831   2.993   6.434   5.986 -0.5275  0.5106 -0.0206
 6780TIP3    H241832   3.139   6.457   5.951 -0.4917  0.2035 -0.0777
 6781TIP3   OH241833   2.870   2.588  10.694  0.0129  0.1289  0.1699
 6781TIP3    H141834   2.776   2.600  10.679  0.2289  0.1574 -1.3374
 6781TIP3    H241835   2.908   2.588  10.606  1.4025 -0.1029  0.7503
 6782TIP3   OH241836   3.698   0.678  15.518 -0.2607 -0.0838  0.0725
 6782TIP3    H141837   3.638   0.629  15.574  0.8312 -1.4863  0.0771
 6782TIP3    H241838   3.752   0.611  15.476  0.1448  1.0312 -1.2879
 6783TIP3   OH241839   3.359   3.323   2.121  0.4069  0.4807 -0.0526
 6783TIP3    H141840   3.345   3.408   2.080 -1.9322  0.8743  1.3752
 6783TIP3    H241841   3.433   3.337   2.180 -0.8188  1.9836  1.2029
 6784TIP3   OH241842   3.340   1.527   0.781 -0.3050  0.2471  0.0322
 6784TIP3    H141843   3.397   1.517   0.705 -0.3608 -0.5972  0.0867
 6784TIP3    H241844   3.396   1.564   0.849 -0.0404  0.2182 -0.1694
 6785TIP3   OH241845   6.576   0.064  16.323  0.2393 -0.0751 -0.1886
 6785TIP3    H141846   6.645   0.117  16.362  0.5933 -0.5462 -0.1582
 6785TIP3    H241847   6.604   0.050  16.232  0.5029 -0.7669 -0.0148
 6786TIP3   OH241848   5.265   0.227   3.589  0.5000  0.0105 -0.2266
 6786TIP3    H141849   5.223   0.202   3.507  0.2797 -0.1104 -0.0765
 6786TIP3    H241850   5.193   0.244   3.650  0.5806  2.1456 -0.6412
 6787TIP3   OH241851   0.231   3.680  16.611 -0.2020  0.3654 -0.2968
 6787TIP3    H141852   0.209   3.737  16.685  0.9565 -0.0749  0.4127
 6787TIP3    H241853   0.199   3.594  16.636 -0.7007  0.4066 -0.7650
 6788TIP3   OH241854   6.747   4.028   2.836  0.2547  0.1492  0.1448
 6788TIP3    H141855   6.767   4.094   2.770  0.0711 -0.1416 -0.2097
 6788TIP3    H241856   6.657   4.001   2.816 -0.4104  1.2467  1.5405
 6789TIP3   OH241857   0.022   4.880   2.232 -0.3276 -0.1040  0.1032
 6789TIP3    H141858   0.047   4.807   2.290 -0.5071 -1.0573 -0.9952
 6789TIP3    H241859   0.105   4.911   2.196 -0.4159 -1.5556 -1.5022
 6790TIP3   OH241860   2.975   1.401   0.493  0.2428 -0.2911  0.3442
 6790TIP3    H141861   2.970   1.411   0.398  0.1210 -0.6390  0.3129
 6790TIP3    H241862   3.049   1.456   0.519  1.1351 -1.2355 -0.1132
 6791TIP3   OH241863   3.446   4.681   1.412 -0.0305  0.0580 -0.1661
 6791TIP3    H141864   3.426   4.685   1.319 -2.1280  0.3049  0.2547
 6791TIP3    H241865   3.390   4.611   1.446  0.1176  0.4914  1.0388
 6792TIP3   OH241866   2.741   3.717   0.712  0.0147  0.2340 -0.6412
 6792TIP3    H141867   2.799   3.700   0.638  0.3486 -2.6823  0.1582
 6792TIP3    H241868   2.672   3.651   0.704 -1.4602  1.6243  0.1681
 6793TIP3   OH241869   3.462   0.871  16.471 -0.0208 -0.1153 -0.2191
 6793TIP3    H141870   3.441   0.831  16.556 -2.6028  1.3291 -0.0765
 6793TIP3    H241871   3.497   0.957  16.493  1.4238 -0.5861 -0.6079
 6794TIP3   OH241872   1.397   6.558   2.005  0.9396 -0.6419 -0.3288
 6794TIP3    H141873   1.347   6.497   2.060  1.1329 -0.0839  0.4916
 6794TIP3    H241874   1.486   6.551   2.038  0.6528  1.4789  1.1226
 6795TIP3   OH241875   3.321   0.579  14.997  0.5929  0.2145  0.6339
 6795TIP3    H141876   3.325   0.492  15.036 -0.6061 -1.3292 -2.4350
 6795TIP3    H241877   3.412   0.604  14.985  0.9777 -1.3628  0.0464
 6796TIP3   OH241878   2.859   5.354  14.503  0.1181 -0.2393 -0.5800
 6796TIP3    H141879   2.767   5.333  14.516  0.6869 -2.2160  0.7298
 6796TIP3    H241880   2.865   5.449  14.514 -1.3712 -0.3737  1.9936
 6797TIP3   OH241881   1.749   0.380  14.414 -0.1650 -0.2713  0.2370
 6797TIP3    H141882   1.771   0.465  14.453  0.1759 -0.5827  0.7233
 6797TIP3    H241883   1.834   0.337  14.401 -0.1386  0.3236 -2.0203
 6798TIP3   OH241884   5.073   0.242   6.244 -0.0868 -0.4062 -0.2339
 6798TIP3    H141885   5.150   0.193   6.275 -0.3582 -0.4644  0.3566
 6798TIP3    H241886   5.033   0.277   6.323 -0.9938 -0.8531 -0.4797
 6799TIP3   OH241887   4.047   2.425   3.319  0.7398  0.0201 -0.1109
 6799TIP3    H141888   4.140   2.422   3.341  0.7540 -0.3963 -0.2144
 6799TIP3    H241889   4.003   2.388   3.396  0.4516  2.5586  1.0182
 6800TIP3   OH241890   1.545   1.060   4.909 -0.5382 -0.5893  0.3300
 6800TIP3    H141891   1.561   1.068   4.815 -2.2624  0.0342  0.0544
 6800TIP3    H241892   1.536   0.965   4.924 -1.9762 -0.6159 -0.4841
 6801TIP3   OH241893   4.813   1.539  14.442 -0.4414 -0.3959 -0.3352
 6801TIP3    H141894   4.901   1.500  14.441  0.2257  0.9640  1.2026
 6801TIP3    H241895   4.828   1.633  14.436 -1.8401 -0.1582 -0.4436
 6802TIP3   OH241896   5.002   4.339  15.814  0.5567 -0.2929 -0.2356
 6802TIP3    H141897   4.969   4.378  15.733  0.2434 -0.5793 -0.2443
 6802TIP3    H241898   4.988   4.407  15.881 -0.9953 -0.7778 -0.0304
 6803TIP3   OH241899   0.382   1.973   4.960 -0.3147  0.0558  0.5615
 6803TIP3    H141900   0.304   2.009   4.919  0.2624 -0.2530 -0.8764
 6803TIP3    H241901   0.453   2.031   4.932  0.5085 -1.6692 -1.1768
 6804TIP3   OH241902   4.867   3.725   0.060  0.8142  0.0066 -0.5570
 6804TIP3    H141903   4.871   3.663   0.132  2.0940 -2.4342 -2.5645
 6804TIP3    H241904   4.827   3.803   0.098 -1.6843 -2.2434  1.9861
 6805TIP3   OH241905   0.208   0.110  16.444 -0.2064  0.1951 -0.4649
 6805TIP3    H141906   0.234   0.132  16.533 -1.2953  1.8624 -0.5221
 6805TIP3    H241907   0.290   0.111  16.394  0.4043 -0.7386  0.4874
 6806TIP3   OH241908   1.418   0.674   0.278  0.7995 -0.0644 -0.1363
 6806TIP3    H141909   1.425   0.592   0.327  0.6479 -0.3825 -0.6412
 6806TIP3    H241910   1.508   0.699   0.260  0.8588  0.0730  0.3273
 6807TIP3   OH241911   4.162   4.349   0.027  0.7649  1.0492 -0.1257
 6807TIP3    H141912   4.094   4.412   0.051  0.9818  1.9193 -1.6918
 6807TIP3    H241913   4.201   4.384  -0.053  0.4558 -1.4313 -1.4497
 6808TIP3   OH241914   1.190   0.242   5.565  0.2193 -0.0897 -0.2704
 6808TIP3    H141915   1.152   0.160   5.533 -0.4504 -0.1943  0.7627
 6808TIP3    H241916   1.273   0.250   5.517 -0.5357 -0.4542 -1.6901
 6809TIP3   OH241917   0.281   1.326   6.161  0.4730  0.1300  0.2347
 6809TIP3    H141918   0.285   1.415   6.125 -0.0874 -0.1570 -0.5871
 6809TIP3    H241919   0.187   1.310   6.174 -0.1053 -2.1009 -4.4091
 6810TIP3   OH241920   5.742   6.839   4.888  0.0812 -0.0803 -0.8444
 6810TIP3    H141921   5.758   6.928   4.859 -1.2172 -0.6541 -3.5600
 6810TIP3    H241922   5.827   6.795   4.880  0.8346  0.9233  0.9293
 6811TIP3   OH241923   5.787   4.283  16.621  0.3181 -0.1967  0.5246
 6811TIP3    H141924   5.799   4.377  16.605 -0.9528 -0.1913 -0.5128
 6811TIP3    H241925   5.812   4.242  16.539 -1.6677 -0.5456  0.0536
 6812TIP3   OH241926   5.211   4.350   4.172  0.4299 -0.4748  0.2085
 6812TIP3    H141927   5.216   4.411   4.246  2.3815 -1.7946  1.2199
 6812TIP3    H241928   5.159   4.277   4.204  0.6408 -0.7215 -0.0137
 6813TIP3   OH241929   5.303   5.455  12.162 -0.1953 -0.4386 -0.5324
 6813TIP3    H141930   5.391   5.422  12.147 -0.4957 -1.0290 -1.0122
 6813TIP3    H241931   5.287   5.440  12.255  0.4500  0.2746 -0.2920
 6814TIP3   OH241932   3.597   3.517  14.794 -0.4161 -0.2332 -0.0772
 6814TIP3    H141933   3.590   3.437  14.741 -2.3900 -0.2101  0.0538
 6814TIP3    H241934   3.506   3.542  14.810  0.1476  0.8110  1.7540
 6815TIP3   OH241935   6.593   5.572   0.445 -0.8890  0.1012 -0.2113
 6815TIP3    H141936   6.511   5.523   0.444  0.1522 -1.7639  0.5170
 6815TIP3    H241937   6.590   5.623   0.526  0.0824 -2.6961  1.7481
 6816TIP3   OH241938   3.292   0.874  11.860 -0.4762 -0.1240  0.2426
 6816TIP3    H141939   3.302   0.832  11.946  0.7229 -0.0048  0.1678
 6816TIP3    H241940   3.198   0.866  11.841 -1.0011  0.9510  2.1311
 6817TIP3   OH241941   2.932   1.704  12.770  0.0173  0.1791 -0.2586
 6817TIP3    H141942   2.841   1.689  12.797  0.0444  1.6044  0.7695
 6817TIP3    H241943   2.956   1.626  12.720 -0.5131 -2.0795  2.7215
 6818TIP3   OH241944   0.169   5.110   2.395  0.3382  0.4083  0.0286
 6818TIP3    H141945   0.182   5.129   2.488 -1.3695 -2.1117  0.9184
 6818TIP3    H241946   0.252   5.072   2.366  1.1772  2.0197  0.2497
 6819TIP3   OH241947   1.425   3.604   6.621  0.3244  1.0242 -0.6654
 6819TIP3    H141948   1.517   3.629   6.630  0.5951 -0.1348 -0.0906
 6819TIP3    H241949   1.427   3.517   6.582 -0.4556  0.2119  1.0124
 6820TIP3   OH241950   4.835   0.811   6.232  0.6286 -0.6301 -0.3948
 6820TIP3    H141951   4.921   0.838   6.263 -0.6347  0.7603  2.2426
 6820TIP3    H241952   4.838   0.715   6.232  1.9496 -0.6068  0.3613
 6821TIP3   OH241953   3.898   0.038   0.615 -0.0805 -0.2614  0.4792
 6821TIP3    H141954   3.867  -0.052   0.606 -1.2489  0.1782 -0.0202
 6821TIP3    H241955   3.936   0.042   0.703  5.5808 -2.8788 -1.3734
 6822TIP3   OH241956   2.096   1.563   2.044  0.1140  0.0715 -0.2572
 6822TIP3    H141957   2.161   1.512   2.093 -0.0045  1.3875  1.3733
 6822TIP3    H241958   2.041   1.498   2.001  0.4359 -1.1578  1.1082
 6823TIP3   OH241959   3.147   6.164  14.624 -0.5317 -0.1197 -0.1560
 6823TIP3    H141960   3.222   6.111  14.597 -0.0802  0.6734 -0.5073
 6823TIP3    H241961   3.173   6.254  14.604 -0.5385  0.4400  2.0742
 6824TIP3   OH241962   2.997   4.897  16.348  0.1429 -0.3351 -0.0941
 6824TIP3    H141963   2.947   4.868  16.271 -2.6853  3.7769 -0.1824
 6824TIP3    H241964   3.075   4.938  16.312  0.1116 -0.7059 -0.5855
 6825TIP3   OH241965   2.348   5.225  12.912 -0.5330 -0.1637 -0.6378
 6825TIP3    H141966   2.380   5.314  12.925 -1.1527  0.0508 -0.5231
 6825TIP3    H241967   2.337   5.217  12.817  0.8431 -0.5995 -0.7751
 6826TIP3   OH241968   0.109   2.339   4.772 -0.3846 -0.2035 -0.1930
 6826TIP3    H141969   0.113   2.415   4.713  0.3580  0.6133  0.8465
 6826TIP3    H241970   0.104   2.378   4.860  1.2518 -1.3241  0.4422
 6827TIP3   OH241971   6.617   3.873  11.918  0.0705  0.3417  0.4428
 6827TIP3    H141972   6.666   3.955  11.914 -3.9327  3.1621  2.2703
 6827TIP3    H241973   6.619   3.847  12.010  0.4563 -1.1088  0.0511
 6828TIP3   OH241974   6.268   6.201   2.900 -0.0589  0.6111 -0.0956
 6828TIP3    H141975   6.205   6.135   2.931 -0.7555  1.3081 -0.0059
 6828TIP3    H241976   6.353   6.165   2.923 -0.4425 -0.1533  0.1659
 6829TIP3   OH241977   0.095   5.204  10.844 -0.0232 -0.5802  0.9861
 6829TIP3    H141978   0.045   5.125  10.868 -0.0369 -0.2462  2.1186
 6829TIP3    H241979   0.033   5.258  10.795 -0.2068 -0.9926  0.7590
 6830TIP3   OH241980   4.751   1.075   0.718  0.0578 -0.6470  0.4175
 6830TIP3    H141981   4.705   1.121   0.648 -0.6418 -0.7973  0.7638
 6830TIP3    H241982   4.806   1.141   0.759  0.2442 -0.4904 -0.0761
 6831TIP3   OH241983   3.308   3.692   5.905  1.0694  0.7319 -0.3017
 6831TIP3    H141984   3.213   3.703   5.896  0.9337 -0.2410 -0.1048
 6831TIP3    H241985   3.339   3.669   5.817  0.5835 -2.6413  0.2809
 6832TIP3   OH241986   0.644   1.062  15.285 -0.2583 -0.3261  0.5370
 6832TIP3    H141987   0.674   1.129  15.347  0.4784  0.1818 -0.3446
 6832TIP3    H241988   0.685   1.086  15.202 -1.2791 -0.9542 -0.1712
 6833TIP3   OH241989   1.429   2.800   3.493  0.1971  0.1349 -0.1024
 6833TIP3    H141990   1.476   2.756   3.422  0.5459 -0.0294  0.2230
 6833TIP3    H241991   1.416   2.889   3.462 -3.1586 -0.8467 -2.0759
 6834TIP3   OH241992   0.493   5.462   5.799 -0.1921  0.0690 -0.0324
 6834TIP3    H141993   0.446   5.493   5.876 -0.1452  1.4351 -0.5298
 6834TIP3    H241994   0.426   5.418   5.746 -0.3232 -0.4340  0.5358
 6835TIP3   OH241995   4.727   1.190  12.102  0.4577 -0.1319  0.4613
 6835TIP3    H141996   4.765   1.135  12.034  0.6901  0.9453 -0.3125
 6835TIP3    H241997   4.793   1.191  12.172  0.9683  0.0776 -0.0102
 6836TIP3   OH241998   6.641   1.078  15.917 -0.4611  0.0218  0.0966
 6836TIP3    H141999   6.580   1.151  15.907 -0.5464  0.0074  0.4748
 6836TIP3    H242000   6.615   1.037  15.999 -0.2534 -0.2845  0.0099
 6837TIP3   OH242001   2.379   4.724  12.103  0.0531  0.2076  0.2752
 6837TIP3    H142002   2.325   4.717  12.024  0.6691  1.1275 -0.2542
 6837TIP3    H242003   2.453   4.665  12.085 -0.4056 -0.5246  0.7085
 6838TIP3   OH242004   6.279   0.051  15.233  0.3292  0.3287 -0.0443
 6838TIP3    H142005   6.342   0.100  15.286 -0.3132  1.3716 -0.2180
 6838TIP3    H242006   6.314  -0.038  15.231  1.4846  0.7523  0.3458
 6839TIP3   OH242007   3.541   5.090   3.522 -0.4836 -0.4985 -0.3254
 6839TIP3    H142008   3.614   5.148   3.501 -1.9160  0.6484 -2.4905
 6839TIP3    H242009   3.491   5.138   3.589  0.6776 -1.3190  1.2182
 6840TIP3   OH242010   3.323   6.387   0.927 -0.2699  0.0364  0.0259
 6840TIP3    H142011   3.257   6.435   0.978  1.8512  1.3866  1.6909
 6840TIP3    H242012   3.379   6.455   0.890 -0.8855 -0.9942 -3.0557
 6841TIP3   OH242013   1.937   5.268   4.488 -0.0362 -0.3113 -0.4780
 6841TIP3    H142014   1.858   5.226   4.456  0.0896 -0.5694 -0.4479
 6841TIP3    H242015   2.007   5.231   4.434  0.4915 -2.3253  1.4424
 6842TIP3   OH242016   5.049   5.608   3.584 -0.4505 -0.7590  0.1818
 6842TIP3    H142017   5.006   5.546   3.525 -2.0146  0.2944  0.1750
 6842TIP3    H242018   5.032   5.694   3.545  1.1360 -0.2577  0.5405
 6843TIP3   OH242019   4.457   4.161  15.718 -0.3328  0.1691 -0.3806
 6843TIP3    H142020   4.463   4.253  15.743  1.5738  0.1441 -0.6205
 6843TIP3    H242021   4.448   4.114  15.801  1.9002  0.3855  0.0540
 6844TIP3   OH242022   5.065   4.115   3.212  0.2332 -0.3534 -0.3935
 6844TIP3    H142023   5.060   4.207   3.239  2.3084  0.2848 -1.9051
 6844TIP3    H242024   5.000   4.107   3.143  0.1533  0.0359 -0.3681
 6845TIP3   OH242025   1.562   4.893   2.367  0.1476 -0.3471 -0.1757
 6845TIP3    H142026   1.562   4.930   2.456  0.5117 -0.5283 -0.0981
 6845TIP3    H242027   1.652   4.861   2.355  0.1991  0.0058 -0.7499
 6846TIP3   OH242028   6.073   2.267  14.188  0.4233 -0.3848 -0.5837
 6846TIP3    H142029   6.051   2.359  14.205  0.5347 -0.2153 -1.3115
 6846TIP3    H242030   5.992   2.219  14.206  0.1785 -0.0632 -0.8130
 6847TIP3   OH242031   3.939   3.966  11.422  0.2278 -0.2651 -0.1811
 6847TIP3    H142032   3.881   3.892  11.443 -0.3426 -0.2704 -1.6921
 6847TIP3    H242033   3.899   4.040  11.469 -1.9735  0.0662 -2.3534
 6848TIP3   OH242034   3.302   4.526   2.123 -0.5166 -0.2351  0.1339
 6848TIP3    H142035   3.348   4.575   2.055 -0.3234 -0.2389  0.2591
 6848TIP3    H242036   3.268   4.593   2.183  1.3767 -0.2780  1.3574
 6849TIP3   OH242037   0.945   6.252  14.625  0.3999 -0.5582 -0.2073
 6849TIP3    H142038   1.020   6.224  14.677 -0.5864  0.0192  1.6174
 6849TIP3    H242039   0.871   6.204  14.663 -0.4966  0.5854 -0.4534
 6850TIP3   OH242040   2.244   1.303  16.620 -0.2936  0.6886 -0.3055
 6850TIP3    H142041   2.288   1.219  16.631 -1.9738 -0.1997  0.0247
 6850TIP3    H242042   2.174   1.284  16.557  0.1253  2.1876 -1.2738
 6851TIP3   OH242043   2.587   1.356   0.970 -0.3410  0.4361  0.4446
 6851TIP3    H142044   2.523   1.295   0.935  0.8081  0.0990 -1.1795
 6851TIP3    H242045   2.547   1.442   0.960  0.1159  0.4287 -2.3407
 6852TIP3   OH242046   0.817   2.046   1.893 -0.1705 -0.2226 -0.5605
 6852TIP3    H142047   0.737   2.055   1.841  0.4818 -2.2948 -2.0701
 6852TIP3    H242048   0.793   1.986   1.963 -0.1582 -0.2010 -0.5381
 6853TIP3   OH242049   1.197   0.164   4.593  0.3290  0.3487 -0.0388
 6853TIP3    H142050   1.275   0.141   4.644 -1.1713 -0.5675  1.9957
 6853TIP3    H242051   1.172   0.250   4.626  1.6595  1.7008 -2.2921
 6854TIP3   OH242052   4.890   3.954   0.206 -0.3241 -0.5422  0.3482
 6854TIP3    H142053   4.979   3.987   0.215 -0.0319 -0.3224 -2.3536
 6854TIP3    H242054   4.839   4.001   0.272  1.1455  1.0874  0.3772
 6855TIP3   OH242055   4.742   5.197   3.549  0.0548  0.1689  0.7591
 6855TIP3    H142056   4.680   5.160   3.485 -1.7973  0.5046  2.2677
 6855TIP3    H242057   4.809   5.130   3.558 -0.3323 -0.4447 -0.5638
 6856TIP3   OH242058   6.700   3.704   5.839 -0.4952  0.1829  0.5793
 6856TIP3    H142059   6.745   3.688   5.922 -0.9787  0.8165  0.9742
 6856TIP3    H242060   6.636   3.773   5.859 -1.1639 -0.2108 -0.1324
 6857TIP3   OH242061   2.680   5.013   5.147  0.2435 -0.0053  0.8018
 6857TIP3    H142062   2.736   4.942   5.177 -0.0016 -0.0922  1.0601
 6857TIP3    H242063   2.636   5.043   5.227 -0.6469 -0.4399  0.4819
 6858TIP3   OH242064   2.012   1.341   0.502  0.1835 -0.4642  0.0371
 6858TIP3    H142065   1.958   1.282   0.449  0.7569 -0.9792  0.0209
 6858TIP3    H242066   2.085   1.365   0.445  0.4905 -0.5488  0.3926
 6859TIP3   OH242067   0.657   2.694  10.962  0.0502 -0.3587 -0.3735
 6859TIP3    H142068   0.602   2.643  11.022 -0.5941  1.8786  1.0771
 6859TIP3    H242069   0.660   2.781  11.001  3.2265  0.0950 -1.3298
 6860TIP3   OH242070   1.995   4.673   6.146 -0.3316 -0.0409  0.5521
 6860TIP3    H142071   1.968   4.689   6.055  0.3678  1.1203  0.5245
 6860TIP3    H242072   1.914   4.651   6.191 -0.6580 -0.8398 -0.3905
 6861TIP3   OH242073   5.805   2.693   3.964  0.2727  0.2473 -0.3573
 6861TIP3    H142074   5.897   2.667   3.970  0.2816  0.4350  0.4035
 6861TIP3    H242075   5.793   2.755   4.035 -0.6678 -0.4458  0.1130
 6862TIP3   OH242076   6.141   4.585   3.009  0.2006 -0.0084 -0.5211
 6862TIP3    H142077   6.199   4.608   2.937 -0.0879  0.0875 -0.7221
 6862TIP3    H242078   6.184   4.510   3.051  0.3348 -0.1019 -0.8254
 6863TIP3   OH242079   5.071   4.138  14.816 -0.3566 -0.2754  0.2667
 6863TIP3    H142080   5.080   4.232  14.806  1.8619 -0.4187  0.4939
 6863TIP3    H242081   5.096   4.120  14.907 -0.2950 -1.1235  0.0988
 6864TIP3   OH242082   4.013   5.781   0.042  0.1373 -0.2089  0.2032
 6864TIP3    H142083   3.930   5.784  -0.004  0.3453  1.4302 -0.1475
 6864TIP3    H242084   4.026   5.689   0.064 -1.9356 -0.4385  0.6105
 6865TIP3   OH242085   3.039   0.391   1.486  0.0658 -0.1107  1.3427
 6865TIP3    H142086   3.067   0.448   1.414  2.8199 -2.6856  0.1506
 6865TIP3    H242087   3.056   0.442   1.565  0.2601  1.5289  0.2958
 6866TIP3   OH242088   2.368   3.402  12.159 -0.1019 -0.1643 -0.1031
 6866TIP3    H142089   2.447   3.359  12.127  0.4563 -0.2097  1.2410
 6866TIP3    H242090   2.374   3.491  12.125  0.6611 -0.0977  0.1811
 6867TIP3   OH242091   5.594   2.305  13.131 -0.4444  0.0972  0.2158
 6867TIP3    H142092   5.544   2.384  13.152  1.4776  2.0778 -1.9916
 6867TIP3    H242093   5.629   2.276  13.215 -1.1760  1.6214  1.0949
 6868TIP3   OH242094   2.063   0.415  16.283  0.2554 -0.0387 -0.0805
 6868TIP3    H142095   2.153   0.445  16.295  0.8574 -1.3834 -1.0539
 6868TIP3    H242096   2.010   0.491  16.306  1.6905  1.4445 -1.3904
 6869TIP3   OH242097   5.081   1.920   2.915  0.0036 -0.5437  0.6827
 6869TIP3    H142098   5.140   1.941   2.842 -2.1842 -0.7839 -1.2784
 6869TIP3    H242099   5.126   1.851   2.964  0.3786 -2.5582 -2.2131
 6870TIP3   OH242100   1.628   4.286   4.867 -0.1356  0.2177  0.2403
 6870TIP3    H142101   1.588   4.248   4.945 -0.6596  0.8293  0.2791
 6870TIP3    H242102   1.659   4.211   4.817 -1.6700 -0.3044  0.0227
 6871TIP3   OH242103   3.263   2.515  13.559  0.6447 -0.2380  0.3903
 6871TIP3    H142104   3.219   2.439  13.520 -0.8318  1.1759 -0.8353
 6871TIP3    H242105   3.356   2.495  13.551  0.3177 -1.3691 -1.0752
 6872TIP3   OH242106   1.675   4.103   6.411  0.1393 -0.0033 -0.2548
 6872TIP3    H142107   1.742   4.121   6.476  0.7732  0.2931 -0.9699
 6872TIP3    H242108   1.673   4.181   6.356  0.9649 -0.9615 -1.7201
 6873TIP3   OH242109   3.528   5.357   3.103  0.9820  0.1372 -0.6251
 6873TIP3    H142110   3.544   5.419   3.032  0.7303  0.4396 -0.4175
 6873TIP3    H242111   3.607   5.362   3.157  0.7431  0.6768 -0.3142
 6874TIP3   OH242112   0.801   3.571   3.919 -0.0184  0.0054 -0.8072
 6874TIP3    H142113   0.793   3.481   3.889  0.7382 -0.1544 -0.5707
 6874TIP3    H242114   0.739   3.621   3.866 -2.6017 -1.0840  1.0003
 6875TIP3   OH242115   6.010   3.805  14.721  0.2652  1.2712  0.2770
 6875TIP3    H142116   6.102   3.793  14.745  0.2548  0.8695  0.1293
 6875TIP3    H242117   5.993   3.898  14.736  1.3152  1.8594 -1.8109
 6876TIP3   OH242118   0.274   2.934  15.415 -0.2406 -0.0950  0.2610
 6876TIP3    H142119   0.282   2.882  15.495 -0.2962  0.3628  0.5703
 6876TIP3    H242120   0.247   2.872  15.348  2.6777 -1.1496 -0.1149
 6877TIP3   OH242121   6.568   4.214   0.915 -0.6811 -0.2524 -0.1831
 6877TIP3    H142122   6.547   4.138   0.860 -2.8674 -1.4921  2.1528
 6877TIP3    H242123   6.486   4.235   0.959  0.2370  2.6123  0.3569
 6878TIP3   OH242124   3.580   5.253  14.037  0.3006  0.1179 -0.2827
 6878TIP3    H142125   3.664   5.220  14.069 -0.2713 -0.5384  0.5700
 6878TIP3    H242126   3.575   5.221  13.946  0.3816 -0.9701  0.0843
 6879TIP3   OH242127   4.105   1.552  12.590  0.0565 -0.1240 -0.4057
 6879TIP3    H142128   4.091   1.613  12.663  1.2250  0.1281 -0.3808
 6879TIP3    H242129   4.102   1.465  12.631 -0.1616 -0.0244 -0.2063
 6880TIP3   OH242130   6.879   3.440   4.599  0.0423 -0.4057 -0.4811
 6880TIP3    H142131   6.924   3.480   4.525  0.8035 -1.3264 -0.5461
 6880TIP3    H242132   6.786   3.454   4.582  0.2649  1.7296 -0.2486
 6881TIP3   OH242133   5.271   6.120  14.840  0.2200  0.3087 -0.0041
 6881TIP3    H142134   5.353   6.151  14.801  0.5902  0.5983  0.9794
 6881TIP3    H242135   5.297   6.054  14.904 -0.3269  0.3045  0.2247
 6882TIP3   OH242136   4.238   1.511  12.965 -0.0433 -0.1156 -0.5249
 6882TIP3    H142137   4.181   1.538  13.038 -1.0872  0.1542 -1.4080
 6882TIP3    H242138   4.318   1.480  13.007  0.5319  2.6559  0.6437
 6883TIP3   OH242139   0.885   6.401   3.817  0.0490 -0.6304  0.0508
 6883TIP3    H142140   0.974   6.436   3.811 -1.1293  2.5978 -0.7208
 6883TIP3    H242141   0.863   6.409   3.910 -0.4155  1.5998 -0.1814
 6884TIP3   OH242142   1.270   3.026   5.536  0.8022  0.3276 -0.3046
 6884TIP3    H142143   1.344   3.022   5.476  1.3345 -0.6024  0.3937
 6884TIP3    H242144   1.193   3.029   5.478  1.2179 -2.0435 -1.0832
 6885TIP3   OH242145   1.265   0.417   4.390 -0.4496 -0.6298  0.2443
 6885TIP3    H142146   1.347   0.456   4.421 -0.4005  0.0169 -0.6730
 6885TIP3    H242147   1.267   0.328   4.426  0.9218 -0.8186 -0.2208
 6886TIP3   OH242148   5.311   1.881  13.819  0.7287 -0.4193 -0.3552
 6886TIP3    H142149   5.252   1.806  13.826 -1.2904  1.1075 -0.2968
 6886TIP3    H242150   5.332   1.886  13.726  3.0774 -2.5851 -0.0533
 6887TIP3   OH242151   3.854   3.059   2.550 -0.6276 -0.4488 -0.2245
 6887TIP3    H142152   3.887   2.994   2.613 -0.3397  0.5321  0.6688
 6887TIP3    H242153   3.759   3.057   2.561 -0.5738 -0.2342  0.2965
 6888TIP3   OH242154   1.928   3.584  15.941 -0.5411 -0.0678 -0.0036
 6888TIP3    H142155   1.908   3.514  16.002 -1.3934  1.4614  1.5767
 6888TIP3    H242156   1.892   3.555  15.858  0.5477 -2.1576  0.1927
 6889TIP3   OH242157   2.655   0.026  14.338  0.1157 -0.3160 -0.1554
 6889TIP3    H142158   2.584  -0.021  14.295 -0.4387 -2.7564  3.0479
 6889TIP3    H242159   2.732  -0.027  14.321 -0.0554 -1.1307  1.5013
 6890TIP3   OH242160   1.138   2.039  13.286 -0.4507  0.2745 -0.1519
 6890TIP3    H142161   1.229   2.057  13.308 -0.6489  1.5650 -0.3104
 6890TIP3    H242162   1.097   2.125  13.281 -1.2047 -0.1353 -2.1065
 6891TIP3   OH242163   6.854   3.854  13.477  0.0566 -0.0079 -0.4774
 6891TIP3    H142164   6.942   3.889  13.463 -0.2995  1.7367  1.2893
 6891TIP3    H242165   6.865   3.759  13.473  1.4376  0.1830 -3.3041
 6892TIP3   OH242166   4.732   6.624   3.213  0.3365  0.2986  0.0006
 6892TIP3    H142167   4.701   6.612   3.123  0.2446  0.6113 -0.0110
 6892TIP3    H242168   4.811   6.571   3.218  1.2791  1.5731 -0.7774
 6893TIP3   OH242169   4.330   5.138   4.807  0.2317  0.0238 -0.4696
 6893TIP3    H142170   4.400   5.203   4.795  1.1935 -0.4594  1.8174
 6893TIP3    H242171   4.352   5.067   4.747  1.1398  0.3315 -0.5250
 6894TIP3   OH242172   6.694   2.733   6.496 -0.3416  0.5685 -0.2050
 6894TIP3    H142173   6.774   2.696   6.459 -0.9205 -1.6967  0.6697
 6894TIP3    H242174   6.625   2.706   6.435 -0.9154 -0.7661  0.9952
 6895TIP3   OH242175   5.620   1.224   2.885 -0.2331 -0.0486  0.3505
 6895TIP3    H142176   5.706   1.205   2.923 -0.0435  0.7527  0.3399
 6895TIP3    H242177   5.631   1.308   2.840 -1.1533  0.3266  0.7905
 6896TIP3   OH242178   0.195   5.041   4.355  0.2232  0.3391 -0.5027
 6896TIP3    H142179   0.229   4.952   4.364 -0.7317 -0.0228 -0.4179
 6896TIP3    H242180   0.269   5.097   4.381  1.0099 -0.3999 -1.1088
 6897TIP3   OH242181   6.100   5.959  15.900  0.4931  0.4236 -0.4701
 6897TIP3    H142182   6.183   5.986  15.941  0.8933 -2.1289  0.5957
 6897TIP3    H242183   6.033   6.007  15.949  1.2263  1.0829 -0.0740
 6898TIP3   OH242184   5.591   0.391  16.611 -0.2750  0.5129 -0.4350
 6898TIP3    H142185   5.526   0.459  16.630  0.7822  1.7322 -1.0184
 6898TIP3    H242186   5.609   0.399  16.517  0.6418  0.1398 -0.3100
 6899TIP3   OH242187   2.353   2.129   3.774  0.0079  0.3904 -0.6579
 6899TIP3    H142188   2.330   2.037   3.783 -1.4784  0.8443  0.7031
 6899TIP3    H242189   2.275   2.170   3.736 -0.0337  1.3445  0.3775
 6900TIP3   OH242190   1.387   4.661   3.367 -0.1834  0.8017 -0.1281
 6900TIP3    H142191   1.339   4.705   3.438 -1.2507 -0.0220 -0.2998
 6900TIP3    H242192   1.474   4.646   3.403 -0.8568 -0.0840  1.2574
 6901TIP3   OH242193   4.515   2.782  13.798 -0.2363  0.2455 -0.5136
 6901TIP3    H142194   4.590   2.831  13.834 -0.0623 -1.7833  2.1201
 6901TIP3    H242195   4.533   2.779  13.704  1.6080  2.0692 -0.3068
 6902TIP3   OH242196   0.091   2.393  10.573 -0.1021  0.4387  0.0938
 6902TIP3    H142197   0.111   2.477  10.533  0.9944  0.0393 -0.2477
 6902TIP3    H242198   0.118   2.328  10.508 -0.5221 -0.1774  0.5249
 6903TIP3   OH242199   4.906   1.229   3.254 -0.1325  0.3092  0.2715
 6903TIP3    H142200   4.937   1.314   3.286  0.6490 -0.5445  1.9622
 6903TIP3    H242201   4.834   1.206   3.313  1.6285 -1.5115  1.9116
 6904TIP3   OH242202   0.704   3.151  15.908  0.4933 -0.0473 -0.0809
 6904TIP3    H142203   0.631   3.202  15.873 -1.4211 -1.9569  0.8946
 6904TIP3    H242204   0.733   3.096  15.835  0.7111  0.4332 -0.3602
 6905TIP3   OH242205   5.476   4.007   1.564 -0.0814 -0.4367 -0.9574
 6905TIP3    H142206   5.424   3.946   1.616  1.8544 -0.4650  1.0948
 6905TIP3    H242207   5.551   3.956   1.534 -0.2281  0.0676 -2.2318
 6906TIP3   OH242208   3.609   1.551  13.639  0.1068 -0.0189  0.2672
 6906TIP3    H142209   3.650   1.540  13.724  0.8359  1.7553  0.1859
 6906TIP3    H242210   3.664   1.615  13.594  0.0769 -1.3258 -1.7651
 6907TIP3   OH242211   2.060   1.507  11.937  0.0823  0.0852 -0.5718
 6907TIP3    H142212   1.996   1.441  11.912 -0.8782  0.6193  0.3683
 6907TIP3    H242213   2.085   1.550  11.855  1.7195 -2.2566 -1.3899
 6908TIP3   OH242214   3.218   2.554   5.051  0.2969  0.0534 -0.4075
 6908TIP3    H142215   3.189   2.511   4.971  1.8121  0.9607 -1.5024
 6908TIP3    H242216   3.247   2.641   5.022  1.5245  0.1456  1.0097
 6909TIP3   OH242217   0.246   1.147  11.169  0.1339  0.2785 -0.6370
 6909TIP3    H142218   0.307   1.083  11.204 -1.2764 -1.7108 -1.6545
 6909TIP3    H242219   0.254   1.222  11.228  2.7506 -0.2980 -0.1344
 6910TIP3   OH242220   4.923   1.199  12.289 -0.9502 -0.0380  0.2846
 6910TIP3    H142221   4.995   1.141  12.264 -1.6103 -0.7798  0.0716
 6910TIP3    H242222   4.899   1.170  12.377 -1.4935 -0.2937  0.0507
 6911TIP3   OH242223   2.051   6.156   5.028  0.6325 -0.3583  0.0783
 6911TIP3    H142224   2.009   6.240   5.011  1.4597  0.1862  0.6312
 6911TIP3    H242225   2.093   6.167   5.114  0.0258 -1.6285  0.5640
 6912TIP3   OH242226   1.541   0.315  12.320 -0.2747 -0.0632 -0.1461
 6912TIP3    H142227   1.449   0.327  12.343  0.0507  0.6107  0.8713
 6912TIP3    H242228   1.583   0.398  12.344  0.9483 -1.0546  1.3150
 6913TIP3   OH242229   0.878   5.169  11.337 -0.0334  0.0947  0.0484
 6913TIP3    H142230   0.810   5.112  11.301  0.3518 -0.4561  0.1651
 6913TIP3    H242231   0.930   5.195  11.260  0.4848 -0.6704  0.1201
 6914TIP3   OH242232   5.087   3.629   4.631 -0.0261  0.3466  0.3041
 6914TIP3    H142233   5.051   3.680   4.558  0.1231  1.0059  0.6775
 6914TIP3    H242234   5.044   3.664   4.709 -0.5578 -0.6985  0.4894
 6915TIP3   OH242235   0.340   2.582   5.477  0.2373  0.4432  0.0901
 6915TIP3    H142236   0.339   2.660   5.421  0.5033  0.7798  0.5476
 6915TIP3    H242237   0.353   2.616   5.565 -1.4433  0.0175  0.5357
 6916TIP3   OH242238   5.974   1.367  14.259  0.2119 -0.7068 -0.0672
 6916TIP3    H142239   5.898   1.339  14.310  0.2575  0.7660  0.8664
 6916TIP3    H242240   6.042   1.385  14.323  1.0999 -1.2251 -0.8385
 6917TIP3   OH242241   0.725   4.468  14.326 -0.5532  0.3811  0.0701
 6917TIP3    H142242   0.778   4.388  14.329 -1.0000  0.0900  0.4895
 6917TIP3    H242243   0.762   4.525  14.394  0.0244  0.7001 -0.5089
 6918TIP3   OH242244   6.519   6.741   0.100 -0.3964 -0.1394  0.0088
 6918TIP3    H142245   6.563   6.656   0.089  0.3785  0.2939 -0.3302
 6918TIP3    H242246   6.504   6.772   0.011 -1.7051 -0.4197  0.1105
 6919TIP3   OH242247   5.635   4.590   5.955 -0.2733  1.2464 -0.1879
 6919TIP3    H142248   5.591   4.671   5.982 -0.2753  1.3941 -0.6213
 6919TIP3    H242249   5.705   4.578   6.018 -0.3082  1.5597 -0.0874
 6920TIP3   OH242250   2.457   3.413   2.740  0.4267  0.3745  0.2173
 6920TIP3    H142251   2.523   3.396   2.673 -0.6889  2.0484 -1.3783
 6920TIP3    H242252   2.376   3.379   2.704 -0.3324  1.9731  0.3481
 6921TIP3   OH242253   4.858   5.621  11.302 -0.0520 -0.4017  0.0064
 6921TIP3    H142254   4.826   5.711  11.311 -3.3400 -1.4684 -0.0820
 6921TIP3    H242255   4.908   5.606  11.383  1.7233  1.8505 -0.5727
 6922TIP3   OH242256   3.625   6.631   1.535 -0.6300 -0.4464  0.2254
 6922TIP3    H142257   3.556   6.572   1.503 -0.6317 -0.8287  0.9332
 6922TIP3    H242258   3.623   6.622   1.630  0.7936 -0.9027  0.2292
 6923TIP3   OH242259   5.683   0.113  15.132  0.3986  0.2777  0.2328
 6923TIP3    H142260   5.664   0.039  15.074 -1.4182  2.6561 -2.4812
 6923TIP3    H242261   5.764   0.089  15.177  0.8482 -2.5463 -1.8445
 6924TIP3   OH242262   0.592   3.526  10.604 -0.1952  0.6342 -0.0499
 6924TIP3    H142263   0.583   3.572  10.521  0.9387 -0.3849 -0.7692
 6924TIP3    H242264   0.611   3.435  10.580 -0.4068  0.1966  1.3248
 6925TIP3   OH242265   1.927   5.974  16.882  0.5165 -0.6464  0.2203
 6925TIP3    H142266   1.833   5.957  16.888  0.5247 -0.6663  0.2958
 6925TIP3    H242267   1.967   5.888  16.879  0.4511 -0.6550 -1.2064
 6926TIP3   OH242268   5.953   4.129   0.969 -0.3583 -0.0258  0.0428
 6926TIP3    H142269   6.034   4.107   1.015 -0.9333  0.4428  1.3278
 6926TIP3    H242270   5.978   4.196   0.906  0.2108  0.3073  0.6171
 6927TIP3   OH242271   1.467   1.488  12.122  0.2482  0.2372  0.1060
 6927TIP3    H142272   1.524   1.444  12.059  1.1784  0.2698  0.9047
 6927TIP3    H242273   1.525   1.550  12.167 -0.3245 -0.0056  1.1994
 6928TIP3   OH242274   1.011   5.654  15.534  0.2976  0.4763  0.1835
 6928TIP3    H142275   1.065   5.598  15.590 -0.2471  0.3858  0.6322
 6928TIP3    H242276   1.068   5.727  15.510  0.7133  0.2230  0.3914
 6929TIP3   OH242277   5.777   1.091   3.640  0.2401 -0.2638  0.1971
 6929TIP3    H142278   5.810   1.119   3.554  0.7707 -1.1107  0.1174
 6929TIP3    H242279   5.688   1.124   3.643  0.1255 -0.4496 -0.7984
 6930TIP3   OH242280   2.815   1.520  16.866 -0.7963  0.2518  0.0462
 6930TIP3    H142281   2.764   1.447  16.829  2.4391 -1.8555 -0.6766
 6930TIP3    H242282   2.842   1.571  16.789  1.2244 -0.8575 -0.0391
 6931TIP3   OH242283   3.221   1.984   5.805 -0.2456  0.0280  0.5738
 6931TIP3    H142284   3.303   1.970   5.853 -0.2600 -0.7586  0.3855
 6931TIP3    H242285   3.196   2.074   5.826  0.7100  0.3087  0.5622
 6932TIP3   OH242286   6.875   6.739   3.281 -0.0203  0.8282  0.2816
 6932TIP3    H142287   6.820   6.744   3.203 -0.7337  1.4980  0.8121
 6932TIP3    H242288   6.950   6.795   3.261  0.8757 -0.6661 -0.7335
 6933TIP3   OH242289   5.558   4.647   0.233 -0.8735  0.3828 -0.5546
 6933TIP3    H142290   5.568   4.593   0.154 -1.5919 -0.0091 -0.3801
 6933TIP3    H242291   5.526   4.731   0.201 -0.6113  0.4160 -0.7353
 6934TIP3   OH242292   0.481   5.594   2.498 -0.0636 -0.5272 -0.1372
 6934TIP3    H142293   0.563   5.557   2.465 -0.5263 -0.1568 -1.8359
 6934TIP3    H242294   0.449   5.648   2.425 -0.8629  0.8514  1.1861
 6935TIP3   OH242295   2.833   5.891   4.191 -0.2948 -0.4327  0.3090
 6935TIP3    H142296   2.853   5.935   4.274 -2.8421  1.0495  0.2433
 6935TIP3    H242297   2.903   5.917   4.132 -0.0973  1.0668  1.1594
 6936TIP3   OH242298   6.090   3.255  15.988 -0.2213 -0.3501 -0.4366
 6936TIP3    H142299   6.083   3.296  15.902 -0.5536  0.9735  0.2034
 6936TIP3    H242300   6.034   3.307  16.045  0.2567 -0.9954  0.6679
 6937TIP3   OH242301   3.183   0.407   6.277  0.3819  0.2504 -0.3050
 6937TIP3    H142302   3.248   0.352   6.235  1.5096  0.7118  0.7632
 6937TIP3    H242303   3.189   0.385   6.370 -0.9820  0.3224 -0.1820
 6938TIP3   OH242304   6.128   0.282   2.481 -0.2997  0.0711 -0.4525
 6938TIP3    H142305   6.149   0.206   2.427 -1.4038  0.0617 -0.8877
 6938TIP3    H242306   6.102   0.246   2.565  0.1197  0.0257 -0.3374
 6939TIP3   OH242307   2.300   3.260   0.200 -0.3514  0.6125 -0.1047
 6939TIP3    H142308   2.320   3.171   0.229 -0.1153  0.9679  0.8792
 6939TIP3    H242309   2.356   3.274   0.124 -0.8237 -0.2837 -0.6232
 6940TIP3   OH242310   4.183   6.050  16.796  0.3975  0.1745  0.2158
 6940TIP3    H142311   4.247   6.066  16.865  0.6513  0.5696 -0.1092
 6940TIP3    H242312   4.222   5.981  16.743  0.7911  0.7594 -0.2715
 6941TIP3   OH242313   5.311   6.742   0.027  0.8210  0.4222 -0.1432
 6941TIP3    H142314   5.353   6.828   0.039  0.8893  0.2814  0.7314
 6941TIP3    H242315   5.381   6.685  -0.004  0.9614  0.5020  0.0242
 6942TIP3   OH242316   2.274   3.145  14.421  0.0645  0.0886 -0.4510
 6942TIP3    H142317   2.335   3.107  14.483 -0.2451 -0.9782 -0.7887
 6942TIP3    H242318   2.187   3.133  14.460  0.0499  1.8589  0.1669
 6943TIP3   OH242319   4.149   5.561  13.769  0.0443  0.7738 -0.1586
 6943TIP3    H142320   4.115   5.644  13.735 -0.9014  1.2928  1.8830
 6943TIP3    H242321   4.156   5.575  13.863  0.0358 -1.4113  0.2179
 6944TIP3   OH242322   6.338   1.482  13.693 -0.6974  0.2689  0.3912
 6944TIP3    H142323   6.412   1.520  13.645  0.1164 -1.6439  0.0231
 6944TIP3    H242324   6.333   1.533  13.774  1.3193  0.2043  0.6081
 6945TIP3   OH242325   4.863   5.768   2.284 -0.4199 -0.5409  0.0137
 6945TIP3    H142326   4.893   5.827   2.214  0.7867 -2.4466 -1.1566
 6945TIP3    H242327   4.922   5.786   2.357 -0.9571  0.6598  0.1751
 6946TIP3   OH242328   3.204   1.679   1.927 -0.1400 -0.0034 -0.3243
 6946TIP3    H142329   3.226   1.589   1.902 -2.4158 -0.1779 -1.9721
 6946TIP3    H242330   3.257   1.734   1.869  0.2270 -0.2795 -0.2554
 6947TIP3   OH242331   3.499   0.989   6.126  0.3739 -0.2263  0.0587
 6947TIP3    H142332   3.424   1.049   6.119  0.4540 -0.1498 -0.1640
 6947TIP3    H242333   3.463   0.909   6.163  0.4779  0.3519  1.4822
 6948TIP3   OH242334   3.000   6.128   1.476 -0.2463  0.1421 -0.1679
 6948TIP3    H142335   3.008   6.223   1.488 -0.3536  0.0474  0.7638
 6948TIP3    H242336   2.962   6.118   1.389 -1.4998  1.0080  0.2543
 6949TIP3   OH242337   0.688   3.986  12.368  0.0914  0.0046 -0.1480
 6949TIP3    H142338   0.780   4.005  12.386  0.2979 -0.8306 -0.2711
 6949TIP3    H242339   0.642   4.069  12.385  1.1878  1.2188 -2.6300
 6950TIP3   OH242340   3.896   4.486  14.547 -0.1828  0.0647 -0.1323
 6950TIP3    H142341   3.832   4.453  14.484  2.2056  0.0313 -2.7479
 6950TIP3    H242342   3.880   4.581  14.549 -1.0999 -0.0827  0.2536
 6951TIP3   OH242343   0.944   3.577  12.455  0.0269  0.1384 -0.0331
 6951TIP3    H142344   0.922   3.495  12.498  0.6330  0.0069  0.0377
 6951TIP3    H242345   0.907   3.645  12.511 -2.6538 -0.1184 -1.3357
 6952TIP3   OH242346   2.362   4.288  16.885 -0.2776 -0.1995 -0.1661
 6952TIP3    H142347   2.411   4.355  16.837  0.4346 -1.0554 -0.6775
 6952TIP3    H242348   2.413   4.274  16.965 -1.2898  0.9964  0.6984
 6953TIP3   OH242349   5.310   5.706  14.869  0.5314 -0.4471  0.0674
 6953TIP3    H142350   5.397   5.697  14.908  0.6193 -1.5330 -0.3557
 6953TIP3    H242351   5.321   5.772  14.801  0.8435 -0.0188  0.5253
 6954TIP3   OH242352   0.759   1.370   5.828 -0.0364 -0.8383  0.2864
 6954TIP3    H142353   0.690   1.409   5.881  2.4702  1.5419  2.0779
 6954TIP3    H242354   0.760   1.278   5.854 -2.6817 -1.0561 -0.0873
 6955TIP3   OH242355   0.409   1.136   3.605 -0.2408  0.6471 -0.1388
 6955TIP3    H142356   0.420   1.133   3.510  1.6513  0.0973  0.0579
 6955TIP3    H242357   0.348   1.064   3.625  1.2657 -0.8528 -0.7435
 6956TIP3   OH242358   2.638   3.449  15.007 -0.2143  0.0203  0.1896
 6956TIP3    H142359   2.606   3.372  15.055 -0.4206 -0.4341 -0.6599
 6956TIP3    H242360   2.561   3.504  14.995 -0.3402 -0.2710 -0.3638
 6957TIP3   OH242361   1.432   1.674   3.384  0.0633  0.3193 -0.5047
 6957TIP3    H142362   1.415   1.750   3.329  0.4563 -0.7222 -2.1545
 6957TIP3    H242363   1.408   1.702   3.472  1.4592  2.8015 -0.7979
 6958TIP3   OH242364   3.608   2.133  15.651 -0.9875 -0.2224  0.7099
 6958TIP3    H142365   3.688   2.145  15.600 -0.8980 -0.3144  0.8297
 6958TIP3    H242366   3.606   2.209  15.710 -0.5508 -0.6480  1.2920
 6959TIP3   OH242367   6.184   5.522  12.642  0.1609 -0.2549  0.1673
 6959TIP3    H142368   6.227   5.602  12.673 -0.0173 -0.7038  1.6212
 6959TIP3    H242369   6.254   5.471  12.602  0.2405  0.6986 -0.9573
 6960TIP3   OH242370   3.981   5.351  16.957 -0.2786 -0.2209  0.0116
 6960TIP3    H142371   3.975   5.310  17.043  0.5123  0.3718  0.3609
 6960TIP3    H242372   4.051   5.416  16.966 -0.0643 -0.2701 -1.1264
 6961TIP3   OH242373   4.122   1.300  13.680 -0.4063 -0.0484  0.5076
 6961TIP3    H142374   4.184   1.241  13.637  0.0406 -0.1841  1.3209
 6961TIP3    H242375   4.045   1.246  13.697 -0.7120  0.0879 -0.3929
 6962TIP3   OH242376   1.251   1.289   5.467  0.1486  0.4945 -0.0406
 6962TIP3    H142377   1.228   1.282   5.559  2.4043  0.5615  0.6007
 6962TIP3    H242378   1.197   1.360   5.433 -1.7451 -0.4689  0.8348
 6963TIP3   OH242379   5.319   5.966  12.697  0.0366 -0.4462 -0.4016
 6963TIP3    H142380   5.235   6.011  12.685  0.3954  0.0017 -1.3664
 6963TIP3    H242381   5.333   5.965  12.791  1.5786  4.4338 -0.3173
 6964TIP3   OH242382   0.021   1.269  11.488  0.1086 -0.6434 -0.4142
 6964TIP3    H142383   0.116   1.258  11.493 -0.0095 -1.3066  0.7797
 6964TIP3    H242384  -0.008   1.192  11.438  0.2829  0.1739 -1.8272
 6965TIP3   OH242385   5.176   5.346  15.186  0.4320 -0.0487  0.2066
 6965TIP3    H142386   5.186   5.361  15.092 -1.9524 -0.3506 -0.1628
 6965TIP3    H242387   5.256   5.300  15.211  1.1058 -0.0155 -1.6733
 6966TIP3   OH242388   2.229   6.614  15.542  0.2745 -0.2366  0.1628
 6966TIP3    H142389   2.290   6.686  15.526 -0.6216  1.0934  2.3018
 6966TIP3    H242390   2.144   6.650  15.520 -0.0405 -1.1437 -0.1288
 6967TIP3   OH242391   4.880   4.382  15.170 -0.0586 -0.4933  0.3730
 6967TIP3    H142392   4.957   4.370  15.225  0.0908  0.4212  0.3801
 6967TIP3    H242393   4.823   4.439  15.222  0.2593  0.7239 -0.5725
 6968TIP3   OH242394   5.758   3.792   1.794  0.4490 -0.2788 -0.1782
 6968TIP3    H142395   5.762   3.699   1.813  2.5188 -0.3871 -0.8158
 6968TIP3    H242396   5.843   3.826   1.822 -1.1803  1.9955  2.5311
 6969TIP3   OH242397   3.120   2.779   1.678 -0.3466 -0.3620 -0.1675
 6969TIP3    H142398   3.212   2.800   1.689 -0.3323 -0.9708  1.0239
 6969TIP3    H242399   3.110   2.691   1.715 -1.2543 -0.6399 -1.0043
 6970TIP3   OH242400   5.327   5.678   4.785 -0.0720  0.5940  0.1264
 6970TIP3    H142401   5.357   5.743   4.723  1.1081 -0.3330 -0.3187
 6970TIP3    H242402   5.383   5.602   4.770 -0.5804 -0.0965  1.4678
 6971TIP3   OH242403   4.059   1.574  14.397  0.6767 -0.7367  1.0578
 6971TIP3    H142404   4.118   1.523  14.342 -0.7986  0.0205 -1.3696
 6971TIP3    H242405   4.110   1.652  14.422  0.6525  0.1525 -1.4071
 6972TIP3   OH242406   4.492   4.521   0.068  0.0358 -0.3519 -0.0984
 6972TIP3    H142407   4.578   4.480   0.066  1.0432  1.6209  0.3277
 6972TIP3    H242408   4.453   4.493   0.151 -0.9157 -3.3655 -1.4215
 6973TIP3   OH242409   5.439   0.398   2.878  0.2425  0.8222  0.2909
 6973TIP3    H142410   5.505   0.437   2.820 -0.8086 -1.2349 -2.5248
 6973TIP3    H242411   5.480   0.317   2.910 -0.5728 -0.0725 -0.8530
 6974TIP3   OH242412   4.329   0.954  13.080  0.4101 -0.2523 -0.0830
 6974TIP3    H142413   4.282   0.946  13.163  1.2547  0.0963  0.4350
 6974TIP3    H242414   4.394   0.884  13.082  1.4204  0.6798  0.2172
 6975TIP3   OH242415   0.666   0.930  12.711  0.0976 -0.5370  0.6355
 6975TIP3    H142416   0.608   0.860  12.741  1.1829 -1.7819 -0.0184
 6975TIP3    H242417   0.753   0.889  12.710  0.9302  1.1302  1.1620
 6976TIP3   OH242418   0.862   1.871   4.420 -0.1949  0.8933  0.5493
 6976TIP3    H142419   0.885   1.818   4.496  0.0894  1.7268  1.0621
 6976TIP3    H242420   0.941   1.922   4.402  0.9241 -1.5783 -2.3279
 6977TIP3   OH242421   5.895   3.817  16.417 -0.6033  0.0203 -0.3034
 6977TIP3    H142422   5.978   3.788  16.380 -0.0263  0.2128  0.8061
 6977TIP3    H242423   5.873   3.896  16.367  0.1144  0.2243 -0.3110
 6978TIP3   OH242424   0.844   6.362  16.638 -0.5996 -0.7284 -0.5083
 6978TIP3    H142425   0.814   6.428  16.701  1.8762 -0.7324  0.7908
 6978TIP3    H242426   0.773   6.357  16.574 -2.5866  0.3742  1.4310
 6979TIP3   OH242427   4.327   3.413   2.673  0.2913 -0.1232  0.3640
 6979TIP3    H142428   4.329   3.498   2.629  0.9120  0.6599  1.8311
 6979TIP3    H242429   4.300   3.351   2.605  0.0319  1.2091 -0.7863
 6980TIP3   OH242430   5.931   0.994  14.571 -0.6110  0.0028  0.6045
 6980TIP3    H142431   5.955   0.902  14.572 -0.7510 -0.0606  2.2277
 6980TIP3    H242432   5.968   1.029  14.652 -1.6593  1.0614  0.6619
 6981TIP3   OH242433   5.525   1.436  10.971  0.0965 -0.2715  0.5112
 6981TIP3    H142434   5.430   1.451  10.974  0.0649 -0.4795  0.5700
 6981TIP3    H242435   5.562   1.510  11.018  0.1194  1.2624 -1.7586
 6982TIP3   OH242436   0.639   4.482   4.191 -0.1694  0.0229  0.1920
 6982TIP3    H142437   0.665   4.506   4.102  1.0100  1.9676  0.9850
 6982TIP3    H242438   0.589   4.402   4.181  0.3558 -0.0765 -2.1709
 6983TIP3   OH242439   1.205   4.935   1.863 -0.3546  0.1631  0.2097
 6983TIP3    H142440   1.254   5.017   1.874  0.8376 -0.1979 -1.7817
 6983TIP3    H242441   1.270   4.866   1.875 -0.4150 -0.3499 -1.9392
 6984TIP3   OH242442   6.607   2.160   4.700 -0.1055  0.0534 -0.2691
 6984TIP3    H142443   6.659   2.103   4.757 -0.7413 -2.1829 -1.7709
 6984TIP3    H242444   6.527   2.177   4.750  0.2764  0.0140  0.3755
 6985TIP3   OH242445   4.002   1.972   6.326  0.1950  0.0565  0.2447
 6985TIP3    H142446   4.001   1.876   6.315  1.7722  0.1281 -0.9378
 6985TIP3    H242447   3.959   2.005   6.247 -2.0660  0.3481  1.5065
 6986TIP3   OH242448   6.353   3.614  15.736  0.2440 -0.3170 -0.2077
 6986TIP3    H142449   6.388   3.684  15.680 -0.2331 -0.1016 -0.2386
 6986TIP3    H242450   6.370   3.533  15.686  1.2665 -0.2848  0.0598
 6987TIP3   OH242451   5.232   5.958  13.524  0.7882 -0.2446 -0.1455
 6987TIP3    H142452   5.210   6.039  13.478  1.9769  0.2028  0.0221
 6987TIP3    H242453   5.302   5.984  13.584 -0.0005 -1.0389  1.1575
 6988TIP3   OH242454   4.741   5.159  13.356 -0.0573  0.5821  0.7957
 6988TIP3    H142455   4.713   5.068  13.349  2.5737 -0.4361  2.3951
 6988TIP3    H242456   4.835   5.157  13.339 -0.1475  3.2514 -0.5321
 6989TIP3   OH242457   6.629   3.883   6.507  0.5414  0.1076 -0.3719
 6989TIP3    H142458   6.667   3.949   6.565  2.6157 -0.0178 -1.4842
 6989TIP3    H242459   6.662   3.800   6.540  1.7433  0.0344 -1.6363
 6990TIP3   OH242460   6.221   3.565  12.767 -0.0660  0.0508 -0.4654
 6990TIP3    H142461   6.286   3.514  12.815 -0.4608  1.1353  1.3179
 6990TIP3    H242462   6.260   3.652  12.760 -1.0737  0.5670  0.1511
 6991TIP3   OH242463   3.824   4.122   1.106  0.3712 -0.5618 -0.2058
 6991TIP3    H142464   3.861   4.113   1.194  1.1774 -0.2812 -0.5115
 6991TIP3    H242465   3.741   4.075   1.111  0.4757 -0.6805  0.6646
 6992TIP3   OH242466   2.066   1.756  12.666  0.1435  0.0266  0.1820
 6992TIP3    H142467   2.059   1.777  12.573 -0.6544  0.0187  0.2396
 6992TIP3    H242468   2.050   1.662  12.671 -1.9831  0.3724  0.5549
 6993TIP3   OH242469   3.639   5.316  10.377 -0.1833 -0.0127 -0.3435
 6993TIP3    H142470   3.675   5.319  10.288  0.0123 -0.3913 -0.2778
 6993TIP3    H242471   3.568   5.381  10.376 -1.7718 -1.6684 -1.4791
 6994TIP3   OH242472   2.647   6.791   4.772  0.2067 -0.2564  0.2391
 6994TIP3    H142473   2.722   6.849   4.787 -1.5513  2.1585  0.2770
 6994TIP3    H242474   2.616   6.769   4.859 -1.1307  1.6313  0.3122
 6995TIP3   OH242475   2.255   0.058   0.913 -0.2787 -0.2302  0.3801
 6995TIP3    H142476   2.221   0.010   0.837  0.2853 -0.9950  0.5978
 6995TIP3    H242477   2.333   0.010   0.938  1.7445  2.1505 -0.8479
 6996TIP3   OH242478   6.137   0.121  15.878 -0.3402  0.1634  0.5899
 6996TIP3    H142479   6.047   0.151  15.890 -0.6215  0.3443 -1.6294
 6996TIP3    H242480   6.191   0.196  15.905 -0.8379  0.2145  1.4875
 6997TIP3   OH242481   3.571   4.790   2.974 -0.0753 -0.7970  0.2173
 6997TIP3    H142482   3.583   4.884   2.985 -2.4270 -0.4258  0.2383
 6997TIP3    H242483   3.486   4.782   2.931 -0.0033 -2.9283  0.3574
 6998TIP3   OH242484   1.881   4.789   2.917 -0.2810 -0.6240 -0.0188
 6998TIP3    H142485   1.960   4.807   2.866 -0.6860  1.3055 -0.0345
 6998TIP3    H242486   1.858   4.874   2.955 -1.2790 -1.5606  1.5243
 6999TIP3   OH242487   6.481   3.989   2.827  0.2193 -0.3298 -0.2565
 6999TIP3    H142488   6.488   3.915   2.766  0.8581  0.2106 -0.8503
 6999TIP3    H242489   6.419   4.048   2.785 -0.0374 -0.3671  0.0633
 7000TIP3   OH242490   0.276   0.201   5.006  0.3602 -0.3419 -0.1607
 7000TIP3    H142491   0.216   0.240   4.942  1.2416 -1.1830 -1.5388
 7000TIP3    H242492   0.358   0.192   4.959  0.2974 -3.5625  0.1781
 7001TIP3   OH242493   4.510   6.339  16.091  0.0116 -1.0580  0.4000
 7001TIP3    H142494   4.486   6.248  16.111 -0.4629 -1.2639 -0.9922
 7001TIP3    H242495   4.472   6.356  16.005  0.3482  0.3759  0.5011
 7002TIP3   OH242496   2.457   0.721   3.076  0.1852  0.1597  0.6830
 7002TIP3    H142497   2.540   0.684   3.046 -0.5657 -1.1433  0.1411
 7002TIP3    H242498   2.421   0.654   3.135 -1.4502 -0.2405 -0.7118
 7003TIP3   OH242499   4.152   2.071  16.259 -0.4053  0.2408  0.1006
 7003TIP3    H142500   4.100   1.993  16.240  0.2748 -0.2365  0.1559
 7003TIP3    H242501   4.161   2.115  16.174  0.1583 -0.3407 -0.1448
 7004TIP3   OH242502   5.578   4.319  11.755 -0.2857  0.2105  0.0431
 7004TIP3    H142503   5.563   4.408  11.725 -0.6034  0.0911 -0.1572
 7004TIP3    H242504   5.642   4.283  11.693  0.5279  0.5863  0.6536
 7005TIP3   OH242505   2.429   6.707  13.216 -0.2669 -0.0963  0.0920
 7005TIP3    H142506   2.503   6.688  13.158  0.9774  1.4333  1.0977
 7005TIP3    H242507   2.373   6.764  13.165 -0.5202 -0.8684 -0.5078
 7006TIP3   OH242508   4.022   0.383  14.130 -0.3284  0.2686 -0.2203
 7006TIP3    H142509   4.047   0.296  14.098 -0.7655 -0.2358  0.7804
 7006TIP3    H242510   4.095   0.410  14.185 -0.4513  0.2964 -0.0721
 7007TIP3   OH242511   5.588   5.105   3.426 -0.2090  0.0741  0.1247
 7007TIP3    H142512   5.646   5.044   3.471  0.9156  0.7681 -0.3522
 7007TIP3    H242513   5.548   5.052   3.356 -0.5892 -0.5475  0.8036
 7008TIP3   OH242514   5.699   4.995  12.359  0.1516 -0.2240 -0.2691
 7008TIP3    H142515   5.660   4.911  12.334  0.6795 -0.0224 -1.8248
 7008TIP3    H242516   5.737   5.029  12.279  2.4605  0.1907  0.9203
 7009TIP3   OH242517   4.168   3.864  15.851  0.2480  0.2488 -0.0227
 7009TIP3    H142518   4.177   3.803  15.924  0.4414 -0.0301 -0.2761
 7009TIP3    H242519   4.254   3.905  15.843  0.6929 -0.8333 -1.0598
 7010TIP3   OH242520   0.118   0.283   2.834 -0.3207 -0.2597 -0.0926
 7010TIP3    H142521   0.118   0.188   2.822 -1.0333 -0.1686 -0.8663
 7010TIP3    H242522   0.116   0.319   2.746  0.5816  0.4938  0.1733
 7011TIP3   OH242523   3.597   5.877   3.131  0.6898  0.6913 -0.3497
 7011TIP3    H142524   3.582   5.842   3.218 -0.2184  1.6872 -0.0778
 7011TIP3    H242525   3.685   5.915   3.135  1.4644 -1.0256 -0.4991
 7012TIP3   OH242526   1.361   0.211   1.452  0.2110  0.4875  0.1794
 7012TIP3    H142527   1.275   0.193   1.490  0.2878 -0.5587 -0.1196
 7012TIP3    H242528   1.360   0.306   1.436 -1.0229  0.4442 -0.1476
 7013TIP3   OH242529   4.875   0.687  16.897 -0.5033  0.2062  0.5450
 7013TIP3    H142530   4.845   0.694  16.987 -2.6176  1.1077 -0.1503
 7013TIP3    H242531   4.940   0.757  16.888  0.1224 -0.2420  1.4909
 7014TIP3   OH242532   1.735   1.970  11.345 -0.4366  0.2138  0.6135
 7014TIP3    H142533   1.690   2.052  11.362 -0.4871 -0.1234  2.1979
 7014TIP3    H242534   1.828   1.993  11.346 -0.4760  0.5406 -0.6911
 7015TIP3   OH242535   6.770   6.653   3.027  0.0098 -0.1891 -0.1225
 7015TIP3    H142536   6.738   6.705   2.954  2.3800  1.0597 -0.3525
 7015TIP3    H242537   6.691   6.622   3.071 -1.4934  2.1389 -1.0138
 7016TIP3   OH242538   4.827   1.307  13.237 -0.3866 -0.2605 -0.0316
 7016TIP3    H142539   4.865   1.324  13.323  0.1458 -1.0644 -0.0886
 7016TIP3    H242540   4.793   1.217  13.244  2.0602 -1.4071 -1.4363
 7017TIP3   OH242541   5.729   1.038   0.958 -0.1983  0.2878 -0.2939
 7017TIP3    H142542   5.650   0.984   0.957 -0.2610  0.2938  1.5650
 7017TIP3    H242543   5.792   0.987   1.010 -0.4545  2.2010  2.0469
 7018TIP3   OH242544   0.689   1.606  11.685  0.6600 -0.8419  0.3685
 7018TIP3    H142545   0.649   1.520  11.699  1.0725 -0.8787  1.3889
 7018TIP3    H242546   0.748   1.593  11.611 -2.0311 -0.4994 -2.0243
 7019TIP3   OH242547   3.298   6.848   1.573 -0.2404  0.0077  0.2109
 7019TIP3    H142548   3.336   6.805   1.649 -1.4899  0.1974  0.9842
 7019TIP3    H242549   3.300   6.782   1.504  0.5451 -0.2985  0.5191
 7020TIP3   OH242550   5.174   4.042  11.259  0.1451  0.3085  0.1342
 7020TIP3    H142551   5.179   4.078  11.348 -1.2235  0.6794  0.0733
 7020TIP3    H242552   5.153   3.950  11.272  0.1266  0.3211  0.1930
 7021TIP3   OH242553   5.899   1.720  16.051  0.0009 -0.1282 -0.0206
 7021TIP3    H142554   5.899   1.663  15.974  0.1390  1.5916 -1.3678
 7021TIP3    H242555   5.830   1.685  16.107  0.7096 -2.1664 -0.3210
 7022TIP3   OH242556   6.307   5.805   4.535 -0.5054 -0.1898 -0.6255
 7022TIP3    H142557   6.293   5.763   4.450  0.6285 -1.2448 -0.3276
 7022TIP3    H242558   6.235   5.774   4.590 -0.5348 -0.5250 -0.8512
 7023TIP3   OH242559   3.583   4.805  14.057 -0.2629 -0.1444 -0.0061
 7023TIP3    H142560   3.578   4.823  13.963 -2.1035 -1.2713 -0.1561
 7023TIP3    H242561   3.675   4.784  14.072 -0.3627 -2.4228 -2.0548
 7024TIP3   OH242562   6.537   4.769   0.937 -0.7139  0.1976 -0.2593
 7024TIP3    H142563   6.503   4.840   0.991  2.0358  1.1632  0.3121
 7024TIP3    H242564   6.576   4.707   0.999 -0.0699 -0.1136 -0.9538
 7025TIP3   OH242565   5.869   1.944   2.657 -0.0316  0.0336 -0.0101
 7025TIP3    H142566   5.945   1.913   2.707 -1.7208 -3.0384  0.9013
 7025TIP3    H242567   5.898   1.942   2.566  1.2994 -0.0059  0.3829
 7026TIP3   OH242568   1.954   3.353  15.472 -0.1119 -0.0820  0.0017
 7026TIP3    H142569   1.963   3.319  15.561  0.2274  0.4970  0.1939
 7026TIP3    H242570   1.866   3.327  15.445 -0.4114  0.1955  0.7045
 7027TIP3   OH242571   4.012   1.893   3.930 -0.2153  0.1254 -0.2055
 7027TIP3    H142572   3.947   1.957   3.904 -0.7042  0.5019  1.7445
 7027TIP3    H242573   3.965   1.834   3.990  0.7540 -0.7845 -0.3036
 7028TIP3   OH242574   5.319   4.475  15.237  0.2363 -0.0635 -0.2429
 7028TIP3    H142575   5.381   4.407  15.265  0.4981  0.6655  0.9972
 7028TIP3    H242576   5.247   4.471  15.300  0.5075  1.1495  0.1761
 7029TIP3   OH242577   0.802   5.922   2.786  0.1939 -0.5455  0.2011
 7029TIP3    H142578   0.791   6.017   2.777  0.3796 -0.6486 -1.4146
 7029TIP3    H242579   0.897   5.908   2.781  0.4188 -0.6209  3.1267
 7030TIP3   OH242580   2.496   6.657  10.771 -0.0041  0.2599  0.2879
 7030TIP3    H142581   2.584   6.629  10.747 -0.1014  0.4776 -0.3234
 7030TIP3    H242582   2.439   6.616  10.706 -0.3339  0.3048  0.5451
 7031TIP3   OH242583   2.266   0.914  13.183 -0.1161 -0.1081  0.2275
 7031TIP3    H142584   2.178   0.951  13.188 -0.3435 -0.4967 -0.7470
 7031TIP3    H242585   2.254   0.820  13.195  0.2184 -0.1161  0.5332
 7032TIP3   OH242586   4.700   2.985  13.132  0.6993  0.8868 -0.5269
 7032TIP3    H142587   4.722   3.041  13.206 -0.2182 -0.1489  0.5737
 7032TIP3    H242588   4.769   2.917  13.133  0.1746  0.3497 -0.0323
 7033TIP3   OH242589   5.624   0.739  13.593  0.2325 -0.3345 -0.2384
 7033TIP3    H142590   5.561   0.782  13.535  1.1862  2.1361  0.4295
 7033TIP3    H242591   5.570   0.684  13.650 -1.1387  0.4071 -0.7722
 7034TIP3   OH242592   2.036   3.697   3.170 -0.4565 -0.7444  0.0807
 7034TIP3    H142593   2.120   3.738   3.194 -0.7338 -0.8510  1.2812
 7034TIP3    H242594   2.005   3.749   3.095  0.0045  0.1961  0.5215
 7035TIP3   OH242595   2.648   3.945   3.691  0.0556  0.3263 -0.1348
 7035TIP3    H142596   2.601   3.920   3.771  1.0882 -0.5113  0.2374
 7035TIP3    H242597   2.624   3.878   3.627 -0.3978  0.7265 -0.3855
 7036TIP3   OH242598   2.442   2.103  15.285  0.1858 -0.2173  0.7117
 7036TIP3    H142599   2.524   2.152  15.284  0.1563 -0.1604  1.1110
 7036TIP3    H242600   2.387   2.148  15.348 -0.9794  1.0591 -1.1315
 7037TIP3   OH242601   1.814   1.483  12.876  0.1850 -0.5245 -0.3827
 7037TIP3    H142602   1.807   1.424  12.952  1.2552 -0.5965 -0.3203
 7037TIP3    H242603   1.724   1.510  12.859 -0.3281 -2.0657 -0.3192
 7038TIP3   OH242604   0.904   3.157   2.026 -0.7918 -0.3454 -0.0754
 7038TIP3    H142605   0.856   3.228   1.984 -1.7684  0.3615  2.1174
 7038TIP3    H242606   0.839   3.112   2.079  0.6267 -0.3337  1.7560
 7039TIP3   OH242607   1.176   6.852   1.024  0.3040  0.1445  0.3421
 7039TIP3    H142608   1.264   6.813   1.031  0.7906  0.5123 -2.5350
 7039TIP3    H242609   1.120   6.780   0.995  0.6356  0.7945 -2.1791
 7040TIP3   OH242610   5.110   2.931  14.639 -0.1013  0.1891  0.4028
 7040TIP3    H142611   5.095   2.851  14.589  0.9617 -1.2374  2.2311
 7040TIP3    H242612   5.094   3.002  14.577 -2.6060 -1.3732 -0.8700
 7041TIP3   OH242613   0.502   3.523  15.404 -0.1874 -0.4832 -0.1262
 7041TIP3    H142614   0.442   3.497  15.334 -0.0180 -2.3240  0.3559
 7041TIP3    H242615   0.461   3.601  15.443 -1.9395 -1.2924 -0.2353
 7042TIP3   OH242616   3.993   0.181  10.077 -0.2629  0.4496 -0.4942
 7042TIP3    H142617   3.914   0.130  10.057 -0.7272  1.9151 -2.7750
 7042TIP3    H242618   3.964   0.248  10.138 -0.3706 -0.0364 -0.0011
 7043TIP3   OH242619   3.812   1.181   5.089 -0.1881  0.3699 -0.0885
 7043TIP3    H142620   3.767   1.113   5.039  0.6949 -0.7569  0.5989
 7043TIP3    H242621   3.743   1.243   5.113 -2.0121 -2.4318  2.9042
 7044TIP3   OH242622   4.938   5.536   1.593 -0.5496  0.5844  0.3023
 7044TIP3    H142623   5.019   5.494   1.620  0.1341  1.7934  0.1858
 7044TIP3    H242624   4.877   5.521   1.665 -0.2319 -0.3117  0.3944
 7045TIP3   OH242625   0.248   0.844   1.885 -0.0273 -0.1486 -0.1516
 7045TIP3    H142626   0.337   0.811   1.895  0.1278 -0.1251 -1.2760
 7045TIP3    H242627   0.206   0.780   1.827 -0.2275  0.7315 -0.9891
 7046TIP3   OH242628   3.996   3.725   0.208  0.1736 -0.1024 -0.7483
 7046TIP3    H142629   4.012   3.636   0.177  1.3019 -0.3613  0.5214
 7046TIP3    H242630   4.080   3.769   0.198 -0.3036  0.7566 -1.0958
 7047TIP3   OH242631   3.238   1.864  11.043 -0.1194  0.0418  0.0648
 7047TIP3    H142632   3.218   1.956  11.025 -0.8239 -0.2718 -0.8780
 7047TIP3    H242633   3.215   1.852  11.135 -1.3242  0.4807 -0.1588
 7048TIP3   OH242634   6.484   4.034   0.125  0.2053 -0.2267  0.0806
 7048TIP3    H142635   6.492   3.985   0.044  0.3391  0.3228 -0.2484
 7048TIP3    H242636   6.500   3.970   0.194 -1.7943 -1.1272 -0.2259
 7049TIP3   OH242637   4.630   2.071  14.920  0.0319  0.3076  0.1628
 7049TIP3    H142638   4.608   2.069  14.827  0.3362 -1.4241  0.0917
 7049TIP3    H242639   4.592   2.153  14.952 -1.7479  0.0357 -1.0944
 7050TIP3   OH242640   4.636   3.952  13.698  0.1826 -0.0681  0.1063
 7050TIP3    H142641   4.643   3.895  13.621  0.6252  0.2703 -0.1068
 7050TIP3    H242642   4.715   4.005  13.696  1.0930 -1.2638  1.7905
 7051TIP3   OH242643   4.853   6.412   2.275  0.2815  0.1150 -0.2096
 7051TIP3    H142644   4.928   6.405   2.335  0.9045 -0.4985 -1.0337
 7051TIP3    H242645   4.814   6.497   2.295 -0.2116 -0.5361  1.8400
 7052TIP3   OH242646   1.372   6.541  10.808  0.4129  0.2337  0.0616
 7052TIP3    H142647   1.377   6.447  10.826 -0.3456  0.3829  1.1769
 7052TIP3    H242648   1.282   6.566  10.831  0.0527  0.9311 -1.8819
 7053TIP3   OH242649   1.121   2.642   3.118  0.4155 -0.0985  0.1598
 7053TIP3    H142650   1.141   2.631   3.024 -1.6890  1.6778 -0.5735
 7053TIP3    H242651   1.040   2.592   3.131  0.5566 -0.1239  0.9983
 7054TIP3   OH242652   5.780   4.417   2.415 -0.1607 -0.3669  0.7184
 7054TIP3    H142653   5.695   4.430   2.373 -0.4406  1.4652  1.7298
 7054TIP3    H242654   5.758   4.395   2.506  0.4117  1.3701  1.3031
 7055TIP3   OH242655   2.211   1.798   3.108  0.1475 -0.8286  0.7014
 7055TIP3    H142656   2.217   1.739   3.033 -1.6839  1.8481 -1.7657
 7055TIP3    H242657   2.279   1.768   3.167  0.9675 -3.7954 -1.4979
 7056TIP3   OH242658   5.164   2.881   5.783  0.5960  0.0440  0.2327
 7056TIP3    H142659   5.082   2.890   5.734  1.9912  1.7074 -2.0211
 7056TIP3    H242660   5.230   2.863   5.716  2.1304 -1.1735  1.9610
 7057TIP3   OH242661   1.053   2.261   1.173 -0.5911 -0.1795 -0.0050
 7057TIP3    H142662   0.984   2.222   1.228 -0.2764 -0.0418  0.4996
 7057TIP3    H242663   1.133   2.217   1.201 -0.6937 -1.6803 -1.8741
 7058TIP3   OH242664   0.373   4.917   0.838 -0.0779  0.2288 -0.5310
 7058TIP3    H142665   0.424   4.860   0.896 -0.8174 -1.0329 -1.0931
 7058TIP3    H242666   0.391   4.884   0.750  0.1145  1.3888 -0.9508
 7059TIP3   OH242667   0.504   3.176   4.748  0.7280  0.3592  0.0477
 7059TIP3    H142668   0.599   3.177   4.731  0.6869 -2.8933 -1.2094
 7059TIP3    H242669   0.467   3.235   4.683  1.7586 -0.3860 -1.2774
 7060TIP3   OH242670   5.860   6.347   4.604  0.2706  0.2430  0.1205
 7060TIP3    H142671   5.868   6.267   4.655 -1.2720 -1.2993 -1.8715
 7060TIP3    H242672   5.836   6.317   4.516 -1.1948  2.9293 -0.5092
 7061TIP3   OH242673   3.431   5.934  13.531 -0.0477  0.3156 -0.7009
 7061TIP3    H142674   3.358   5.896  13.483 -1.3189  0.5531  0.9727
 7061TIP3    H242675   3.428   6.027  13.510  0.0995  0.2520 -1.0179
 7062TIP3   OH242676   2.607   0.082   1.069 -0.1516  0.3061  0.0296
 7062TIP3    H142677   2.690   0.063   1.026 -0.2196 -1.2953  0.5641
 7062TIP3    H242678   2.541   0.041   1.013 -0.2799 -1.4040  1.3603
 7063TIP3   OH242679   3.206   2.949   5.034 -0.4495  0.3390 -0.2246
 7063TIP3    H142680   3.288   2.916   5.071 -0.7926  0.0099  0.2576
 7063TIP3    H242681   3.170   3.007   5.101 -1.2006 -0.4573  0.0848
 7064TIP3   OH242682   3.734   4.874   5.880  0.0143  0.6347  0.5051
 7064TIP3    H142683   3.705   4.784   5.893  0.7207  0.5635  1.6873
 7064TIP3    H242684   3.736   4.913   5.968  1.0192  1.3856  0.1833
 7065TIP3   OH242685   5.216   4.078   2.015 -0.1141  0.4366  0.4847
 7065TIP3    H142686   5.277   4.152   2.013 -0.9705  1.1991 -2.9627
 7065TIP3    H242687   5.259   4.013   2.071  2.1440  2.3104  1.0762
 7066TIP3   OH242688   6.275   1.475  11.867 -0.3937 -0.0484  0.1293
 7066TIP3    H142689   6.275   1.565  11.833 -0.5778  1.0538  2.8062
 7066TIP3    H242690   6.200   1.434  11.825 -1.6300  1.7513  0.4593
 7067TIP3   OH242691   2.429   6.212   4.513 -0.2995  0.4125 -0.3371
 7067TIP3    H142692   2.403   6.302   4.535  0.9208  0.5393  0.7389
 7067TIP3    H242693   2.525   6.215   4.513 -0.2446 -0.8971 -0.2545
 7068TIP3   OH242694   3.609   6.338  10.522 -0.2849 -0.3644  0.1766
 7068TIP3    H142695   3.681   6.400  10.516 -1.6588  1.5594  1.9337
 7068TIP3    H242696   3.585   6.340  10.615 -1.9492 -1.6993 -0.1876
 7069TIP3   OH242697   1.670   0.463  13.022 -0.0677  0.1763 -0.3374
 7069TIP3    H142698   1.680   0.457  13.117  0.3248  0.2593 -0.3713
 7069TIP3    H242699   1.576   0.452  13.007 -0.2411  0.9372  0.1171
 7070TIP3   OH242700   4.699   3.301  12.777 -0.2074 -0.2404  0.7166
 7070TIP3    H142701   4.720   3.244  12.703  2.7143  0.2483  1.0091
 7070TIP3    H242702   4.728   3.388  12.748 -3.3421  0.9495  0.7726
 7071TIP3   OH242703   5.392   4.218   5.687  0.3968 -0.4679 -0.3235
 7071TIP3    H142704   5.354   4.130   5.688  0.3519 -0.4450  0.0360
 7071TIP3    H242705   5.373   4.253   5.774 -1.0089  0.4996 -0.9715
 7072TIP3   OH242706   6.527   2.599  11.542  0.0481  0.2172 -0.7201
 7072TIP3    H142707   6.576   2.563  11.616 -0.3219  2.2273  0.5744
 7072TIP3    H242708   6.471   2.528  11.513  0.2015 -0.6148  0.9347
 7073TIP3   OH242709   4.298   6.206   5.182  0.1231 -0.5373  0.0747
 7073TIP3    H142710   4.353   6.178   5.109 -1.1775  0.3553 -1.3191
 7073TIP3    H242711   4.356   6.256   5.238  1.2948 -1.7654  0.0044
 7074TIP3   OH242712   4.184   3.306   2.345  0.2075 -0.4088  0.4545
 7074TIP3    H142713   4.160   3.297   2.253  0.8044  1.2931  0.0944
 7074TIP3    H242714   4.276   3.332   2.344 -0.4251  2.1609  1.3722
 7075TIP3   OH242715   3.423   3.348  12.300  0.5183 -0.4116  0.0437
 7075TIP3    H142716   3.459   3.426  12.342  0.0123 -0.3321  0.3300
 7075TIP3    H242717   3.475   3.338  12.220  0.2740  0.4848 -0.2316
 7076TIP3   OH242718   3.207   6.251   4.129  0.0157  0.4006  0.1343
 7076TIP3    H142719   3.275   6.306   4.168 -0.5187  1.3763 -0.2703
 7076TIP3    H242720   3.225   6.163   4.162  2.8690  0.1418 -1.7502
 7077TIP3   OH242721   4.237   4.275  11.495  0.2560  0.0067  0.6603
 7077TIP3    H142722   4.150   4.282  11.536 -0.0391  0.2550  0.0112
 7077TIP3    H242723   4.274   4.194  11.530 -0.1893 -0.0436  1.0290
 7078TIP3   OH242724   5.246   5.254  14.628  0.4301 -0.1384  0.2415
 7078TIP3    H142725   5.223   5.347  14.636 -0.1182 -0.3788  2.0038
 7078TIP3    H242726   5.341   5.254  14.616  0.1955  0.6977 -2.1722
 7079TIP3   OH242727   2.267   4.116   1.708  0.1738 -0.5722 -0.2216
 7079TIP3    H142728   2.292   4.040   1.655  0.4301 -0.1492 -0.7153
 7079TIP3    H242729   2.199   4.083   1.767 -0.6326 -0.8767 -1.3017
 7080TIP3   OH242730   4.520   4.830   0.959 -0.5474 -0.2442 -0.5086
 7080TIP3    H142731   4.599   4.826   0.905 -1.6053  1.8357 -2.3906
 7080TIP3    H242732   4.476   4.911   0.931 -2.1050 -0.0079  2.2489
 7081TIP3   OH242733   4.491   2.763   3.438  0.1450  0.0974 -0.0746
 7081TIP3    H142734   4.503   2.789   3.530 -2.5995 -0.3473  0.4906
 7081TIP3    H242735   4.444   2.836   3.398  0.4599 -0.1407 -0.9083
 7082TIP3   OH242736   5.135   2.747   3.205 -0.7375  0.3087 -0.0302
 7082TIP3    H142737   5.111   2.825   3.255  1.1053 -0.3039  1.9869
 7082TIP3    H242738   5.175   2.688   3.269  2.0831 -0.4354 -2.2394
 7083TIP3   OH242739   2.794   2.849  11.036 -0.3134 -0.3079 -0.2681
 7083TIP3    H142740   2.818   2.852  10.943 -1.7939  0.7508 -0.6526
 7083TIP3    H242741   2.699   2.850  11.036 -0.4575  3.5694  1.2876
 7084TIP3   OH242742   4.406   2.386   2.152  0.3547 -0.0869 -0.2612
 7084TIP3    H142743   4.414   2.294   2.176 -1.0568 -0.1240  0.2026
 7084TIP3    H242744   4.495   2.419   2.149  1.1156 -2.0451 -2.8832
 7085TIP3   OH242745   0.207   0.665  14.776 -0.2647 -0.0621 -0.4215
 7085TIP3    H142746   0.179   0.633  14.862  1.3183  0.5210  0.3679
 7085TIP3    H242747   0.274   0.603  14.748  1.6125  1.5245  0.3468
 7086TIP3   OH242748   5.455   3.948  13.697  0.4716  0.4986 -0.1578
 7086TIP3    H142749   5.399   3.895  13.753  0.9431  0.3289  0.1540
 7086TIP3    H242750   5.405   4.028  13.681  0.4213  0.6348  0.6700
 7087TIP3   OH242751   0.898   2.766   1.166 -0.0687  0.3050  0.3062
 7087TIP3    H142752   0.877   2.677   1.140 -0.5881 -0.2109  2.3790
 7087TIP3    H242753   0.893   2.766   1.261 -0.4517  2.6387  0.3452
 7088TIP3   OH242754   5.471   2.145   4.994 -0.2891 -0.0064  0.1613
 7088TIP3    H142755   5.451   2.228   4.951  0.4574  0.6382  1.0105
 7088TIP3    H242756   5.525   2.098   4.931 -0.2378  0.3980 -0.1035
 7089TIP3   OH242757   3.095   5.595  12.255 -0.2251  1.3364 -0.2222
 7089TIP3    H142758   3.093   5.668  12.317 -0.3096  1.8565 -0.8234
 7089TIP3    H242759   3.037   5.530  12.293 -0.5125  1.7715  0.0983
 7090TIP3   OH242760   6.640   3.246  12.361 -0.7226 -0.2178 -0.2658
 7090TIP3    H142761   6.597   3.244  12.447 -1.5947  0.9629 -0.6406
 7090TIP3    H242762   6.731   3.224  12.379 -0.8914  0.0099  0.9668
 7091TIP3   OH242763   1.639   0.301   3.666 -0.1640  0.2214 -0.2948
 7091TIP3    H142764   1.654   0.218   3.621  0.7484  1.2690 -2.0059
 7091TIP3    H242765   1.706   0.360   3.633 -1.5548  2.0190 -0.0979
 7092TIP3   OH242766   0.649   2.113  12.409 -1.0281 -0.3210 -0.4299
 7092TIP3    H142767   0.719   2.049  12.426 -2.0741 -1.2077  0.6891
 7092TIP3    H242768   0.621   2.141  12.496 -0.5964  1.6987 -0.9010
 7093TIP3   OH242769   1.628   0.631  12.423 -0.5306 -0.1898  0.4550
 7093TIP3    H142770   1.570   0.613  12.496 -0.4514 -1.6524  0.1939
 7093TIP3    H242771   1.716   0.620  12.459 -0.4734 -0.2503  0.2971
 7094TIP3   OH242772   0.857   4.967  12.691  0.1617 -0.4332 -0.1592
 7094TIP3    H142773   0.838   4.873  12.692 -1.3774 -0.1571  1.4077
 7094TIP3    H242774   0.875   4.989  12.782 -0.2872  0.9384 -0.3727
 7095TIP3   OH242775   5.107   4.725  16.938 -0.8726 -0.3691  0.1667
 7095TIP3    H142776   5.114   4.722  17.033  0.4479  1.0949  0.1518
 7095TIP3    H242777   5.194   4.702  16.907 -1.2677 -0.7374 -0.7091
 7096TIP3   OH242778   4.949   6.759  13.625  0.4304  0.4972 -0.2991
 7096TIP3    H142779   5.027   6.812  13.641  0.6916 -0.1003  0.4439
 7096TIP3    H242780   4.980   6.669  13.626 -0.2069  0.2691 -0.3840
 7097TIP3   OH242781   5.341   3.592  16.465 -0.4294  0.3644  0.6150
 7097TIP3    H142782   5.323   3.506  16.428 -0.1551 -0.1706  1.6916
 7097TIP3    H242783   5.362   3.647  16.389  1.7069 -1.0873  0.0827
 7098TIP3   OH242784   5.565   2.050   4.528  0.1831 -0.1942  0.1707
 7098TIP3    H142785   5.631   2.116   4.550  0.2657 -0.1326 -0.2479
 7098TIP3    H242786   5.483   2.099   4.521  0.2026 -0.1718  0.0967
 7099TIP3   OH242787   2.613   1.887   1.254 -0.1295  0.0128 -0.5129
 7099TIP3    H142788   2.638   1.938   1.332 -1.1862 -0.6036  0.2396
 7099TIP3    H242789   2.689   1.895   1.196  0.8066  0.2291  0.7012
 7100TIP3   OH242790   4.707   3.442   3.699 -0.0761  0.0441 -0.4782
 7100TIP3    H142791   4.680   3.524   3.658  0.3478  0.0554 -0.7300
 7100TIP3    H242792   4.679   3.374   3.638  1.2287  0.0984 -1.1572
 7101TIP3   OH242793   6.745   4.592  14.889 -0.1036  0.0675  0.4704
 7101TIP3    H142794   6.793   4.643  14.823 -2.5371 -0.4811 -1.8809
 7101TIP3    H242795   6.753   4.643  14.969  3.2637  0.6064 -0.0416
 7102TIP3   OH242796   5.188   0.357   2.813 -0.2179 -0.2912  0.0860
 7102TIP3    H142797   5.278   0.374   2.840 -0.2242 -0.8850  0.4985
 7102TIP3    H242798   5.167   0.272   2.852 -0.6114 -0.6359 -0.8447
 7103TIP3   OH242799   4.850   4.977  11.752  0.1523  0.4000 -0.1040
 7103TIP3    H142800   4.851   5.040  11.825 -0.9583  0.7562 -0.3892
 7103TIP3    H242801   4.844   4.892  11.795 -0.2091  0.5927  0.2363
 7104TIP3   OH242802   5.928   5.635  13.028 -0.1646  0.1189  0.4140
 7104TIP3    H142803   5.853   5.610  12.974 -0.0555  1.7654 -0.5753
 7104TIP3    H242804   5.992   5.668  12.965  0.0182  2.0006  1.4964
 7105TIP3   OH242805   5.481   0.209   4.728 -0.2388  0.2145 -0.1109
 7105TIP3    H142806   5.451   0.193   4.817  0.4210  2.3733  0.5483
 7105TIP3    H242807   5.555   0.269   4.738  0.4077 -0.1906 -2.0656
 7106TIP3   OH242808   4.933   0.441   0.199 -0.3612  0.2034 -0.0267
 7106TIP3    H142809   4.880   0.519   0.214 -0.2252  0.1073  0.9778
 7106TIP3    H242810   4.876   0.382   0.148 -1.0356  0.3080  0.5956
 7107TIP3   OH242811   4.148   2.969   2.256  0.0456  0.1830 -0.6448
 7107TIP3    H142812   4.126   2.949   2.165  2.0817  0.5573 -1.2787
 7107TIP3    H242813   4.203   3.047   2.251  0.0499  0.3186  0.9367
 7108TIP3   OH242814   2.286   5.346   5.695  0.4226 -0.2526 -0.0263
 7108TIP3    H142815   2.194   5.372   5.689  1.1893  2.9245 -0.0908
 7108TIP3    H242816   2.311   5.365   5.785  1.4644  0.8119 -0.5116
 7109TIP3   OH242817   1.930   4.389  15.496 -0.3195  0.1551  0.2914
 7109TIP3    H142818   1.881   4.307  15.499  0.2146 -0.2922 -1.5805
 7109TIP3    H242819   2.018   4.365  15.527 -0.6878  0.4733  1.6055
 7110TIP3   OH242820   2.015   5.032   5.352 -0.6781  0.0444 -0.1014
 7110TIP3    H142821   2.060   5.005   5.432  0.5355  0.9327 -0.4544
 7110TIP3    H242822   1.991   4.950   5.309 -0.5316 -0.4428  0.7238
 7111TIP3   OH242823   3.239   3.810   0.304 -0.0808  0.0314 -0.2509
 7111TIP3    H142824   3.287   3.863   0.368  0.1707 -0.9041  0.3679
 7111TIP3    H242825   3.299   3.738   0.284 -0.6080 -0.2904 -0.6902
 7112TIP3   OH242826   5.524   6.029   4.098 -0.4778 -0.4711  0.4684
 7112TIP3    H142827   5.599   6.082   4.072 -0.0840 -2.1269 -2.0374
 7112TIP3    H242828   5.551   5.987   4.179  0.3176  0.8128  0.8998
 7113TIP3   OH242829   3.027   4.505  16.272  0.0546 -0.2938  0.3415
 7113TIP3    H142830   3.096   4.442  16.253 -0.3779 -0.8941  0.7606
 7113TIP3    H242831   3.064   4.589  16.243  0.7830 -0.6684  0.1479
 7114TIP3   OH242832   5.872   1.730  12.408 -0.5955 -0.3997 -0.4141
 7114TIP3    H142833   5.862   1.699  12.498  1.6410 -1.0539 -0.3046
 7114TIP3    H242834   5.893   1.823  12.417 -3.7109  0.3965 -0.5227
 7115TIP3   OH242835   3.940   3.508   1.099 -0.4688  0.0606 -0.2826
 7115TIP3    H142836   3.951   3.578   1.162  0.1967 -0.6981  0.4786
 7115TIP3    H242837   3.848   3.512   1.073 -0.7690  0.3562  0.7861
 7116TIP3   OH242838   3.167   2.012  11.515 -0.5942 -0.0614 -0.1287
 7116TIP3    H142839   3.254   2.051  11.503 -1.2654  0.9928 -1.8479
 7116TIP3    H242840   3.154   2.011  11.609  0.9073  0.6028  0.1116
 7117TIP3   OH242841   0.410   0.628  12.169  0.1649  0.2717  0.4939
 7117TIP3    H142842   0.462   0.704  12.142 -2.2313  2.2290  1.0581
 7117TIP3    H242843   0.355   0.608  12.093 -0.4782  0.2695  0.9524
 7118TIP3   OH242844   2.748   0.092  13.041 -0.9038 -0.1619 -0.1024
 7118TIP3    H142845   2.693   0.017  13.065 -2.6080  0.3145 -2.1886
 7118TIP3    H242846   2.780   0.070  12.953  2.1955 -0.3186  0.9442
 7119TIP3   OH242847   1.111   6.493  11.598 -0.0889 -0.0187  0.4146
 7119TIP3    H142848   1.134   6.522  11.686  1.2349 -0.5595  0.2768
 7119TIP3    H242849   1.126   6.570  11.543 -0.5262  0.2028  0.6040
 7120TIP3   OH242850   4.944   4.679   5.456  0.0843  0.1104 -0.3440
 7120TIP3    H142851   4.866   4.636   5.421 -0.2993  1.2430 -0.9351
 7120TIP3    H242852   4.940   4.664   5.550 -0.1937 -0.8664 -0.4953
 7121TIP3   OH242853   1.050   2.361  15.448  0.5594  0.0515  0.5476
 7121TIP3    H142854   1.111   2.319  15.388 -0.1917 -0.3282  0.0245
 7121TIP3    H242855   1.105   2.415  15.506  1.2817  0.5920 -0.6103
 7122TIP3   OH242856   2.182   0.060  13.781 -0.0530  0.1700  0.1966
 7122TIP3    H142857   2.127   0.131  13.815 -1.0719 -1.4298  2.0921
 7122TIP3    H242858   2.146  -0.020  13.820  1.0955 -1.4271 -1.7852
 7123TIP3   OH242859   6.111   4.835   1.833 -0.0443  0.3833 -0.1710
 7123TIP3    H142860   6.036   4.793   1.791  0.9003  1.3324 -3.0877
 7123TIP3    H242861   6.074   4.883   1.907 -2.0429 -0.4605 -0.5677
 7124TIP3   OH242862   1.667   2.736  16.935  0.0959  0.0308 -0.2786
 7124TIP3    H142863   1.656   2.774  17.022  0.5726 -1.1091  0.3048
 7124TIP3    H242864   1.695   2.808  16.880  0.6487  0.5828  0.7115
 7125TIP3   OH242865   1.243   6.036   0.297 -0.1350 -0.5422  0.2458
 7125TIP3    H142866   1.195   6.066   0.374  0.7405  2.0001 -0.1062
 7125TIP3    H242867   1.256   6.115   0.245  1.3605 -1.7762 -1.3595
 7126TIP3   OH242868   2.571   1.006  16.919 -0.3630 -0.2934 -0.4629
 7126TIP3    H142869   2.507   0.951  16.873 -0.0434 -1.2598  0.2116
 7126TIP3    H242870   2.524   1.039  16.996 -0.4572  0.1230 -0.6966
 7127TIP3   OH242871   4.522   5.314   3.696  0.0062 -0.7023 -0.3565
 7127TIP3    H142872   4.522   5.409   3.683 -1.4780 -0.9621 -3.1591
 7127TIP3    H242873   4.606   5.285   3.658 -0.5395 -0.6577 -1.6595
 7128TIP3   OH242874   1.402   6.185  11.644  0.1082  0.0268  0.4902
 7128TIP3    H142875   1.321   6.213  11.688 -0.0812 -1.1229  0.8985
 7128TIP3    H242876   1.386   6.094  11.620  1.0780 -0.0390  0.0645
 7129TIP3   OH242877   6.353   0.670  14.525  0.5374  0.1806 -0.0619
 7129TIP3    H142878   6.434   0.668  14.474  0.6759 -1.6423  0.1780
 7129TIP3    H242879   6.376   0.632  14.610 -0.4687  0.0352  0.1652
 7130TIP3   OH242880   2.718   4.367  11.550 -0.5803 -0.2896  0.0722
 7130TIP3    H142881   2.736   4.418  11.629 -0.2914  0.2762 -0.3419
 7130TIP3    H242882   2.659   4.297  11.578 -1.1971  0.4290  0.6086
 7131TIP3   OH242883   1.375   2.094   0.883 -0.3254 -0.7399 -0.3193
 7131TIP3    H142884   1.348   2.037   0.811 -1.8411 -2.3674  1.4128
 7131TIP3    H242885   1.391   2.034   0.956 -1.5271  0.9743  1.4643
 7132TIP3   OH242886   1.578   1.329  12.449 -0.4994 -0.1394 -0.7419
 7132TIP3    H142887   1.560   1.386  12.524 -0.6811  0.4916 -1.2549
 7132TIP3    H242888   1.617   1.387  12.383 -1.1515 -0.5050 -1.4633
 7133TIP3   OH242889   0.363   6.778  12.627 -0.7383 -0.4169 -0.6251
 7133TIP3    H142890   0.382   6.859  12.579  1.9989  0.5579  1.8049
 7133TIP3    H242891   0.313   6.807  12.704  2.2815 -0.4753  1.5454
 7134TIP3   OH242892   4.765   0.613  12.050 -0.2465 -0.0460  0.4080
 7134TIP3    H142893   4.751   0.586  11.959 -1.0604 -0.6938  0.7108
 7134TIP3    H242894   4.745   0.534  12.102 -1.9723  0.8847  1.2732
 7135TIP3   OH242895   4.719   5.157   1.506  0.3663  0.7182 -0.0066
 7135TIP3    H142896   4.790   5.105   1.542 -0.8220 -1.8692 -1.1044
 7135TIP3    H242897   4.663   5.177   1.581 -0.4265 -1.8223  0.1643
 7136TIP3   OH242898   6.047   2.157  12.968  0.4423 -0.0971 -0.1686
 7136TIP3    H142899   6.033   2.131  13.059 -1.6476  0.5187 -0.2514
 7136TIP3    H242900   6.109   2.093  12.933  0.8819 -0.6400  1.5322
 7137TIP3   OH242901   0.116   3.160   3.511  0.4369  0.5746  0.2096
 7137TIP3    H142902   0.106   3.242   3.463 -0.0311  0.0625 -0.5976
 7137TIP3    H242903   0.069   3.095   3.458  0.4635 -0.1395  1.0305
 7138TIP3   OH242904   5.436   5.433   5.056 -0.2596 -0.2874  0.1408
 7138TIP3    H142905   5.445   5.380   5.135 -0.0387 -0.1821  0.1857
 7138TIP3    H242906   5.416   5.521   5.087  0.1565 -0.1733  0.0939
 7139TIP3   OH242907   5.944   1.965  12.120 -0.1314  0.3237 -0.4591
 7139TIP3    H142908   5.964   2.043  12.068  0.5249  0.7476  0.4075
 7139TIP3    H242909   6.029   1.927  12.141 -0.4123 -0.1822 -0.1912
 7140TIP3   OH242910   5.705   1.434  11.293 -0.1778 -0.0860 -0.0048
 7140TIP3    H142911   5.778   1.419  11.353 -0.1684  0.2739  0.0759
 7140TIP3    H242912   5.672   1.346  11.273  2.1800 -0.5591 -2.4770
 7141TIP3   OH242913   6.626   2.695  13.390 -0.1459 -0.4265 -0.3032
 7141TIP3    H142914   6.669   2.706  13.475  0.0253  0.4156 -0.4968
 7141TIP3    H242915   6.666   2.616  13.353 -0.9072 -1.3532  0.8071
 7142TIP3   OH242916   5.533   3.891   5.667 -0.3028 -0.3979 -0.0276
 7142TIP3    H142917   5.563   3.928   5.751 -0.3497  0.8366 -0.5309
 7142TIP3    H242918   5.443   3.864   5.684  0.1022 -1.3650  0.6695
 7143TIP3   OH242919   5.238   3.340  12.721 -0.0901 -0.5255 -0.0591
 7143TIP3    H142920   5.191   3.263  12.690  2.9164 -1.9042 -1.6258
 7143TIP3    H242921   5.200   3.413  12.673 -1.1095 -1.4463 -0.6835
 7144TIP3   OH242922   1.957   2.416  12.794 -0.0697  0.1856  0.2681
 7144TIP3    H142923   1.867   2.412  12.763 -0.3263 -1.2513  1.0855
 7144TIP3    H242924   2.010   2.427  12.715 -0.9638  1.5106 -0.1814
 7145TIP3   OH242925   4.325   2.415  15.037 -1.0577  0.2232  0.2755
 7145TIP3    H142926   4.311   2.508  15.019 -2.7932  0.0672  0.6535
 7145TIP3    H242927   4.239   2.375  15.023 -0.4922 -1.2103  0.7910
 7146TIP3   OH242928   3.903   5.065  14.089  0.1260  0.8105 -1.0952
 7146TIP3    H142929   3.879   5.095  14.177 -0.6235 -0.3979 -0.8581
 7146TIP3    H242930   3.996   5.042  14.095  0.0109  0.4715 -0.5281
 7147TIP3   OH242931   5.380   0.309  16.804  0.5014  0.6420 -0.2121
 7147TIP3    H142932   5.376   0.216  16.780 -0.2336  0.7343 -0.4696
 7147TIP3    H242933   5.291   0.342  16.788  0.5261  1.1908  0.6832
 7148TIP3   OH242934   2.631   3.287   1.093  0.3175  0.0301  0.0079
 7148TIP3    H142935   2.708   3.237   1.121 -0.2787 -0.7879  0.2125
 7148TIP3    H242936   2.566   3.221   1.071 -0.1188  0.7098 -0.7889
 7149TIP3   OH242937   1.675   6.315  16.880  0.1513  0.1184 -0.0325
 7149TIP3    H142938   1.614   6.382  16.911  0.6485  0.3560  0.4549
 7149TIP3    H242939   1.757   6.361  16.868  0.2586 -0.2151 -0.6273
 7150TIP3   OH242940   3.113   1.342  15.736  0.1360 -0.2043 -0.0442
 7150TIP3    H142941   3.201   1.314  15.711 -0.6670 -1.2777 -1.9242
 7150TIP3    H242942   3.072   1.263  15.771 -0.2292  0.1672  0.3763
 7151TIP3   OH242943   0.268   5.192   5.814  0.2250  0.1581 -0.4671
 7151TIP3    H142944   0.257   5.261   5.750  1.2316 -0.9284 -1.8845
 7151TIP3    H242945   0.193   5.134   5.801 -0.5853  0.9228  0.6762
 7152TIP3   OH242946   0.398   0.835  15.951  0.3513  0.2673 -0.1804
 7152TIP3    H142947   0.462   0.904  15.934 -0.3244  1.1717  0.7891
 7152TIP3    H242948   0.433   0.788  16.027  0.1403  0.4111  0.0064
 7153TIP3   OH242949   0.015   5.771  13.614 -0.3030 -0.4053  0.0774
 7153TIP3    H142950  -0.054   5.836  13.631 -0.4558 -1.1331  2.5213
 7153TIP3    H242951   0.094   5.809  13.652  0.3882 -0.2389 -1.4243
 7154TIP3   OH242952   6.123   1.415   0.889  0.2588  0.0711  0.1495
 7154TIP3    H142953   6.124   1.478   0.961  0.9231  1.4102 -0.9777
 7154TIP3    H242954   6.071   1.457   0.820  0.9279 -0.4973 -0.7287
 7155TIP3   OH242955   2.027   6.289  15.968 -0.6009 -0.1410  0.4803
 7155TIP3    H142956   1.935   6.288  15.995 -0.4469 -1.3970  1.0377
 7155TIP3    H242957   2.074   6.248  16.042  0.5130  1.1914  0.5557
 7156TIP3   OH242958   1.470   6.718  16.386 -0.0116 -0.3182 -0.3157
 7156TIP3    H142959   1.493   6.685  16.298  2.6292 -0.6218  0.3954
 7156TIP3    H242960   1.446   6.639  16.435  1.7761 -0.6676  0.0907
 7157TIP3   OH242961   1.509   4.829   5.854  0.0545 -0.6634  0.5688
 7157TIP3    H142962   1.552   4.894   5.797 -2.1178  0.9944  0.7242
 7157TIP3    H242963   1.429   4.805   5.807  1.2040 -4.0455  0.0679
 7158TIP3   OH242964   0.170   3.390   5.215  0.3685 -0.4208 -0.0421
 7158TIP3    H142965   0.227   3.424   5.284  0.8441 -1.0193 -0.1237
 7158TIP3    H242966   0.111   3.330   5.260 -0.2860  0.2916  0.0603
 7159TIP3   OH242967   1.777   0.456  16.167 -0.3166 -0.2714 -0.1911
 7159TIP3    H142968   1.777   0.405  16.248 -0.2634 -1.1333 -0.7232
 7159TIP3    H242969   1.701   0.423  16.119 -2.3639  2.4451  0.8440
 7160TIP3   OH242970   4.118   2.219  16.045  0.2746  0.3437 -0.2914
 7160TIP3    H142971   4.023   2.207  16.041  0.3927 -0.5402 -0.5553
 7160TIP3    H242972   4.151   2.182  15.963  1.0780 -1.7583  0.9183
 7161TIP3   OH242973   0.213   3.389  13.250  0.2266  0.2486  0.0283
 7161TIP3    H142974   0.301   3.364  13.278 -0.1075 -0.1480  0.7608
 7161TIP3    H242975   0.157   3.317  13.281 -0.7369  1.7375  2.0150
 7162TIP3   OH242976   3.087   5.188   5.822  0.0108 -0.3488  0.3169
 7162TIP3    H142977   3.122   5.146   5.902  2.1823  1.2930  0.3206
 7162TIP3    H242978   3.004   5.143   5.807 -0.9984 -0.1152  4.0337
 7163TIP3   OH242979   0.772   0.028   4.190 -0.5244 -0.4961 -0.0259
 7163TIP3    H142980   0.677   0.020   4.194 -0.6606  0.8588  0.1023
 7163TIP3    H242981   0.787   0.121   4.169  0.7758 -0.4879  0.8384
 7164TIP3   OH242982   4.305   3.031   3.420  0.1082  1.0378 -0.3193
 7164TIP3    H142983   4.267   3.028   3.507  0.6668  0.8845 -0.0772
 7164TIP3    H242984   4.244   3.085   3.369  0.4042  2.1619  0.4759
 7165TIP3   OH242985   5.943   0.775   3.910  0.0131 -0.3750  0.1192
 7165TIP3    H142986   5.994   0.726   3.845  0.4754 -0.3892  0.4809
 7165TIP3    H242987   5.870   0.812   3.861  0.2977 -0.4706 -0.3876
 7166TIP3   OH242988   6.605   3.663  11.500  0.0969  0.0201  0.0702
 7166TIP3    H142989   6.584   3.711  11.420  0.9962  0.3452  0.0230
 7166TIP3    H242990   6.559   3.710  11.569 -0.3787 -0.0401 -0.2013
 7167TIP3   OH242991   0.626   3.212   4.391 -0.6375 -0.0302 -0.2035
 7167TIP3    H142992   0.540   3.188   4.426 -0.5321  0.1475  0.1837
 7167TIP3    H242993   0.688   3.169   4.450 -0.4581  0.3470 -0.1125
 7168TIP3   OH242994   1.522   2.702   3.718 -0.3893 -0.0499  1.0280
 7168TIP3    H142995   1.455   2.703   3.786 -0.5703 -0.3626  0.8582
 7168TIP3    H242996   1.476   2.730   3.639  0.2836  2.4853  1.4208
 7169TIP3   OH242997   5.876   1.058  15.495  0.0498 -0.5906 -0.3652
 7169TIP3    H142998   5.816   0.998  15.540 -1.9178  0.0870 -1.9541
 7169TIP3    H242999   5.890   1.129  15.557 -1.2269 -0.5050 -0.1565
 7170TIP3   OH243000   5.639   4.604   0.504  0.6062 -0.5859 -0.5005
 7170TIP3    H143001   5.614   4.616   0.412  2.0914  0.9837 -0.7399
 7170TIP3    H243002   5.624   4.689   0.545  1.6917 -0.7406  0.2693
 7171TIP3   OH243003   6.880   5.377   0.247  0.4837  0.6841 -0.0665
 7171TIP3    H143004   6.820   5.442   0.210  1.0318  0.2508 -1.8158
 7171TIP3    H243005   6.963   5.423   0.256  0.4205  0.7120  0.3872
 7172TIP3   OH243006   2.398   0.626   1.913  0.1108 -0.2501  0.1507
 7172TIP3    H143007   2.463   0.583   1.858  1.5359  1.6825  0.2267
 7172TIP3    H243008   2.409   0.585   1.999  3.4531  1.9813  0.9922
 7173TIP3   OH243009   3.180   3.278  12.093  0.4264 -0.7703 -0.0889
 7173TIP3    H143010   3.255   3.221  12.076  2.3487  1.2208  1.1918
 7173TIP3    H243011   3.169   3.275  12.188  0.5310  0.8444  0.0124
 7174TIP3   OH243012   4.942   1.687   1.601  0.6991  0.9966 -0.2845
 7174TIP3    H143013   4.984   1.672   1.686 -1.1386  1.2829  0.7404
 7174TIP3    H243014   5.014   1.694   1.539  2.0230 -2.1290  0.7363
 7175TIP3   OH243015   2.850   2.826   1.601 -0.0681  0.2451 -0.1637
 7175TIP3    H143016   2.801   2.790   1.675 -0.0443 -0.0658 -0.2966
 7175TIP3    H243017   2.942   2.815   1.626  0.0042 -1.7852 -1.1052
 7176TIP3   OH243018   2.584   6.629  14.676 -0.3123 -0.8822  0.0487
 7176TIP3    H143019   2.594   6.723  14.661 -0.9007 -0.5177  1.7263
 7176TIP3    H243020   2.524   6.623  14.750  0.6071 -2.5571  0.7040
 7177TIP3   OH243021   6.671   6.496  11.988  0.1541  0.0326  0.4665
 7177TIP3    H143022   6.669   6.501  11.893 -0.2996 -2.9920  0.2231
 7177TIP3    H243023   6.677   6.588  12.017 -0.5919  1.0842 -2.3977
 7178TIP3   OH243024   4.163   4.963  13.455  0.0826 -0.5217 -0.2630
 7178TIP3    H143025   4.101   5.023  13.497  2.1792  2.0165 -0.4693
 7178TIP3    H243026   4.120   4.936  13.374 -0.5453  1.7304 -0.7441
 7179TIP3   OH243027   4.694   0.521  14.253 -0.1066  0.4035 -0.6248
 7179TIP3    H143028   4.605   0.489  14.270 -0.2495  1.1393  0.0919
 7179TIP3    H243029   4.741   0.505  14.335 -0.6138  3.3822  0.4007
 7180TIP3   OH243030   0.085   1.342   1.113  0.2916 -0.0090  0.3366
 7180TIP3    H143031   0.150   1.404   1.079  0.0270 -0.5243 -1.2079
 7180TIP3    H243032   0.035   1.315   1.036 -0.5762 -1.0120  1.2104
 7181TIP3   OH243033   0.329   5.278   0.771 -0.2823 -0.2748  0.0024
 7181TIP3    H143034   0.323   5.368   0.805  0.4914 -0.5914  1.0113
 7181TIP3    H243035   0.314   5.288   0.677 -0.9156  0.8222  0.1929
 7182TIP3   OH243036   4.613   6.541  16.526  0.0384 -0.3080 -0.2413
 7182TIP3    H143037   4.576   6.556  16.439  0.2149  0.9561 -0.1205
 7182TIP3    H243038   4.539   6.511  16.578 -0.3274  0.0575 -0.5427
 7183TIP3   OH243039   5.078   1.664  11.570 -0.2321  0.1598  0.1051
 7183TIP3    H143040   5.140   1.637  11.639 -1.6673 -4.0828  0.0146
 7183TIP3    H243041   5.027   1.735  11.610  0.5193 -0.5708  2.5565
 7184TIP3   OH243042   0.796   0.081  15.486 -0.1183 -0.4871  0.3831
 7184TIP3    H143043   0.813   0.043  15.572 -2.3220  0.4170  1.3146
 7184TIP3    H243044   0.794   0.006  15.426 -1.4371 -1.5245  1.6547
 7185TIP3   OH243045   1.556   1.938   4.420  0.0644 -0.0287  0.0946
 7185TIP3    H143046   1.605   1.915   4.499  0.8340  0.4612 -0.2319
 7185TIP3    H243047   1.534   1.854   4.380  2.3034 -0.2841 -0.7489
 7186TIP3   OH243048   5.407   0.596   3.678 -0.0804  0.0929 -0.2154
 7186TIP3    H143049   5.412   0.684   3.640  1.8954 -0.2535 -0.8777
 7186TIP3    H243050   5.416   0.538   3.602 -0.9057 -0.6780  0.2707
 7187TIP3   OH243051   6.702   1.014   0.261 -0.6222  0.1734  0.3358
 7187TIP3    H143052   6.665   0.994   0.347  0.5811 -0.6441  0.6869
 7187TIP3    H243053   6.741   1.101   0.272  0.4264 -0.3479  0.9544
 7188TIP3   OH243054   4.131   2.295  13.548  0.4324 -0.0175  0.1928
 7188TIP3    H143055   4.189   2.241  13.602  0.5878  0.2377  0.2825
 7188TIP3    H243056   4.058   2.318  13.607  0.8098  0.6083  0.4240
 7189TIP3   OH243057   4.832   6.688  15.377 -0.5835 -0.1911  0.3538
 7189TIP3    H143058   4.797   6.653  15.295  0.3276  1.1168 -0.6158
 7189TIP3    H243059   4.766   6.751  15.406  0.7047  2.0434 -1.3124
 7190TIP3   OH243060   5.806   5.239   4.400 -0.1419  0.3128  0.0758
 7190TIP3    H143061   5.897   5.226   4.373 -0.1915  0.1772 -0.0289
 7190TIP3    H243062   5.773   5.150   4.417 -0.7487  0.2123 -1.5081
 7191TIP3   OH243063   3.981   3.261   4.575  0.3807 -0.4670 -0.2497
 7191TIP3    H143064   3.886   3.274   4.576  0.1767 -1.7065  1.8787
 7191TIP3    H243065   4.017   3.348   4.591 -0.4252 -0.1446 -0.1384
 7192TIP3   OH243066   0.393   2.485  16.000  0.2746  0.2979 -0.0470
 7192TIP3    H143067   0.392   2.576  15.969  3.0000  0.6237  0.4965
 7192TIP3    H243068   0.483   2.455  15.983  0.9030 -0.7135  3.9180
 7193TIP3   OH243069   5.187   1.527   4.496  0.2694  0.2769  0.2196
 7193TIP3    H143070   5.124   1.529   4.569  1.2660  0.6690  1.0816
 7193TIP3    H243071   5.176   1.439   4.459  2.9479 -1.8693  3.7744
 7194TIP3   OH243072   6.468   2.240   1.232 -0.1101 -0.3832 -0.2925
 7194TIP3    H143073   6.472   2.169   1.297 -0.6983  0.4543  0.6876
 7194TIP3    H243074   6.377   2.243   1.205 -0.1164  0.0709 -0.2335
 7195TIP3   OH243075   2.226   0.085  15.682  0.2958 -0.5003  0.0549
 7195TIP3    H143076   2.175   0.128  15.614  1.6646  0.1558 -0.5850
 7195TIP3    H243077   2.160   0.042  15.737 -0.8256 -1.3780 -1.8657
 7196TIP3   OH243078   4.623   3.753  13.525  0.2179  0.1832  0.2941
 7196TIP3    H143079   4.695   3.698  13.494 -0.8820 -0.3927 -1.3465
 7196TIP3    H243080   4.575   3.696  13.586  1.1194  0.5763  1.4094
 7197TIP3   OH243081   5.407   2.861  15.394  0.5164 -0.0483  0.2801
 7197TIP3    H143082   5.474   2.914  15.351  0.7365 -0.1884  0.4453
 7197TIP3    H243083   5.326   2.880  15.347  0.9794 -1.1638 -1.0254
 7198TIP3   OH243084   6.391   5.239   5.051 -0.2027 -0.7876 -0.6224
 7198TIP3    H143085   6.443   5.236   4.971 -0.2684 -0.7723 -0.6658
 7198TIP3    H243086   6.408   5.155   5.094  0.4497 -0.4881 -0.2622
 7199TIP3   OH243087   5.096   5.712  15.481 -0.1354  0.1404 -0.2556
 7199TIP3    H143088   5.053   5.656  15.416 -2.2304  0.0619  1.0938
 7199TIP3    H243089   5.180   5.669  15.497 -0.8073 -1.4728 -0.7716
 7200TIP3   OH243090   1.689   4.886  15.514  0.0698  0.3753 -0.0916
 7200TIP3    H143091   1.631   4.858  15.444  0.0709  0.3258 -0.0734
 7200TIP3    H243092   1.735   4.962  15.480  0.6568 -0.1224 -0.4418
 7201TIP3   OH243093   5.525   0.820   1.240  0.1821 -0.1820 -0.2816
 7201TIP3    H143094   5.611   0.779   1.233  0.7998  1.1973 -1.0102
 7201TIP3    H243095   5.480   0.769   1.309  1.0958 -1.7034 -0.7603
 7202TIP3   OH243096   1.148   0.728  14.778  0.2093  0.7610 -0.0195
 7202TIP3    H143097   1.163   0.814  14.819 -0.6832  1.5053 -1.1906
 7202TIP3    H243098   1.143   0.667  14.852 -1.5903  2.0907  1.0511
 7203TIP3   OH243099   2.035   6.489  12.444  0.4729  0.1686  0.1691
 7203TIP3    H143100   2.031   6.535  12.528  0.5736 -0.0164  0.2758
 7203TIP3    H243101   2.101   6.421  12.456  2.0498  1.4710 -0.7171
 7204TIP3   OH243102   5.293   0.061  16.718 -0.1354  0.0414 -0.0171
 7204TIP3    H143103   5.369   0.028  16.670  0.0140 -2.0672  1.4878
 7204TIP3    H243104   5.217   0.030  16.669 -0.0017 -0.0439 -0.1703
 7205TIP3   OH243105   1.378   5.522   4.958  0.3559 -0.4694 -0.7507
 7205TIP3    H143106   1.356   5.590   4.895 -1.7271 -1.7833 -1.5526
 7205TIP3    H243107   1.324   5.543   5.035 -0.1698 -1.1156 -0.9418
 7206TIP3   OH243108   5.267   4.724   3.068 -0.0772  0.0918 -0.4232
 7206TIP3    H143109   5.340   4.699   3.012 -0.8720 -0.2291 -1.3507
 7206TIP3    H243110   5.244   4.812   3.039 -1.5344 -0.6855 -1.7700
 7207TIP3   OH243111   0.112   1.737   2.340  0.0054  0.6644 -0.4236
 7207TIP3    H143112   0.126   1.643   2.325 -1.3222  0.5590 -1.1675
 7207TIP3    H243113   0.017   1.746   2.344  0.1241  1.9750 -0.2452
 7208TIP3   OH243114   2.888   4.752  15.458  0.1479  0.1902  0.2357
 7208TIP3    H143115   2.896   4.783  15.548 -0.8540  1.4236 -0.0692
 7208TIP3    H243116   2.976   4.760  15.422  0.1108  1.9135  0.4447
 7209TIP3   OH243117   4.203   0.231   0.711 -0.3525  0.4938 -0.4447
 7209TIP3    H143118   4.270   0.168   0.684  0.7152 -0.1701  3.2813
 7209TIP3    H243119   4.139   0.179   0.760 -0.8396  1.8978  0.4686
 7210TIP3   OH243120   5.088   1.064  14.581 -0.7139 -0.1038 -0.2033
 7210TIP3    H143121   5.013   1.028  14.533 -0.2143 -0.8926 -0.4117
 7210TIP3    H243122   5.151   1.089  14.513  0.5589 -2.4434 -0.0092
 7211TIP3   OH243123   4.161   0.241  14.710  0.0435 -0.3774  0.3002
 7211TIP3    H143124   4.100   0.169  14.693 -0.9140  0.1994  1.1149
 7211TIP3    H243125   4.230   0.201  14.764 -0.1541 -0.8178  0.2374
 7212TIP3   OH243126   5.694   5.660   4.069  0.8695 -0.0616 -0.1744
 7212TIP3    H143127   5.646   5.695   3.994  1.8226  0.6671 -0.4692
 7212TIP3    H243128   5.639   5.680   4.145  0.2773 -0.0666 -0.6025
 7213TIP3   OH243129   4.519   0.458  10.927  0.6765 -0.2082  0.2744
 7213TIP3    H143130   4.436   0.481  10.885  1.6025  0.4456 -1.2853
 7213TIP3    H243131   4.543   0.537  10.976  0.5342 -0.2947  0.4868
 7214TIP3   OH243132   2.766   3.852  13.833  0.0792  0.2757 -0.0887
 7214TIP3    H143133   2.766   3.756  13.834 -1.2680  0.1926  2.8565
 7214TIP3    H243134   2.850   3.876  13.873 -0.5629  0.2162  1.3501
 7215TIP3   OH243135   2.169   5.409  11.374  0.4106 -0.2333 -0.0583
 7215TIP3    H143136   2.168   5.356  11.294  0.7033  0.2991 -0.4154
 7215TIP3    H243137   2.085   5.455  11.373 -0.2717 -1.3811  0.7359
 7216TIP3   OH243138   5.700   5.049  16.732 -0.1870  0.3595 -0.2786
 7216TIP3    H143139   5.701   5.134  16.689 -0.1402  0.4527 -0.0926
 7216TIP3    H243140   5.729   5.067  16.822 -0.8174  0.2454 -0.0510
 7217TIP3   OH243141   4.611   4.178   4.825  0.4307 -0.0122  0.1758
 7217TIP3    H143142   4.682   4.223   4.780  0.7961  0.9118  1.5934
 7217TIP3    H243143   4.602   4.094   4.780  0.0687  1.2515 -2.2285
 7218TIP3   OH243144   4.075   2.217   3.103 -0.2116 -0.0266  0.0985
 7218TIP3    H143145   4.046   2.207   3.193  1.5310 -0.6024  0.6325
 7218TIP3    H243146   4.011   2.168   3.051 -0.9791 -0.0547  1.0496
 7219TIP3   OH243147   3.640   0.830  11.860  0.2510  0.2939 -0.6984
 7219TIP3    H143148   3.588   0.792  11.789  0.2321 -0.2107 -0.4179
 7219TIP3    H243149   3.577   0.875  11.915  0.1148 -0.2835 -0.3809
 7220TIP3   OH243150   4.018   2.844   6.410 -0.2941  0.1755 -1.4201
 7220TIP3    H143151   4.057   2.759   6.431  1.3154  1.2714  0.4207
 7220TIP3    H243152   3.974   2.870   6.491 -2.7035  0.1779 -2.6391
 7221TIP3   OH243153   1.547   1.552  12.902  0.4428  0.2852 -0.0353
 7221TIP3    H143154   1.538   1.532  12.995  0.0334  2.5792  0.4828
 7221TIP3    H243155   1.487   1.625  12.887 -1.5298 -1.6945 -2.7470
 7222TIP3   OH243156   0.080   0.545  13.820  0.2677  0.4279 -0.9788
 7222TIP3    H143157   0.090   0.631  13.860  2.4721 -0.9227  1.7655
 7222TIP3    H243158   0.149   0.492  13.860 -1.1599 -2.7096 -2.3023
 7223TIP3   OH243159   4.607   3.607   1.748  0.4474 -0.1326 -0.2444
 7223TIP3    H143160   4.628   3.660   1.671  1.7370  2.0498  1.4974
 7223TIP3    H243161   4.691   3.573   1.778  0.1397 -0.0106  0.8115
 7224TIP3   OH243162   2.999   3.485   6.775  0.0780  0.3368  0.2661
 7224TIP3    H143163   3.038   3.573   6.782  1.3079 -0.3406  2.6741
 7224TIP3    H243164   3.074   3.426   6.774 -0.7912 -0.7848  0.1239
 7225TIP3   OH243165   4.258   3.285   3.029  0.4064 -0.2013  0.5335
 7225TIP3    H143166   4.296   3.212   2.979 -0.1217 -0.7004  0.8558
 7225TIP3    H243167   4.241   3.248   3.115 -0.1783  0.2110  0.5943
 7226TIP3   OH243168   4.913   5.146  14.446  0.0235  0.0997 -0.3556
 7226TIP3    H143169   4.847   5.088  14.408 -0.2213  0.9988 -1.3167
 7226TIP3    H243170   4.884   5.159  14.536 -1.3455  0.7934 -0.8678
 7227TIP3   OH243171   3.461   2.161  15.170 -0.1793  0.2530 -0.4712
 7227TIP3    H143172   3.447   2.253  15.149  0.1253 -0.1248 -2.6170
 7227TIP3    H243173   3.374   2.123  15.171 -0.5860  0.9537  3.0103
 7228TIP3   OH243174   3.134   4.810  12.452  0.0650 -0.2998 -0.1541
 7228TIP3    H143175   3.150   4.720  12.423 -0.6559  0.0030 -1.6261
 7228TIP3    H243176   3.086   4.850  12.379 -1.3635  0.7169  1.2696
 7229TIP3   OH243177   3.466   2.821  14.911  0.0877  0.1873 -0.1765
 7229TIP3    H143178   3.481   2.756  14.979 -0.6494  0.3354  0.1334
 7229TIP3    H243179   3.467   2.905  14.957 -0.5570  0.2789 -0.3179
 7230TIP3   OH243180   2.887   5.265   2.538 -0.2170 -0.1393 -0.1930
 7230TIP3    H143181   2.882   5.221   2.623  0.7763  0.5508  0.2409
 7230TIP3    H243182   2.890   5.193   2.475 -0.0224 -0.6747  0.4094
 7231TIP3   OH243183   0.531   3.585  12.741 -0.2182  0.0415  0.3529
 7231TIP3    H143184   0.604   3.621  12.791  0.7596 -0.2065 -0.8401
 7231TIP3    H243185   0.533   3.632  12.657 -0.3629 -1.1202 -0.3306
 7232TIP3   OH243186   3.066   3.615   0.976  0.0605 -0.0021 -0.0158
 7232TIP3    H143187   3.052   3.551   1.047 -0.6502  0.1978  0.0351
 7232TIP3    H243188   3.029   3.696   1.010 -0.1317  0.1371 -0.5477
 7233TIP3   OH243189   6.391   4.833  14.482 -0.4091 -0.4971 -0.5119
 7233TIP3    H143190   6.409   4.824  14.389 -0.3294  1.2743 -0.6985
 7233TIP3    H243191   6.330   4.907  14.488 -0.4307 -0.5907  0.8342
 7234TIP3   OH243192   2.916   4.014   1.713 -0.1253  0.0212  0.4012
 7234TIP3    H143193   2.887   3.935   1.666 -1.4313 -0.1401  1.4327
 7234TIP3    H243194   2.895   3.996   1.804  2.6475  0.1873  1.1786
 7235TIP3   OH243195   3.441   5.829   4.446 -0.2538  0.1483  0.1033
 7235TIP3    H143196   3.441   5.756   4.508 -2.0462 -0.4980 -0.5849
 7235TIP3    H243197   3.440   5.907   4.502  2.9276 -0.2138  0.8702
 7236TIP3   OH243198   0.262   5.376   1.612 -1.1416  0.3992 -0.2641
 7236TIP3    H143199   0.289   5.314   1.544 -0.8175  0.6337 -0.3475
 7236TIP3    H243200   0.177   5.408   1.583 -0.6747  1.0567 -0.9358
 7237TIP3   OH243201   2.331   4.515   3.927 -0.1836  0.3438  0.5333
 7237TIP3    H143202   2.315   4.526   3.834 -1.3640 -0.0092  0.6740
 7237TIP3    H243203   2.400   4.579   3.948 -0.0333  0.5427 -0.5315
 7238TIP3   OH243204   1.307   4.625   6.212  0.0884 -0.2987 -0.1707
 7238TIP3    H143205   1.387   4.655   6.254 -0.7432  1.0530  0.5158
 7238TIP3    H243206   1.269   4.704   6.174 -1.4291 -0.7215  0.4028
 7239TIP3   OH243207   0.544   3.974   3.180  0.0658  0.6135  0.8909
 7239TIP3    H143208   0.615   3.963   3.244  1.3066  3.3049  0.1358
 7239TIP3    H243209   0.484   4.037   3.221  0.3561  1.5938 -0.1198
 7240TIP3   OH243210   0.124   3.824   3.294 -0.1369 -0.0032  0.4548
 7240TIP3    H143211   0.178   3.747   3.275  0.8720  0.5882  0.8635
 7240TIP3    H243212   0.121   3.872   3.211 -0.5314 -0.3354  0.2747
 7241TIP3   OH243213   0.641   4.479  12.724 -0.7335  0.1019 -0.2544
 7241TIP3    H143214   0.683   4.481  12.810 -1.4922 -1.2220  0.1706
 7241TIP3    H243215   0.709   4.450  12.664 -0.1631  1.1643 -0.1310
 7242TIP3   OH243216   3.072   3.274   1.860  1.0689  0.9155  0.2770
 7242TIP3    H143217   3.122   3.225   1.796 -0.8133 -0.5797 -0.1414
 7242TIP3    H243218   3.089   3.229   1.943 -2.4406 -2.2474 -0.4154
 7243TIP3   OH243219   1.701   1.052   5.637 -0.2801 -0.6449  0.0780
 7243TIP3    H143220   1.759   1.115   5.679  1.6876 -1.5797 -1.0862
 7243TIP3    H243221   1.645   1.105   5.580 -0.1574  0.2221  0.7433
 7244TIP3   OH243222   1.698   2.863  16.463  0.6199 -0.3334 -0.2193
 7244TIP3    H143223   1.685   2.908  16.380  1.8505  1.7007  0.6084
 7244TIP3    H243224   1.735   2.779  16.440 -0.7462 -0.5574 -1.7873
 7245TIP3   OH243225   5.608   1.176  15.466  0.2913 -0.1779  0.4304
 7245TIP3    H143226   5.642   1.143  15.383  1.1516  0.2077  0.6091
 7245TIP3    H243227   5.681   1.227  15.503 -0.1863 -0.0749  1.2650
 7246TIP3   OH243228   1.717   6.429   3.164 -0.2460 -0.3346  0.3471
 7246TIP3    H143229   1.726   6.492   3.092  1.5492 -1.8199 -0.8257
 7246TIP3    H243230   1.644   6.373   3.136  0.5040 -0.9624 -0.3986
 7247TIP3   OH243231   6.546   2.030  13.092  0.2995 -0.9382  0.2035
 7247TIP3    H143232   6.586   1.947  13.118  0.2222 -0.5325  1.6570
 7247TIP3    H243233   6.507   2.064  13.172 -1.9776 -0.7592 -0.9202
 7248TIP3   OH243234   4.648   3.427  11.847 -0.1037 -0.6765  0.2978
 7248TIP3    H143235   4.737   3.394  11.856  0.2476  0.1850  0.1429
 7248TIP3    H243236   4.644   3.457  11.756 -0.2602  0.0779  0.5442
 7249TIP3   OH243237   5.138   3.824  12.944  0.3231 -0.5791  0.2022
 7249TIP3    H143238   5.161   3.907  12.986  0.4663 -1.1885  1.3346
 7249TIP3    H243239   5.220   3.774  12.943  0.3697 -0.5081 -0.9761
 7250TIP3   OH243240   5.900   3.456  12.552 -0.5938 -0.1084 -0.4221
 7250TIP3    H143241   5.992   3.474  12.531 -0.6813 -0.1418 -0.8385
 7250TIP3    H243242   5.851   3.497  12.481 -0.8380 -1.2131 -0.9018
 7251TIP3   OH243243   5.071   4.202   1.625  0.5846  0.4159 -0.3296
 7251TIP3    H143244   5.164   4.224   1.639  1.5434 -3.0246 -0.3643
 7251TIP3    H243245   5.061   4.116   1.666 -2.1504 -0.1504 -1.9797
 7252TIP3   OH243246   0.282   4.814   2.532  0.1881  0.9417 -0.4803
 7252TIP3    H143247   0.351   4.779   2.589  2.1060  2.0174 -2.0378
 7252TIP3    H243248   0.248   4.890   2.579 -1.0680 -0.4515  0.9862
 7253TIP3   OH243249   2.887   3.030   5.198  0.1523  0.8652  0.2537
 7253TIP3    H143250   2.974   3.061   5.222  0.1654  0.7625  0.3395
 7253TIP3    H243251   2.850   2.997   5.280  0.9699 -1.4195 -0.2418
 7254TIP3   OH243252   4.848   6.529   3.769 -0.5273  0.0041 -0.3238
 7254TIP3    H143253   4.886   6.460   3.824 -0.4197  0.3609  0.0490
 7254TIP3    H243254   4.868   6.501   3.680  2.2140  1.0377 -0.1376
 7255TIP3   OH243255   3.353   1.831   2.151 -0.0278  0.0355  0.1091
 7255TIP3    H143256   3.392   1.912   2.116 -1.9983  0.3102 -1.6425
 7255TIP3    H243257   3.361   1.768   2.080  0.6945 -1.1149  1.1529
 7256TIP3   OH243258   0.787   0.327  11.110 -0.3542 -0.1941  0.5233
 7256TIP3    H143259   0.880   0.306  11.113 -0.9764 -3.4889  0.0492
 7256TIP3    H243260   0.764   0.320  11.018 -0.7734  2.6608  0.3056
 7257TIP3   OH243261   0.378   1.043   5.553 -0.7931 -0.3494 -0.5675
 7257TIP3    H143262   0.380   1.109   5.483 -2.0314  0.1389 -0.1555
 7257TIP3    H243263   0.334   1.087   5.626 -2.7524 -1.9944 -0.6809
 7258TIP3   OH243264   0.192   4.466   1.263 -0.4526 -0.2513  0.3161
 7258TIP3    H143265   0.283   4.495   1.264  0.2575 -2.1380 -1.4745
 7258TIP3    H243266   0.176   4.434   1.352  1.0177 -0.9246  0.3661
 7259TIP3   OH243267   4.310   2.032   3.407  0.2534  0.8024  0.2302
 7259TIP3    H143268   4.322   2.123   3.436  1.9151  0.7388 -0.1572
 7259TIP3    H243269   4.331   1.980   3.485 -0.7152  0.7324  0.4565
 7260TIP3   OH243270   2.859   2.281   1.062 -0.2503  0.3822  0.6353
 7260TIP3    H143271   2.821   2.368   1.061 -1.0871  0.0408  1.3168
 7260TIP3    H243272   2.841   2.247   1.149 -4.3207 -2.3150 -0.9304
 7261TIP3   OH243273   1.271   3.865  14.799 -0.3017  0.2195  0.0909
 7261TIP3    H143274   1.248   3.904  14.884 -2.8646  0.0420 -0.4516
 7261TIP3    H243275   1.301   3.777  14.821  0.7395  0.7619  0.9260
 7262TIP3   OH243276   4.052   1.167   4.050  0.1102 -0.4545 -0.4750
 7262TIP3    H143277   4.141   1.160   4.084 -0.1361 -0.2279  0.2387
 7262TIP3    H243278   3.996   1.145   4.125 -0.4510  0.2233 -0.6817
 7263TIP3   OH243279   5.983   3.470   2.190 -0.0015  0.3335  0.3339
 7263TIP3    H143280   5.996   3.415   2.112 -0.0693 -0.6971  1.0298
 7263TIP3    H243281   6.061   3.525   2.194 -0.2243  0.7582 -0.7337
 7264TIP3   OH243282   3.744   3.279   1.941 -0.2000 -0.4029  0.3644
 7264TIP3    H143283   3.792   3.294   2.022  0.5471  1.2546 -0.3547
 7264TIP3    H243284   3.742   3.364   1.898 -1.1849 -1.1053 -1.0434
 7265TIP3   OH243285   1.453   6.761   0.739 -0.4719 -1.1126 -0.7860
 7265TIP3    H143286   1.412   6.745   0.824 -0.4137  1.9391 -0.0723
 7265TIP3    H243287   1.391   6.817   0.692 -0.5810 -2.8617 -2.8880
 7266TIP3   OH243288   4.237   2.036   5.424  0.0231  0.4130 -0.0111
 7266TIP3    H143289   4.190   2.092   5.363 -1.0224  0.3270  0.7020
 7266TIP3    H243290   4.292   2.096   5.474  0.1370  0.5970 -0.3531
 7267TIP3   OH243291   4.823   1.814  14.372 -0.5831  0.5684  0.1732
 7267TIP3    H143292   4.753   1.870  14.406 -0.8076  0.8037 -0.6447
 7267TIP3    H243293   4.858   1.863  14.297  1.2626  1.0003  1.2734
 7268TIP3   OH243294   5.823   3.069  15.828 -0.4597  0.2777  0.1093
 7268TIP3    H143295   5.903   3.045  15.874 -1.4605  1.1170  2.4587
 7268TIP3    H243296   5.840   3.158  15.796 -0.8691  1.0280  1.8426
 7269TIP3   OH243297   3.156   0.559   1.296 -0.2487  0.6331 -0.4707
 7269TIP3    H143298   3.151   0.542   1.202 -0.2998 -0.1503 -0.3346
 7269TIP3    H243299   3.250   0.551   1.316 -0.5252 -2.8313  0.1448
 7270TIP3   OH243300   4.199   4.414   5.011  0.1016 -0.1036  0.1653
 7270TIP3    H143301   4.284   4.431   5.052 -0.3085  1.7811  0.3140
 7270TIP3    H243302   4.222   4.390   4.921  0.8575 -1.5150  0.6955
 7271TIP3   OH243303   1.587   6.569  14.683  0.2076 -0.3308 -0.3747
 7271TIP3    H143304   1.663   6.612  14.645 -0.5725 -0.0749 -1.7400
 7271TIP3    H243305   1.551   6.633  14.744  1.8836 -1.0139  1.4130
 7272TIP3   OH243306   6.658   2.373   0.529 -0.4769  0.7074  0.0344
 7272TIP3    H143307   6.733   2.401   0.477 -0.3327  1.5000  0.6501
 7272TIP3    H243308   6.634   2.451   0.580 -0.9823  0.1202  0.7050
 7273TIP3   OH243309   1.852   1.687   4.348 -0.4305 -0.1479 -0.6334
 7273TIP3    H143310   1.803   1.676   4.267  0.5483 -1.0118 -1.1380
 7273TIP3    H243311   1.939   1.651   4.329  0.2323  0.8299  0.4013
 7274TIP3   OH243312   0.293   6.824   5.580  0.2801 -0.0350 -0.1137
 7274TIP3    H143313   0.259   6.901   5.626 -0.7045 -0.1213 -0.6774
 7274TIP3    H243314   0.262   6.749   5.632  1.9395 -0.0712  0.9147
 7275TIP3   OH243315   3.868   3.453  16.429 -0.0943  0.5086 -0.2104
 7275TIP3    H143316   3.963   3.456  16.446 -0.0550  0.1534 -0.3559
 7275TIP3    H243317   3.849   3.360  16.419  0.2600  0.6874 -4.1329
 7276TIP3   OH243318   0.198   3.096  16.594 -0.0682  0.0404  0.2748
 7276TIP3    H143319   0.270   3.131  16.542 -0.4311 -2.0912 -1.8347
 7276TIP3    H243320   0.230   3.097  16.684  1.5201  1.6215 -0.2554
 7277TIP3   OH243321   5.060   1.199   4.547  0.2527 -0.0664  0.4023
 7277TIP3    H143322   5.114   1.219   4.471 -1.8741 -0.6063 -1.3435
 7277TIP3    H243323   4.970   1.213   4.517 -0.6980 -0.9556  2.6195
 7278TIP3   OH243324   1.292   3.641  14.055 -0.0722  0.1944 -0.5210
 7278TIP3    H143325   1.351   3.580  14.101 -1.2373  1.1350  2.4578
 7278TIP3    H243326   1.351   3.704  14.014  1.0735 -0.9445 -0.7030
 7279TIP3   OH243327   6.365   0.730  12.902  0.0471  0.2067 -0.4150
 7279TIP3    H143328   6.355   0.635  12.902 -1.4078  0.3400 -0.7300
 7279TIP3    H243329   6.376   0.753  12.810  0.5696  0.3454 -0.3246
 7280TIP3   OH243330   4.056   3.717  14.062 -0.0795 -0.5169 -0.3558
 7280TIP3    H143331   4.147   3.735  14.040 -0.3909 -1.4146 -2.7511
 7280TIP3    H243332   4.036   3.635  14.016 -2.1742 -0.1716 -0.1726
 7281TIP3   OH243333   5.943   0.458   5.267  0.4098  0.4573  0.2697
 7281TIP3    H143334   5.863   0.502   5.297  0.5055  0.5285  0.4205
 7281TIP3    H243335   5.980   0.419   5.346  1.1939  1.4837  0.4246
 7282TIP3   OH243336   1.369   5.406   3.590 -0.0114  0.0380  0.2144
 7282TIP3    H143337   1.425   5.466   3.640  0.3420 -2.4125  3.1043
 7282TIP3    H243338   1.290   5.397   3.643 -1.5809  0.5234 -1.9076
 7283TIP3   OH243339   3.577   6.125   2.028 -0.2283  0.2391  0.1055
 7283TIP3    H143340   3.570   6.131   2.123 -2.0662 -2.2020  0.2270
 7283TIP3    H243341   3.646   6.060   2.014  0.4155  0.9880 -0.2821
 7284TIP3   OH243342   2.399   1.382   1.494 -0.1267  0.8487  0.2774
 7284TIP3    H143343   2.350   1.376   1.576 -0.5630  0.0501 -0.0279
 7284TIP3    H243344   2.414   1.475   1.481 -1.4695  1.1062  0.4389
 7285TIP3   OH243345   5.633   1.395   0.099  0.0009  0.3461 -0.0211
 7285TIP3    H143346   5.583   1.473   0.078  0.4690  0.9489  1.0055
 7285TIP3    H243347   5.724   1.418   0.080 -0.0461 -0.6400 -1.5926
 7286TIP3   OH243348   0.664   0.565  11.021  0.0367 -0.0267  0.1279
 7286TIP3    H143349   0.704   0.564  10.934 -0.1319  1.0484  0.0239
 7286TIP3    H243350   0.702   0.489  11.065  2.0589  0.8009 -0.0390
 7287TIP3   OH243351   6.177   1.743   5.507 -0.1026 -0.4255 -0.4205
 7287TIP3    H143352   6.115   1.682   5.548  0.4822 -0.6297  0.1923
 7287TIP3    H243353   6.187   1.813   5.571 -0.0366 -0.1741 -0.7067
 7288TIP3   OH243354   3.715   3.279  14.131 -0.0578  0.0791  0.1273
 7288TIP3    H143355   3.646   3.220  14.163 -0.9197  1.1608  0.3282
 7288TIP3    H243356   3.792   3.255  14.182 -0.8917  0.4012  1.6000
 7289TIP3   OH243357   2.298   3.929  11.500  0.5290 -0.2445  0.4096
 7289TIP3    H143358   2.361   3.992  11.465  1.7977 -1.9181 -0.4669
 7289TIP3    H243359   2.324   3.915  11.590 -0.6766  1.5372  1.0925
 7290TIP3   OH243360   4.578   1.606   5.809 -0.6028  0.1595  0.0643
 7290TIP3    H143361   4.493   1.587   5.769 -1.0828 -2.6482  2.0593
 7290TIP3    H243362   4.556   1.630   5.899  0.6563 -2.7442  1.2691
 7291TIP3   OH243363   2.157   3.955   4.625 -0.1504  0.0544  0.3716
 7291TIP3    H143364   2.144   4.021   4.556 -1.9201  0.0390  0.6248
 7291TIP3    H243365   2.238   3.982   4.669  0.7640  0.3257 -1.3994
 7292TIP3   OH243366   3.320   2.065   1.584 -0.3258  0.0886 -0.1681
 7292TIP3    H143367   3.304   2.056   1.490 -0.1987  1.6073 -0.3578
 7292TIP3    H243368   3.356   2.153   1.594 -0.0572 -0.1556  1.2794
 7293TIP3   OH243369   5.485   2.524   5.162 -0.6071 -0.0896  0.4726
 7293TIP3    H143370   5.429   2.488   5.232 -1.1834  1.0897  0.6395
 7293TIP3    H243371   5.443   2.607   5.138  1.1620  0.9123  0.7100
 7294TIP3   OH243372   2.013   0.118  12.188  0.2032 -0.0696  0.0859
 7294TIP3    H143373   1.969   0.202  12.180  0.8660  0.1483 -1.5825
 7294TIP3    H243374   1.959   0.068  12.250 -2.3516  0.1971 -1.7929
 7295TIP3   OH243375   4.902   3.808  13.169 -0.1141  0.3547 -0.3067
 7295TIP3    H143376   4.825   3.848  13.208 -0.5422 -0.8715  0.1568
 7295TIP3    H243377   4.892   3.714  13.186  1.4856  0.1665 -0.2062
 7296TIP3   OH243378   0.307   6.692  15.794 -0.4222  0.2541 -0.5751
 7296TIP3    H143379   0.345   6.691  15.882 -1.8417 -1.3848  0.0959
 7296TIP3    H243380   0.229   6.748  15.802  0.1729  1.1843 -1.1561
 7297TIP3   OH243381   4.885   4.568  16.444 -0.4168  0.1933 -0.2226
 7297TIP3    H143382   4.886   4.554  16.539 -0.9085 -0.8483 -0.3585
 7297TIP3    H243383   4.819   4.507  16.412 -1.7098  1.9367 -1.0397
 7298TIP3   OH243384   5.674   1.525   0.485  0.4630  0.2875 -0.5637
 7298TIP3    H143385   5.728   1.597   0.451  0.6955 -0.7161 -2.5105
 7298TIP3    H243386   5.584   1.554   0.473  0.5411  1.1226  0.7365
 7299TIP3   OH243387   3.354   6.293   1.951  0.2014  0.3490  0.0707
 7299TIP3    H143388   3.343   6.280   1.857 -1.8466 -0.1795  0.3467
 7299TIP3    H243389   3.428   6.236   1.974 -0.5901 -1.1412 -0.8915
 7300TIP3   OH243390   0.849   4.760  15.284 -0.2106 -0.0245  0.2561
 7300TIP3    H143391   0.792   4.768  15.360 -1.1617 -1.7535 -0.2066
 7300TIP3    H243392   0.801   4.802  15.213 -0.4792 -0.6018  0.0865
 7301TIP3   OH243393   5.612   4.759  10.773  0.4373  0.4394  0.6980
 7301TIP3    H143394   5.588   4.723  10.687  0.2583  1.2501  0.3964
 7301TIP3    H243395   5.537   4.813  10.798  0.8506  0.9004  0.9590
 7302TIP3   OH243396   1.746   5.992  14.186 -0.4407 -0.1935  0.1667
 7302TIP3    H143397   1.787   5.915  14.223  0.8463 -0.1697 -1.1122
 7302TIP3    H243398   1.656   5.966  14.169  0.8482 -2.9142 -4.0129
 7303TIP3   OH243399   2.960   2.595   1.150  0.4389 -0.2082  0.6502
 7303TIP3    H143400   2.902   2.647   1.207 -1.0196 -1.3139  0.2330
 7303TIP3    H243401   2.976   2.515   1.200  1.3645 -0.0528  0.6157
 7304TIP3   OH243402   4.900   2.478   5.659  0.3264  0.4805  0.6250
 7304TIP3    H143403   4.927   2.484   5.567  1.0434 -0.2816  0.7837
 7304TIP3    H243404   4.885   2.385   5.674 -0.6184  0.6867  1.0627
 7305TIP3   OH243405   2.410   4.011  15.768 -0.4786 -0.5249  0.0153
 7305TIP3    H143406   2.494   3.973  15.742  0.0858  0.2816  0.5932
 7305TIP3    H243407   2.423   4.037  15.859 -1.4875 -0.7427  0.2319
 7306TIP3   OH243408   2.049   3.844  13.050 -0.3315 -0.2079 -0.0211
 7306TIP3    H143409   2.023   3.890  13.130 -0.2074  0.7387 -0.5147
 7306TIP3    H243410   2.144   3.857  13.046  0.5298 -4.2452  2.1616
 7307TIP3   OH243411   0.411   4.018  12.102 -0.3444  0.6908  0.2165
 7307TIP3    H143412   0.380   4.028  12.012 -1.6792 -2.9966  0.1254
 7307TIP3    H243413   0.506   4.004  12.093 -0.2388  1.6983 -0.4418
 7308TIP3   OH243414   5.474   0.702  12.587 -0.5085  0.2333 -0.2191
 7308TIP3    H143415   5.425   0.779  12.614 -0.7680 -0.3363  0.9825
 7308TIP3    H243416   5.415   0.656  12.526 -1.2200 -0.1067  0.7085
 7309TIP3   OH243417   4.144   0.668   5.779  0.3071 -0.1781 -0.0648
 7309TIP3    H143418   4.062   0.688   5.734 -1.3214 -1.2353  2.2694
 7309TIP3    H243419   4.143   0.573   5.789  1.2509 -0.0892  1.0369
 7310TIP3   OH243420   3.212   3.438  15.754  0.0260 -0.1247  0.5485
 7310TIP3    H143421   3.265   3.496  15.809 -1.1173  1.9750 -0.4380
 7310TIP3    H243422   3.261   3.431  15.673 -1.0325  1.6825 -0.3023
 7311TIP3   OH243423   4.400   2.836  14.853  0.2663 -0.1648  0.2330
 7311TIP3    H143424   4.490   2.808  14.870  0.0844 -1.0347 -0.1763
 7311TIP3    H243425   4.404   2.879  14.768  0.3088 -0.1636  0.2358
 7312TIP3   OH243426   3.984   0.820   5.094  0.4328 -0.0154  0.0434
 7312TIP3    H143427   4.030   0.741   5.121  0.7672 -0.9601 -2.9319
 7312TIP3    H243428   4.038   0.892   5.129  2.0629 -1.1135 -0.0858
 7313TIP3   OH243429   6.266   4.547   0.874  0.2808  0.6542 -0.4622
 7313TIP3    H143430   6.323   4.583   0.942  0.7473 -0.2030 -0.3876
 7313TIP3    H243431   6.203   4.616   0.857 -1.5011 -0.0179  2.7218
 7314TIP3   OH243432   2.282   2.418  15.018 -0.2752 -0.9159 -0.0783
 7314TIP3    H143433   2.363   2.393  14.974 -0.0755 -1.0356  0.3549
 7314TIP3    H243434   2.228   2.458  14.949  0.2867 -0.5247 -0.2977
 7315TIP3   OH243435   6.707   6.241   0.864  0.0217 -0.2777  0.0925
 7315TIP3    H143436   6.712   6.260   0.958  0.6736  0.4889 -0.0930
 7315TIP3    H243437   6.794   6.207   0.842 -0.5004 -1.6373  0.0028
 7316TIP3   OH243438   5.256   1.307  12.875 -0.1519 -0.2520 -0.1385
 7316TIP3    H143439   5.272   1.385  12.823 -0.7895 -0.8045 -1.1846
 7316TIP3    H243440   5.165   1.314  12.903  0.2927  0.2290  1.2522
 7317TIP3   OH243441   3.464   6.050   6.748  0.1027 -0.4037 -0.1499
 7317TIP3    H143442   3.375   6.083   6.760 -0.1027 -0.6127 -1.0306
 7317TIP3    H243443   3.471   5.978   6.811 -0.2828 -0.2531  0.0683
 7318TIP3   OH243444   4.162   6.618   0.605  0.5752  0.2187 -0.1021
 7318TIP3    H143445   4.143   6.673   0.681 -1.5866 -1.8828  1.0169
 7318TIP3    H243446   4.121   6.663   0.531 -2.9955 -0.6897  1.1330
 7319TIP3   OH243447   0.587   2.885   4.696  0.0955 -0.0440 -0.5892
 7319TIP3    H143448   0.656   2.893   4.762  0.2196  2.4513 -0.9040
 7319TIP3    H243449   0.560   2.975   4.680 -0.1474 -0.5614 -3.7095
 7320TIP3   OH243450   5.813   6.090  16.408  0.9955 -0.2786 -0.3576
 7320TIP3    H143451   5.898   6.127  16.386  0.9846  0.9757  1.4499
 7320TIP3    H243452   5.750   6.147  16.365  1.0332  0.8324  0.9677
 7321TIP3   OH243453   2.451   6.754   5.901  0.3222  1.6838 -0.0490
 7321TIP3    H143454   2.394   6.829   5.884 -0.8440  0.6943 -0.6628
 7321TIP3    H243455   2.436   6.734   5.994 -1.4417  0.5842 -0.5283
 7322TIP3   OH243456   6.698   1.354   1.477  0.2989  0.0897 -0.0782
 7322TIP3    H143457   6.660   1.366   1.564  2.2691 -0.4831  0.9247
 7322TIP3    H243458   6.742   1.269   1.481 -1.1471 -0.8363 -2.2844
 7323TIP3   OH243459   3.691   5.463   1.079 -0.7292 -0.2028  0.0875
 7323TIP3    H143460   3.684   5.552   1.045 -0.6530 -0.2756 -0.1213
 7323TIP3    H243461   3.602   5.441   1.107 -0.3447  0.7860  2.3259
 7324TIP3   OH243462   6.806   5.975  16.368  0.0865 -0.0671  0.0638
 7324TIP3    H143463   6.838   6.055  16.409 -1.6702  0.4147  0.5844
 7324TIP3    H243464   6.712   5.975  16.384  0.1439 -2.7421  0.9565
 7325TIP3   OH243465   1.826   6.700   1.142 -0.1098 -0.8335  1.0770
 7325TIP3    H143466   1.852   6.609   1.157 -1.5612 -1.3973  0.3737
 7325TIP3    H243467   1.787   6.728   1.224  1.7539 -0.2919  1.8233
 7326TIP3   OH243468   0.775   3.742  10.946 -0.7048  0.5325 -0.0500
 7326TIP3    H143469   0.856   3.712  10.987 -0.4594 -0.5101 -1.2503
 7326TIP3    H243470   0.804   3.798  10.874 -0.7835 -2.6327 -2.7892
 7327TIP3   OH243471   4.048   2.576  13.528 -0.3207 -0.0960  0.5216
 7327TIP3    H143472   4.026   2.487  13.556  0.8475 -0.7604 -0.5751
 7327TIP3    H243473   4.119   2.564  13.464 -1.3431  1.4792 -1.0080
 7328TIP3   OH243474   4.401   1.748   0.842 -0.3944  0.1378  0.5756
 7328TIP3    H143475   4.414   1.681   0.910  0.4449 -1.4193 -1.0450
 7328TIP3    H243476   4.393   1.830   0.891  2.0804 -0.6363  2.5209
 7329TIP3   OH243477   0.602   2.712   5.215  0.0374 -0.1819 -0.1784
 7329TIP3    H143478   0.684   2.662   5.212 -0.4298 -0.9054 -1.4916
 7329TIP3    H243479   0.587   2.740   5.125  0.5577  2.8818  0.5980
 7330TIP3   OH243480   6.413   6.610  12.744  0.4116  0.2718  0.5853
 7330TIP3    H143481   6.388   6.658  12.823 -0.1822 -0.7192  1.0169
 7330TIP3    H243482   6.507   6.628  12.734  0.1487  1.7222  0.5699
 7331TIP3   OH243483   3.955   4.498  11.433  0.0785  0.7446 -0.0656
 7331TIP3    H143484   3.971   4.418  11.381 -0.5093  1.0680 -0.7686
 7331TIP3    H243485   3.970   4.471  11.523  1.7484  0.3187 -0.4326
 7332TIP3   OH243486   3.178   1.723  12.065 -0.5767 -0.0285 -0.2055
 7332TIP3    H143487   3.126   1.803  12.076 -2.9108 -1.3677 -0.8303
 7332TIP3    H243488   3.184   1.686  12.152  0.8364  0.9622  0.1525
 7333TIP3   OH243489   1.838   0.152   1.829 -0.0063 -0.3457 -0.1352
 7333TIP3    H143490   1.836   0.059   1.852 -0.2186 -0.1438  0.6964
 7333TIP3    H243491   1.774   0.192   1.887 -0.6574  0.1798 -1.1780
 7334TIP3   OH243492   0.341   6.737   1.859 -0.1888 -0.0008  0.2298
 7334TIP3    H143493   0.417   6.697   1.902  0.4358  1.3940  0.4856
 7334TIP3    H243494   0.329   6.821   1.904 -1.2435  0.2624 -0.4971
 7335TIP3   OH243495   3.938   6.183  13.954 -0.0841 -0.9591  1.0479
 7335TIP3    H143496   3.860   6.152  13.907 -0.6724  1.5711  0.1881
 7335TIP3    H243497   3.903   6.238  14.025  0.7895  2.2672 -0.8229
 7336TIP3   OH243498   1.860   0.337   0.262  0.4266  0.0930 -0.3100
 7336TIP3    H143499   1.773   0.303   0.283 -0.7985  2.0927 -1.8119
 7336TIP3    H243500   1.919   0.289   0.320 -1.9104  0.4830  2.6423
 7337TIP3   OH243501   3.395   4.929  13.589  0.4342 -0.3054 -0.1968
 7337TIP3    H143502   3.318   4.970  13.549 -0.9399  0.6483  3.1016
 7337TIP3    H243503   3.359   4.873  13.658  2.6798  0.9966  2.1974
 7338TIP3   OH243504   6.333   0.872   6.313  0.0399  0.0297 -0.6356
 7338TIP3    H143505   6.310   0.779   6.309 -1.3287  0.2761  0.6390
 7338TIP3    H243506   6.411   0.875   6.369 -2.1099 -0.1056  2.6711
 7339TIP3   OH243507   1.348   4.723   2.884  0.2352 -0.4516  0.1125
 7339TIP3    H143508   1.330   4.639   2.925  1.0534 -1.0254 -0.6672
 7339TIP3    H243509   1.346   4.787   2.956 -0.7965 -1.0686  0.6434
 7340TIP3   OH243510   5.136   6.673  15.827 -0.2645 -0.3717  0.3096
 7340TIP3    H143511   5.142   6.689  15.921 -0.1107 -0.8058  0.3768
 7340TIP3    H243512   5.156   6.757  15.786 -0.9236 -0.0271  0.6768
 7341TIP3   OH243513   5.028   5.412   0.992  0.3973 -0.1147  0.0868
 7341TIP3    H143514   5.045   5.455   0.908 -3.0358 -1.1808 -1.3364
 7341TIP3    H243515   5.003   5.484   1.051  0.8651  0.4398 -0.3796
 7342TIP3   OH243516   4.609   5.457   5.528  0.5976 -1.0194 -0.6775
 7342TIP3    H143517   4.690   5.405   5.524  0.5261 -1.2032  0.0640
 7342TIP3    H243518   4.575   5.440   5.616 -0.7109 -1.6309 -1.2788
 7343TIP3   OH243519   2.254   0.510  13.518 -0.3188 -0.5409  0.3922
 7343TIP3    H143520   2.291   0.579  13.573  1.2072 -1.8925  1.1826
 7343TIP3    H243521   2.172   0.485  13.562 -1.3279  1.2930 -0.3737
 7344TIP3   OH243522   1.199   1.989  14.928 -0.1184 -0.4037  0.0505
 7344TIP3    H143523   1.208   1.907  14.977  0.9648  0.6887  1.7762
 7344TIP3    H243524   1.151   2.047  14.988  0.5455  0.7339 -0.4915
 7345TIP3   OH243525   4.287   3.103   2.822  0.1844  0.7163 -0.0135
 7345TIP3    H143526   4.283   3.125   2.729  0.8500 -0.8607 -0.4359
 7345TIP3    H243527   4.236   3.022   2.830  2.2303 -0.5866  0.5161
 7346TIP3   OH243528   4.291   3.258   1.112 -0.3860 -0.2497  0.1381
 7346TIP3    H143529   4.301   3.332   1.172  1.8915 -0.1859 -0.2393
 7346TIP3    H243530   4.377   3.217   1.111 -0.4337 -0.4374 -2.8434
 7347TIP3   OH243531   5.116   6.571   1.707  0.0207 -0.0931  0.1728
 7347TIP3    H143532   5.181   6.503   1.726  0.5138  0.3126 -0.0300
 7347TIP3    H243533   5.117   6.628   1.785  0.6915  0.5153 -0.2639
 7348TIP3   OH243534   4.356   2.251   5.501 -0.4996 -0.2163 -0.3373
 7348TIP3    H143535   4.398   2.265   5.586  1.6383  1.6049 -1.5885
 7348TIP3    H243536   4.428   2.244   5.439 -1.9902  0.5764 -2.2855
 7349TIP3   OH243537   5.468   3.814  12.261 -0.1200 -0.6056  0.0503
 7349TIP3    H143538   5.423   3.738  12.223 -1.4528 -0.5378  1.4058
 7349TIP3    H243539   5.500   3.784  12.345  1.1727 -0.2253 -0.2805
 7350TIP3   OH243540   5.957   6.711   5.665  0.6522  0.0825 -0.2425
 7350TIP3    H143541   5.949   6.778   5.733  0.4275  0.6297 -0.8003
 7350TIP3    H243542   5.872   6.668   5.663  0.1536  1.0670 -1.1937
 7351TIP3   OH243543   2.421   5.027  12.235  0.3043 -0.7804 -0.3357
 7351TIP3    H143544   2.329   5.053  12.246  0.7862  0.4909  0.9743
 7351TIP3    H243545   2.461   5.099  12.187  1.3438  0.3938  2.1118
 7352TIP3   OH243546   0.888   3.789  11.519 -0.2228 -0.0440  0.1190
 7352TIP3    H143547   0.836   3.828  11.448 -1.8480 -1.9974  0.1386
 7352TIP3    H243548   0.944   3.725  11.475 -1.0426 -1.0716  0.5276
 7353TIP3   OH243549   5.169   2.355   1.458  0.1720 -0.3389  0.2013
 7353TIP3    H143550   5.167   2.364   1.363  0.4989  0.1561  0.2375
 7353TIP3    H243551   5.094   2.408   1.488  0.5401  0.1532  0.2626
 7354TIP3   OH243552   3.424   2.788  11.607 -0.0389  0.3651 -0.5007
 7354TIP3    H143553   3.405   2.695  11.594 -1.5455  0.7581 -1.3208
 7354TIP3    H243554   3.352   2.820  11.661 -0.0737  1.2572 -1.0518
 7355TIP3   OH243555   2.485   3.919  13.840 -0.5834  0.3150  0.3367
 7355TIP3    H143556   2.501   3.859  13.767  0.7699  1.4188 -0.3438
 7355TIP3    H243557   2.571   3.929  13.881 -1.2547  0.0352  1.8354
 7356TIP3   OH243558   4.428   2.884   5.377  0.0048  0.1838 -0.3021
 7356TIP3    H143559   4.426   2.897   5.472 -3.9438 -0.3164 -0.1841
 7356TIP3    H243560   4.400   2.967   5.340 -1.2657 -0.4409 -0.8205
 7357TIP3   OH243561   4.258   0.603   1.370  0.0206  0.1207 -0.7965
 7357TIP3    H143562   4.321   0.565   1.309  1.5273  0.5036  0.4520
 7357TIP3    H243563   4.174   0.561   1.348  0.1512  1.2222 -3.9871
 7358TIP3   OH243564   5.838   6.382   2.053 -0.3410 -0.4228 -0.3174
 7358TIP3    H143565   5.790   6.304   2.079 -0.0624 -0.3202  0.5305
 7358TIP3    H243566   5.861   6.425   2.136 -1.3903  1.1010 -0.7781
 7359TIP3   OH243567   1.622   4.550  12.560 -0.2993  0.2452 -0.2380
 7359TIP3    H143568   1.686   4.548  12.631 -1.4932  1.5497  0.9267
 7359TIP3    H243569   1.551   4.604  12.593 -0.6064  1.4612 -2.6869
 7360TIP3   OH243570   2.487   6.620   2.368 -0.2162  0.4790  0.5416
 7360TIP3    H143571   2.577   6.628   2.338 -0.2376  0.8163  0.5621
 7360TIP3    H243572   2.434   6.651   2.295 -0.2587  1.5193  0.9957
 7361TIP3   OH243573   3.593   5.676  13.351  0.1491  0.1848  0.0006
 7361TIP3    H143574   3.538   5.698  13.276  2.2277  0.4601 -1.5401
 7361TIP3    H243575   3.651   5.752  13.362 -0.2022  0.2133  2.0147
 7362TIP3   OH243576   2.726   4.613  12.688 -0.4304 -0.1298 -0.3199
 7362TIP3    H143577   2.691   4.658  12.765 -1.5404  0.3272 -1.0658
 7362TIP3    H243578   2.670   4.642  12.616 -0.4332 -1.7869 -1.0241
 7363TIP3   OH243579   3.692   4.553   1.923 -0.1510  0.4777 -0.1700
 7363TIP3    H143580   3.665   4.558   1.832 -1.6118 -0.0830  0.2091
 7363TIP3    H243581   3.631   4.609   1.970  1.0450  1.3630  0.4079
 7364TIP3   OH243582   0.796   6.423  13.011 -0.4325  0.4664  0.1575
 7364TIP3    H143583   0.875   6.476  13.012 -0.5533  0.7554 -1.9604
 7364TIP3    H243584   0.825   6.337  13.043  0.8272  0.4963 -0.7946
 7365TIP3   OH243585   4.171   4.854   2.071 -0.0757  0.4985  0.3104
 7365TIP3    H143586   4.172   4.945   2.043  2.6724  0.4062 -0.1318
 7365TIP3    H243587   4.178   4.858   2.166  1.6340  0.7712  0.1898
 7366TIP3   OH243588   1.595   0.581   0.898 -0.2079  0.5597 -0.2452
 7366TIP3    H143589   1.662   0.568   0.831  0.0415 -1.7470  0.3536
 7366TIP3    H243590   1.513   0.554   0.857 -0.1954 -0.0007  0.0900
 7367TIP3   OH243591   4.407   5.436   0.993 -0.0531 -0.0866  0.1856
 7367TIP3    H143592   4.501   5.420   0.982 -0.0135 -0.3403  0.8657
 7367TIP3    H243593   4.366   5.384   0.924  0.0478 -3.5248  2.4637
 7368TIP3   OH243594   5.288   2.893  16.940 -0.3035  0.3550 -0.1297
 7368TIP3    H143595   5.334   2.917  16.860 -0.9725 -0.5281 -0.7986
 7368TIP3    H243596   5.262   2.801  16.926 -0.6628  0.2775  0.9804
 7369TIP3   OH243597   5.667   2.089  12.091  0.4673 -0.4014  0.3443
 7369TIP3    H143598   5.762   2.079  12.096  0.3579 -1.3964  0.4883
 7369TIP3    H243599   5.634   2.001  12.074 -0.3670  0.0940 -0.7003
 7370TIP3   OH243600   6.395   3.052  15.994 -0.7972  0.1840 -0.7152
 7370TIP3    H143601   6.427   3.046  15.905 -1.7018 -0.8824 -0.9939
 7370TIP3    H243602   6.343   2.973  16.007  0.4016 -0.3711  1.2056
 7371TIP3   OH243603   3.476   3.798  12.433  0.2197 -0.6286 -0.4016
 7371TIP3    H143604   3.432   3.815  12.516 -0.5796 -0.0305 -0.9343
 7371TIP3    H243605   3.498   3.885  12.399  0.6891 -0.8728 -0.7427
 7372TIP3   OH243606   1.675   2.191  13.582 -0.7706  0.2169 -0.4898
 7372TIP3    H143607   1.666   2.097  13.598 -1.0974 -0.1108 -2.3096
 7372TIP3    H243608   1.766   2.211  13.605 -0.9845 -0.3219  0.8647
 7373TIP3   OH243609   2.443   5.965   0.759  0.1897 -0.5064  0.3434
 7373TIP3    H143610   2.384   5.984   0.831 -1.0449 -2.8873  0.0540
 7373TIP3    H243611   2.472   5.875   0.774  0.9881 -0.5839 -1.3945
 7374TIP3   OH243612   1.637   5.631   1.296 -0.5693  0.0968 -0.1053
 7374TIP3    H143613   1.661   5.585   1.215 -0.2888 -2.2664  1.2140
 7374TIP3    H243614   1.607   5.561   1.355  0.0468  1.6078  2.1261
 7375TIP3   OH243615   2.169   5.825   1.905 -0.1212 -0.2792 -0.1369
 7375TIP3    H143616   2.221   5.891   1.951 -0.9675  1.7206 -1.8799
 7375TIP3    H243617   2.229   5.750   1.895  1.1425  0.5060  1.1991
 7376TIP3   OH243618   2.540   4.828   4.569  0.2648  0.0417  0.1551
 7376TIP3    H143619   2.630   4.823   4.603 -0.4542  0.0850  2.1617
 7376TIP3    H243620   2.506   4.910   4.603 -0.6721 -0.1660 -0.2670
 7377TIP3   OH243621   0.824   3.651   2.613 -0.1504  0.0210  0.1746
 7377TIP3    H143622   0.855   3.730   2.658 -2.9085  0.5696  1.3360
 7377TIP3    H243623   0.864   3.579   2.661  1.3056  0.6589 -0.0193
 7378TIP3   OH243624   2.448   5.125   1.173 -0.1764 -0.0845 -0.3646
 7378TIP3    H143625   2.414   5.120   1.084 -2.4064 -0.5988  0.4556
 7378TIP3    H243626   2.481   5.037   1.191 -2.0083 -0.7213  0.1125
 7379TIP3   OH243627   6.180   0.168  13.217  0.1008 -0.1093  0.1291
 7379TIP3    H143628   6.197   0.158  13.123  1.4211  1.8979  0.1014
 7379TIP3    H243629   6.089   0.199  13.221  0.4457  1.0930 -0.6179
 7380TIP3   OH243630   5.042   5.627   5.089 -0.3246  0.3290 -0.4903
 7380TIP3    H143631   5.127   5.609   5.130 -0.8449  0.8452  0.8790
 7380TIP3    H243632   5.064   5.670   5.006  0.7952 -2.2847 -1.6692
 7381TIP3   OH243633   5.099   1.088   2.695 -0.0816 -0.2305 -0.0409
 7381TIP3    H143634   5.188   1.118   2.677 -0.0927  2.1084  3.0723
 7381TIP3    H243635   5.110   1.013   2.753 -0.0939  0.8172  1.3505
 7382TIP3   OH243636   4.249   4.701  11.563  0.5460  0.2568 -0.1212
 7382TIP3    H143637   4.253   4.605  11.569  1.7070  0.2269 -1.0309
 7382TIP3    H243638   4.267   4.731  11.652 -0.6007 -0.3631  0.3470
 7383TIP3   OH243639   1.544   4.746  15.725 -0.4905  0.0767 -0.0812
 7383TIP3    H143640   1.592   4.813  15.676 -1.5156  2.1389  1.5648
 7383TIP3    H243641   1.452   4.768  15.711 -0.8364 -0.5819  1.0418
 7384TIP3   OH243642   2.570   3.387  16.691  0.1692  0.1830  0.3841
 7384TIP3    H143643   2.602   3.311  16.642 -0.4814  0.2415 -0.1444
 7384TIP3    H243644   2.486   3.409  16.650  1.1443  2.2943 -0.6479
 7385TIP3   OH243645   2.432   1.361  11.883  0.3012  0.1998  0.6588
 7385TIP3    H143646   2.515   1.314  11.882  0.9002  1.2117  1.0477
 7385TIP3    H243647   2.449   1.438  11.937 -0.2062  1.6591 -1.1512
 7386TIP3   OH243648   6.313   6.395  15.420 -1.2674 -0.4407  0.2006
 7386TIP3    H143649   6.273   6.444  15.492 -2.4878 -0.6887 -0.2881
 7386TIP3    H243650   6.249   6.329  15.397 -0.1367 -1.5158  0.0466
 7387TIP3   OH243651   4.579   3.204   1.725  0.1068  1.1612  0.0864
 7387TIP3    H143652   4.531   3.122   1.712 -0.9539  1.5545  1.2573
 7387TIP3    H243653   4.535   3.267   1.668 -0.0534  1.2516  0.3053
 7388TIP3   OH243654   5.281   4.512   2.310  0.6485 -0.0143 -0.2251
 7388TIP3    H143655   5.230   4.592   2.301  0.9746  0.2941  0.5410
 7388TIP3    H243656   5.353   4.522   2.247  0.6929  0.3055 -0.1270
 7389TIP3   OH243657   5.081   5.795   0.622  0.1810 -0.4409 -0.8558
 7389TIP3    H143658   5.073   5.824   0.713 -0.5067 -1.0210 -0.7304
 7389TIP3    H243659   5.078   5.876   0.571 -0.4065 -0.1881 -0.4273
 7390TIP3   OH243660   0.787   6.261   1.517  0.0591  0.5187  0.1703
 7390TIP3    H143661   0.736   6.279   1.438 -0.1067 -0.3746  0.0707
 7390TIP3    H243662   0.877   6.276   1.490  0.0048  0.2238 -0.1951
 7391TIP3   OH243663   6.613   0.085  12.713  0.1381  0.2456  0.3731
 7391TIP3    H143664   6.696   0.097  12.758 -0.5032  2.4363  1.0483
 7391TIP3    H243665   6.617   0.144  12.638 -0.7717  0.2758  0.3369
 7392TIP3   OH243666   5.930   0.400   0.280  1.1293 -0.0594  0.2207
 7392TIP3    H143667   5.932   0.431   0.371  2.6579  0.0844  0.1615
 7392TIP3    H243668   5.929   0.305   0.288  1.9897 -0.0671  0.4134
 7393TIP3   OH243669   5.678   2.500  12.148  0.1824  0.2771  0.3686
 7393TIP3    H143670   5.715   2.484  12.235 -0.2731  1.4805  0.8016
 7393TIP3    H243671   5.749   2.543  12.100  0.2615  0.0683  0.2932
 7394TIP3   OH243672   3.682   2.269   4.247  0.0949  0.1178 -0.1399
 7394TIP3    H143673   3.679   2.186   4.297 -0.1709  0.5943  0.6616
 7394TIP3    H243674   3.770   2.303   4.262  0.2558 -0.0850 -0.5962
 7395TIP3   OH243675   6.778   3.228  11.989  0.6130 -0.7615  0.0266
 7395TIP3    H143676   6.736   3.229  11.903 -0.2867  2.2314  0.3952
 7395TIP3    H243677   6.718   3.179  12.045 -2.4942  3.0641  0.4433
 7396TIP3   OH243678   3.493   6.739   4.257 -0.0142  0.2411  0.3862
 7396TIP3    H143679   3.409   6.743   4.302 -0.7458 -1.0617 -0.7856
 7396TIP3    H243680   3.509   6.646   4.244  0.5358  0.5264 -1.3073
 7397TIP3   OH243681   6.880   4.158  13.511  0.0666  0.5983 -0.2058
 7397TIP3    H143682   6.830   4.087  13.551 -2.2611  2.4078  0.2906
 7397TIP3    H243683   6.948   4.113  13.460 -1.5371 -1.9933 -0.2618
 7398TIP3   OH243684   5.519   1.092   1.174 -0.0928 -0.5829 -0.3809
 7398TIP3    H143685   5.523   1.059   1.085  0.6284 -2.0601  0.1623
 7398TIP3    H243686   5.528   1.014   1.229  1.5143  0.4785  0.9750
 7399TIP3   OH243687   2.424   1.888   0.683 -0.1184 -0.6973  0.0584
 7399TIP3    H143688   2.388   1.977   0.686 -1.2381 -1.0870 -0.9137
 7399TIP3    H243689   2.398   1.855   0.597 -0.4244 -2.2448  0.7107
 7400TIP3   OH243690   4.442   4.247   1.724  0.2358 -0.1404 -1.0427
 7400TIP3    H143691   4.485   4.170   1.761 -0.8854 -0.3014 -0.0468
 7400TIP3    H243692   4.435   4.309   1.797 -0.2931  0.2870 -1.4444
 7401TIP3   OH243693   0.375   0.082  13.188  0.2058  0.2843  0.3952
 7401TIP3    H143694   0.411   0.121  13.268 -1.2097 -0.4371  1.4175
 7401TIP3    H243695   0.400  -0.010  13.193  1.1451  0.4718 -0.6184
 7402TIP3   OH243696   5.904   5.985   1.760  0.1288 -0.7036 -0.4868
 7402TIP3    H143697   5.971   5.991   1.692 -0.0902  0.3215 -0.6239
 7402TIP3    H243698   5.823   6.009   1.716 -0.1137 -0.6373 -0.0076
 7403TIP3   OH243699   5.741   1.286   1.134  0.2723 -0.6625 -0.2412
 7403TIP3    H143700   5.679   1.320   1.069  0.0704 -0.7605 -0.0999
 7403TIP3    H243701   5.726   1.192   1.135  1.0773 -0.8048 -0.8864
 7404TIP3   OH243702   4.242   2.091   6.825 -0.3274 -0.2724  0.2289
 7404TIP3    H143703   4.295   2.018   6.856  1.1295  0.9177  0.6856
 7404TIP3    H243704   4.253   2.159   6.892 -1.7848  0.3241 -0.0900
 7405TIP3   OH243705   6.390   5.157   4.515  0.1075  0.6126 -0.1315
 7405TIP3    H143706   6.485   5.163   4.531  0.2157  2.5711 -1.2558
 7405TIP3    H243707   6.381   5.090   4.448  0.6128 -0.0785  0.4719
 7406TIP3   OH243708   4.511   5.353   4.812 -0.3312  0.1434 -0.4872
 7406TIP3    H143709   4.470   5.433   4.844 -0.3218  0.0808 -0.3203
 7406TIP3    H243710   4.593   5.382   4.772 -0.3560  0.2227 -0.4803
 7407TIP3   OH243711   5.214   2.581   0.822  0.5479 -0.2621  0.2008
 7407TIP3    H143712   5.134   2.550   0.779  1.6538  0.3995 -2.5219
 7407TIP3    H243713   5.191   2.667   0.856  0.4137  0.4992 -1.7201
 7408TIP3   OH243714   3.254   1.176   1.297 -0.0957  0.1418  0.5967
 7408TIP3    H143715   3.318   1.174   1.225 -1.3507  1.2017 -0.6091
 7408TIP3    H243716   3.267   1.093   1.343  0.3754 -0.8557 -1.2116
 7409TIP3   OH243717   4.034   5.704  15.428  0.3446 -0.9291  0.0411
 7409TIP3    H143718   4.041   5.650  15.506  0.0527 -0.0455  0.6987
 7409TIP3    H243719   4.094   5.777  15.444 -1.4228  0.4835  0.4948
 7410TIP3   OH243720   3.806   0.528  14.366  0.1559  0.0045  0.0336
 7410TIP3    H143721   3.788   0.514  14.273  2.2714  0.2294 -0.4453
 7410TIP3    H243722   3.900   0.514  14.375  0.5770  3.0006  1.5287
 7411TIP3   OH243723   2.882   6.398  14.805 -0.1488  0.1136  0.5230
 7411TIP3    H143724   2.914   6.316  14.843  2.7612  0.1745 -1.4529
 7411TIP3    H243725   2.852   6.375  14.718 -0.3068  0.9853  0.3312
 7412TIP3   OH243726   2.860   0.414   3.515  0.3469 -0.5596  0.4538
 7412TIP3    H143727   2.885   0.324   3.498 -1.2529 -0.6451 -1.7894
 7412TIP3    H243728   2.780   0.407   3.567  0.2656 -0.4174  0.3468
 7413TIP3   OH243729   4.860   2.410  14.904  0.6134  0.4551  0.2693
 7413TIP3    H143730   4.786   2.394  14.963  1.3593  1.1665  1.4318
 7413TIP3    H243731   4.925   2.345  14.929  1.3671  1.4610  1.0225
 7414TIP3   OH243732   2.079   6.110  12.528 -0.5102  0.0983 -0.3875
 7414TIP3    H143733   2.085   6.025  12.572 -0.1688  0.3771  0.1076
 7414TIP3    H243734   2.007   6.155  12.572 -1.0268 -0.1305 -0.9912
 7415TIP3   OH243735   0.694   2.968  11.063  0.0317 -0.0875 -0.2864
 7415TIP3    H143736   0.785   2.993  11.077  0.3512 -0.8139 -1.0177
 7415TIP3    H243737   0.657   3.041  11.012  0.5799 -0.4343 -1.1865
 7416TIP3   OH243738   5.731   6.259   0.261 -0.6263 -0.0713  0.2644
 7416TIP3    H143739   5.721   6.232   0.170 -0.9062 -0.0947  0.3006
 7416TIP3    H243740   5.643   6.249   0.299 -0.9765  1.8468  0.0179
 7417TIP3   OH243741   5.842   1.760  13.620  0.2778 -0.3401 -0.2313
 7417TIP3    H143742   5.921   1.727  13.578  0.6534 -0.3417  0.4663
 7417TIP3    H243743   5.785   1.684  13.628  1.0518 -0.7986  1.1735
 7418TIP3   OH243744   3.167   6.006  14.242  0.5835  0.3172  0.3825
 7418TIP3    H143745   3.195   5.990  14.152 -0.7850 -0.7613  0.1218
 7418TIP3    H243746   3.136   5.921  14.272 -1.0776  1.1529  1.1152
 7419TIP3   OH243747   3.199   5.115   0.521 -0.2326 -0.2288 -0.3500
 7419TIP3    H143748   3.137   5.129   0.450  0.0092 -1.9995 -0.9618
 7419TIP3    H243749   3.244   5.034   0.497  0.6337 -0.2529  1.2696
 7420TIP3   OH243750   1.627   5.228   3.375 -0.4456  0.0448  0.2205
 7420TIP3    H143751   1.668   5.147   3.345 -0.1149 -0.3233  1.6153
 7420TIP3    H243752   1.692   5.296   3.356 -0.6513 -0.0307 -0.7871
 7421TIP3   OH243753   4.510   0.991  11.873 -0.5548 -0.4786 -0.2072
 7421TIP3    H143754   4.464   1.075  11.884  1.1211  0.4705 -0.0337
 7421TIP3    H243755   4.583   1.012  11.815 -0.0911 -1.8242 -0.1342
 7422TIP3   OH243756   6.829   5.960  10.978  0.2414  0.4187  0.1465
 7422TIP3    H143757   6.912   5.962  11.025  0.3735  2.8337 -0.1076
 7422TIP3    H243758   6.844   5.897  10.906  1.5049  0.0854  0.6745
 7423TIP3   OH243759   5.073   2.708  16.080 -0.6134  0.5440  1.1528
 7423TIP3    H143760   5.089   2.638  16.142  1.3957 -1.8761 -1.7588
 7423TIP3    H243761   5.159   2.750  16.069  0.2190 -1.5768 -2.4516
 7424TIP3   OH243762   5.807   6.581  12.553 -0.6502 -0.5868 -0.4246
 7424TIP3    H143763   5.886   6.584  12.500 -1.2223  2.7918 -1.3286
 7424TIP3    H243764   5.824   6.642  12.625 -1.3518 -2.1260  1.1232
 7425TIP3   OH243765   4.660   3.143  12.280  0.7404  0.3466  0.3842
 7425TIP3    H143766   4.714   3.185  12.212  1.2886 -1.2275 -0.2077
 7425TIP3    H243767   4.600   3.086  12.231  0.6380 -0.2535  1.1865
 7426TIP3   OH243768   2.386   0.537  10.195 -0.8979 -0.3764 -0.4183
 7426TIP3    H143769   2.345   0.623  10.199  0.5649  0.3965 -1.2456
 7426TIP3    H243770   2.442   0.540  10.117  0.3846 -1.5115  0.3976
 7427TIP3   OH243771   5.058   3.259   5.209  0.2597  0.3818 -0.6506
 7427TIP3    H143772   4.986   3.322   5.199 -0.2630 -0.3389 -1.5791
 7427TIP3    H243773   5.021   3.188   5.261  1.3860  1.6227  2.0117
 7428TIP3   OH243774   5.599   0.582  12.138 -0.7856  0.1522  0.1911
 7428TIP3    H143775   5.686   0.589  12.178 -0.9945  0.6275  0.5694
 7428TIP3    H243776   5.590   0.663  12.086 -1.2352  0.3824  0.6219
 7429TIP3   OH243777   1.321   3.249  11.311  0.1948  0.1344 -0.0067
 7429TIP3    H143778   1.230   3.280  11.316  0.0725  0.1219 -1.7077
 7429TIP3    H243779   1.346   3.235  11.403 -1.5338  0.0825  0.4974
 7430TIP3   OH243780   2.847   1.694  14.883  0.2460 -0.3453 -0.7798
 7430TIP3    H143781   2.915   1.750  14.847 -0.8482  1.6605  0.1036
 7430TIP3    H243782   2.785   1.755  14.924 -1.1594 -2.1987 -0.0083
 7431TIP3   OH243783   3.315   3.045   2.652  0.1479 -0.1488  0.0270
 7431TIP3    H143784   3.301   2.952   2.667 -0.3507 -0.2822 -1.1587
 7431TIP3    H243785   3.239   3.088   2.693 -0.3637 -0.3828 -0.6535
 7432TIP3   OH243786   2.329   3.796  16.653 -0.6439 -0.0547 -0.7012
 7432TIP3    H143787   2.254   3.743  16.626  0.2079 -2.0160  0.5373
 7432TIP3    H243788   2.326   3.795  16.749  1.0326 -0.3563 -0.6138
 7433TIP3   OH243789   6.483   6.059   4.037  0.1432  0.4210 -0.3323
 7433TIP3    H143790   6.410   6.057   4.100 -1.0822  0.4102 -1.7121
 7433TIP3    H243791   6.466   5.986   3.978  0.0618  1.6999 -1.9715
 7434TIP3   OH243792   2.895   2.851  11.576 -0.3305 -0.1767 -0.3037
 7434TIP3    H143793   2.929   2.768  11.542  0.1564  0.0214 -0.3197
 7434TIP3    H243794   2.802   2.836  11.589 -0.0017 -1.2378  1.1615
 7435TIP3   OH243795   3.145   3.933   6.311 -0.1057 -0.3177 -0.3969
 7435TIP3    H143796   3.204   4.006   6.294 -0.9472  0.1094 -1.6155
 7435TIP3    H243797   3.176   3.863   6.253 -1.0645  0.0758 -1.4167
 7436TIP3   OH243798   5.071   3.013  13.521 -1.0726 -0.8036  0.0366
 7436TIP3    H143799   5.066   3.075  13.448 -0.3580 -0.7357  0.0384
 7436TIP3    H243800   5.020   3.054  13.591  0.8418  0.6860  0.6634
 7437TIP3   OH243801   3.320   0.788   3.452 -0.1867 -1.1993 -0.3357
 7437TIP3    H143802   3.235   0.799   3.408  0.0689  0.8266 -0.4095
 7437TIP3    H243803   3.384   0.816   3.386  0.5841 -2.9376 -0.3625
 7438TIP3   OH243804   1.956   5.741  13.617 -0.1486  1.0156  0.1309
 7438TIP3    H143805   2.038   5.716  13.659 -0.3138 -0.0096 -0.1366
 7438TIP3    H243806   1.919   5.809  13.674 -0.6568 -0.7447  2.0094
 7439TIP3   OH243807   2.192   3.339   2.638  0.3917  0.0978 -0.2019
 7439TIP3    H143808   2.106   3.300   2.656 -0.3619  1.0791 -1.4844
 7439TIP3    H243809   2.242   3.268   2.597 -0.1279 -0.2073 -0.3201
 7440TIP3   OH243810   2.752   3.597  16.752  0.0544 -0.1655 -0.5743
 7440TIP3    H143811   2.794   3.609  16.667  1.6323 -1.5788 -0.0412
 7440TIP3    H243812   2.675   3.542  16.733 -0.0224  0.1433 -1.1781
 7441TIP3   OH243813   4.750   0.342   3.498 -0.6014 -0.4395 -0.2737
 7441TIP3    H143814   4.689   0.280   3.457 -0.7195 -0.9080  0.5965
 7441TIP3    H243815   4.822   0.349   3.435  0.9784 -3.8961  0.9267
 7442TIP3   OH243816   1.278   1.392   6.340  0.7350 -0.0786  0.0609
 7442TIP3    H143817   1.337   1.430   6.275 -1.5862 -0.6574 -2.5813
 7442TIP3    H243818   1.311   1.303   6.352 -0.4871 -1.0453 -2.8217
 7443TIP3   OH243819   4.395   3.627   5.633 -0.2514  0.1308  0.0932
 7443TIP3    H143820   4.433   3.675   5.706 -1.8149  1.8794 -0.1693
 7443TIP3    H243821   4.441   3.543   5.633  1.0307  0.7684  1.9492
 7444TIP3   OH243822   0.805   4.547   1.845 -0.1078 -0.1269 -0.2299
 7444TIP3    H143823   0.821   4.457   1.817  1.1147 -0.1199  0.3631
 7444TIP3    H243824   0.883   4.595   1.818  0.0929  0.3516  1.0857
 7445TIP3   OH243825   6.141   4.944  14.503 -0.2761  0.1137  0.1566
 7445TIP3    H143826   6.158   4.901  14.587  0.8319  2.0555  0.9816
 7445TIP3    H243827   6.051   4.976  14.511 -1.3710 -2.4330 -0.7226
 7446TIP3   OH243828   5.445   6.738  16.533  0.0993  0.7337 -0.0696
 7446TIP3    H143829   5.466   6.646  16.551 -1.8555  0.1129 -0.7123
 7446TIP3    H243830   5.530   6.779  16.516  0.9898 -1.0195 -0.1280
 7447TIP3   OH243831   6.435   3.788  13.741 -0.6779 -0.0935 -0.0277
 7447TIP3    H143832   6.358   3.732  13.735 -0.5364 -0.2171 -0.7020
 7447TIP3    H243833   6.414   3.865  13.690 -0.7824  0.3805  0.7156
 7448TIP3   OH243834   3.169   2.190   0.996 -0.5438 -0.1207  0.3807
 7448TIP3    H143835   3.093   2.137   1.020 -1.5082  0.7600 -0.6312
 7448TIP3    H243836   3.177   2.180   0.901  0.1027  0.4545  0.3634
 7449TIP3   OH243837   5.344   4.199   5.396  0.4342  0.2335 -0.1580
 7449TIP3    H143838   5.355   4.198   5.491  0.5305 -2.1576 -0.1344
 7449TIP3    H243839   5.432   4.185   5.361  0.3167  0.5408 -0.5872
 7450TIP3   OH243840   4.301   3.633   2.499 -0.2698  0.1841  0.2396
 7450TIP3    H143841   4.281   3.693   2.570  2.6415  1.4016  0.1971
 7450TIP3    H243842   4.292   3.685   2.419 -0.8135 -0.3739 -0.0730
 7451TIP3   OH243843   1.055   1.252   0.259  0.1578  0.4507  0.5271
 7451TIP3    H143844   1.115   1.292   0.195 -0.3894  0.2691 -0.1175
 7451TIP3    H243845   1.031   1.325   0.317  0.0737  0.8008  0.0637
 7452TIP3   OH243846   4.023   0.864   1.291 -0.2050  0.5048  0.4717
 7452TIP3    H143847   4.032   0.779   1.334  1.5623  0.5098  0.2117
 7452TIP3    H243848   3.939   0.860   1.245  0.3395 -1.5344 -0.4421
 7453TIP3   OH243849   4.500   3.891   2.528  0.9573  0.0377  0.1492
 7453TIP3    H143850   4.549   3.901   2.447  0.4627 -1.7554 -0.4019
 7453TIP3    H243851   4.439   3.965   2.528  0.4318 -0.3504 -1.5111
 7454TIP3   OH243852   5.385   5.365   1.944 -0.1147  0.6964  0.0346
 7454TIP3    H143853   5.409   5.389   2.034 -1.0175 -1.9455  1.0771
 7454TIP3    H243854   5.466   5.379   1.894  1.3396 -0.4820  1.8684
 7455TIP3   OH243855   0.125   0.608   4.362 -0.1637  0.0306 -0.0976
 7455TIP3    H143856   0.051   0.555   4.391 -0.5479  0.8936  0.5127
 7455TIP3    H243857   0.116   0.691   4.409 -0.8734  1.5537 -2.6801
 7456TIP3   OH243858   4.648   1.196   3.342 -0.3815  0.4443  0.0598
 7456TIP3    H143859   4.591   1.269   3.366 -1.4914 -0.8002  1.3713
 7456TIP3    H243860   4.609   1.160   3.262 -1.4725 -0.3922  0.9453
 7457TIP3   OH243861   4.689   3.771  10.884 -0.1182 -0.1224  0.7444
 7457TIP3    H143862   4.604   3.810  10.905  0.3943  0.1101  2.5717
 7457TIP3    H243863   4.668   3.694  10.831 -1.3916  0.4562  0.3722
 7458TIP3   OH243864   5.055   1.872  15.155  0.2982  0.6597  0.5620
 7458TIP3    H143865   4.985   1.928  15.121 -1.2257 -1.0054  0.8527
 7458TIP3    H243866   5.133   1.900  15.107 -0.6959  2.0492 -0.3250
 7459TIP3   OH243867   1.652   6.417  15.318  0.3332  0.6240  0.4793
 7459TIP3    H143868   1.715   6.381  15.256  0.8028  0.2115  1.1845
 7459TIP3    H243869   1.569   6.419  15.270  0.7743  0.7223 -0.2959
 7460TIP3   OH243870   6.825   2.622  15.236 -0.4773 -0.7569 -0.1027
 7460TIP3    H143871   6.860   2.706  15.263 -0.8242 -0.9107  0.8481
 7460TIP3    H243872   6.758   2.644  15.171  1.6139 -0.4867 -2.2936
 7461TIP3   OH243873   1.666   3.768   6.595 -0.2569 -0.4741  0.2391
 7461TIP3    H143874   1.689   3.768   6.502 -0.8361 -1.0141  0.0920
 7461TIP3    H243875   1.748   3.790   6.639  0.4928 -2.0647 -0.2984
 7462TIP3   OH243876   1.837   5.978   2.334  0.1897  0.3310 -0.8256
 7462TIP3    H143877   1.781   6.048   2.368 -2.6630 -1.4611 -1.5425
 7462TIP3    H243878   1.819   5.903   2.391  2.7552 -0.0934 -0.4224
 7463TIP3   OH243879   1.600   5.858   2.833  0.0518 -0.6002  0.8130
 7463TIP3    H143880   1.595   5.920   2.906  2.7964  3.4218 -1.9634
 7463TIP3    H243881   1.516   5.868   2.787  0.2173  0.6788  0.7551
 7464TIP3   OH243882   6.068   6.327  16.676  0.1446  0.2859 -0.8478
 7464TIP3    H143883   6.116   6.299  16.598 -1.2080  1.0692 -2.0017
 7464TIP3    H243884   5.979   6.342  16.645 -1.2126 -2.2076  1.4270
 7465TIP3   OH243885   1.550   1.131  12.204 -0.8447 -0.2421  0.2389
 7465TIP3    H143886   1.599   1.050  12.214  0.5154  0.1832 -2.2661
 7465TIP3    H243887   1.614   1.194  12.170 -2.1456  1.5812  0.9753
 7466TIP3   OH243888   2.201   5.800  16.530 -0.6393 -0.8606 -0.4472
 7466TIP3    H143889   2.145   5.825  16.604  0.6046  0.7821  0.0131
 7466TIP3    H243890   2.142   5.794  16.456 -1.3356  2.3645 -0.3062
 7467TIP3   OH243891   5.559   6.287   2.551 -0.5384  0.5632  0.4566
 7467TIP3    H143892   5.570   6.354   2.618 -1.1079 -0.4796  1.6470
 7467TIP3    H243893   5.539   6.207   2.600  1.6152 -0.8572 -0.7860
 7468TIP3   OH243894   1.372   0.943  15.242  0.0437 -0.0479  0.4678
 7468TIP3    H143895   1.291   0.893  15.229  1.1664 -2.1058  1.0727
 7468TIP3    H243896   1.422   0.893  15.306  2.2033  0.6856 -0.5469
 7469TIP3   OH243897   1.665   4.380  16.023  0.0580 -0.1379  0.0010
 7469TIP3    H143898   1.571   4.393  16.031  0.3170  3.7073 -1.0200
 7469TIP3    H243899   1.676   4.329  15.943 -1.1162 -1.9825  0.9447
 7470TIP3   OH243900   2.727   5.331   0.333 -0.1458  0.0247  0.0648
 7470TIP3    H143901   2.810   5.285   0.321 -0.3692 -0.5929  0.7830
 7470TIP3    H243902   2.710   5.324   0.427 -1.1158 -0.0444 -0.1113
 7471TIP3   OH243903   5.134   6.415  16.803 -0.2770 -0.1598 -0.0239
 7471TIP3    H143904   5.153   6.438  16.712 -0.2192  3.2811  0.7003
 7471TIP3    H243905   5.043   6.386  16.803 -1.1444  2.3402 -0.9179
 7472TIP3   OH243906   3.577   5.455   5.683  0.0678 -0.3611 -0.1162
 7472TIP3    H143907   3.507   5.503   5.728 -0.5574 -0.3916 -1.0158
 7472TIP3    H243908   3.587   5.374   5.733  1.7115  0.9970  1.9257
 7473TIP3   OH243909   4.102   5.538   2.509  0.2515  0.0339  0.2280
 7473TIP3    H143910   4.031   5.588   2.470 -1.4685 -2.6382 -0.3710
 7473TIP3    H243911   4.122   5.583   2.591 -0.2812  2.3264 -0.8190
 7474TIP3   OH243912   5.054   4.826  11.515  0.1862 -0.3355  0.3996
 7474TIP3    H143913   4.988   4.840  11.447  0.7553  0.4372 -0.0163
 7474TIP3    H243914   5.091   4.913  11.530  0.8272 -0.6927  0.9085
 7475TIP3   OH243915   1.005   4.586   3.894 -0.1020 -0.3185 -0.5067
 7475TIP3    H143916   1.051   4.592   3.810 -0.4519 -1.5507 -0.7981
 7475TIP3    H243917   1.026   4.499   3.927 -1.7234 -0.6764 -0.3511
 7476TIP3   OH243918   1.374   5.204   3.435 -0.1655  0.1424  0.2492
 7476TIP3    H143919   1.352   5.269   3.501  1.0113  0.0793  0.7304
 7476TIP3    H243920   1.468   5.217   3.419 -0.5343  0.6277 -1.9154
 7477TIP3   OH243921   6.250   5.519  11.562  0.2959  0.2686  0.5262
 7477TIP3    H143922   6.261   5.458  11.489  0.4664  1.0755 -0.1398
 7477TIP3    H243923   6.171   5.490  11.606 -0.8384  0.8332 -1.0554
 7478TIP3   OH243924   4.611   6.021   2.611  0.2519  0.1347  0.5583
 7478TIP3    H143925   4.548   5.983   2.550  1.3744 -0.2503 -0.3952
 7478TIP3    H243926   4.590   6.114   2.611  0.3673  0.1820 -0.6139
 7479TIP3   OH243927   5.459   6.575  15.058  0.2489 -0.5133  0.3863
 7479TIP3    H143928   5.473   6.536  14.972  1.2860  2.2277 -0.8176
 7479TIP3    H243929   5.366   6.561  15.076  0.3246 -2.3778 -0.4910
 7480TIP3   OH243930   3.851   1.571  10.282 -0.0133  0.0140  0.0604
 7480TIP3    H143931   3.773   1.528  10.316 -0.9579  0.8721 -0.9259
 7480TIP3    H243932   3.880   1.628  10.354 -1.8406  1.6339 -0.4030
 7481TIP3   OH243933   6.623   2.878  11.971 -0.0071 -0.4189 -0.3300
 7481TIP3    H143934   6.571   2.937  12.027 -0.3609 -0.4963 -0.5740
 7481TIP3    H243935   6.687   2.839  12.031 -0.3304 -0.4392  0.0092
 7482TIP3   OH243936   3.990   4.876   4.196  0.1826 -0.2353 -0.3609
 7482TIP3    H143937   4.057   4.895   4.129  2.1714 -0.0719  1.5653
 7482TIP3    H243938   3.973   4.960   4.237 -0.1076 -0.5341  0.1368
 7483TIP3   OH243939   0.399   5.681   1.525 -0.7164  0.3940 -0.7239
 7483TIP3    H143940   0.425   5.756   1.577 -1.4233 -0.8282  1.5229
 7483TIP3    H243941   0.341   5.717   1.457  0.1485  2.0230 -0.6374
 7484TIP3   OH243942   2.931   5.085  14.597  0.0782  0.2644  0.2056
 7484TIP3    H143943   2.898   5.060  14.511  0.3758  2.5959 -0.6704
 7484TIP3    H243944   2.896   5.173  14.612  1.8565  0.8402  1.4222
 7485TIP3   OH243945   3.262   2.199   3.112  0.7395 -0.2300  0.3377
 7485TIP3    H143946   3.193   2.134   3.127  0.4287  0.3185  1.4218
 7485TIP3    H243947   3.344   2.149   3.119  0.4720 -0.9405 -1.2538
 7486TIP3   OH243948   1.072   5.353  13.524 -0.0983 -0.3283  0.0696
 7486TIP3    H143949   1.005   5.350  13.592  1.3238 -0.9533  1.5166
 7486TIP3    H243950   1.141   5.408  13.560 -0.0828  0.8947 -1.6789
 7487TIP3   OH243951   1.467   0.935  11.322 -0.1007 -0.3543  0.9390
 7487TIP3    H143952   1.424   1.012  11.285 -0.8039  0.0148  2.4515
 7487TIP3    H243953   1.558   0.961  11.332 -0.3465  0.3255  1.5029
 7488TIP3   OH243954   1.808   0.736  10.903 -0.2207  0.1028  0.0868
 7488TIP3    H143955   1.776   0.826  10.911 -1.2199 -0.2649  0.4444
 7488TIP3    H243956   1.856   0.734  10.821  0.0880  1.0427  0.2340
 7489TIP3   OH243957   2.245   4.355   1.556 -0.0661  0.1944 -0.2197
 7489TIP3    H143958   2.213   4.278   1.602 -2.7957  0.3150 -1.7304
 7489TIP3    H243959   2.341   4.346   1.558 -0.2251 -1.7287  2.0421
 7490TIP3   OH243960   2.973   5.406  14.793  0.0704  0.0904 -0.0399
 7490TIP3    H143961   2.954   5.360  14.875  0.3806 -1.7812 -0.9844
 7490TIP3    H243962   2.907   5.476  14.790 -0.9119 -0.7402  1.0716
 7491TIP3   OH243963   3.646   5.720   1.601  0.2504  0.4462  0.1965
 7491TIP3    H143964   3.632   5.707   1.694 -0.2889  0.9272  0.1854
 7491TIP3    H243965   3.589   5.793   1.577  2.0486  1.8241 -0.0576
 7492TIP3   OH243966   6.526   4.510   3.192 -0.3734 -0.1788 -0.1008
 7492TIP3    H143967   6.499   4.455   3.265  0.8072  0.5198  0.9117
 7492TIP3    H243968   6.469   4.484   3.119  1.3359 -4.1495 -0.3150
 7493TIP3   OH243969   1.158   6.408   0.394 -0.0152 -0.0170 -0.4755
 7493TIP3    H143970   1.231   6.458   0.432 -0.5186  0.8939 -0.6805
 7493TIP3    H243971   1.165   6.422   0.300  0.4946 -1.2628 -0.6428
 7494TIP3   OH243972   5.054   4.469   1.478  0.0223 -0.8112 -0.5901
 7494TIP3    H143973   4.975   4.521   1.487  1.0957  0.8084 -0.0369
 7494TIP3    H243974   5.027   4.380   1.503 -1.1092  0.1521  1.9751
 7495TIP3   OH243975   4.157   1.630   2.503 -0.3570 -0.7055  0.4084
 7495TIP3    H143976   4.242   1.591   2.483 -0.1302 -0.1736  0.3337
 7495TIP3    H243977   4.167   1.664   2.592  0.2563  1.3634 -0.3934
 7496TIP3   OH243978   1.100   4.166  10.744  0.1349 -0.1811 -0.0936
 7496TIP3    H143979   1.037   4.232  10.774 -2.9780 -2.8001 -0.2853
 7496TIP3    H243980   1.130   4.124  10.824  0.0364 -0.2654 -0.1003
 7497TIP3   OH243981   2.668   0.857   1.431  0.0358 -0.5049  0.1223
 7497TIP3    H143982   2.688   0.764   1.418 -3.0403 -1.2767  0.1127
 7497TIP3    H243983   2.603   0.877   1.363  2.4344  2.4589 -1.6093
 7498TIP3   OH243984   3.235   6.365  16.158  0.3301  0.2808 -0.0231
 7498TIP3    H143985   3.171   6.435  16.150 -0.8064 -0.5105  1.5102
 7498TIP3    H243986   3.319   6.406  16.137 -0.2875  2.1091  0.8431
 7499TIP3   OH243987   6.072   1.778   0.076  0.0006 -0.6020 -0.1961
 7499TIP3    H143988   6.115   1.708   0.026  2.2898  0.7315 -0.2248
 7499TIP3    H243989   6.133   1.797   0.148 -0.7683  1.0748  0.0603
 7500TIP3   OH243990   2.265   2.719   4.948 -0.6506  0.6389  0.1245
 7500TIP3    H143991   2.266   2.715   5.044 -1.1766  1.8679  0.1976
 7500TIP3    H243992   2.191   2.776   4.927 -0.2550  0.7695 -0.9934
 7501TIP3   OH243993   2.880   1.784  14.444 -0.1118  0.0372 -0.7184
 7501TIP3    H143994   2.968   1.777  14.407  0.4895  1.0177  0.4270
 7501TIP3    H243995   2.891   1.755  14.535 -1.0491 -0.1539 -0.6634
 7502TIP3   OH243996   3.090   1.731   1.678  0.3502  0.0635  0.2739
 7502TIP3    H143997   3.111   1.658   1.736  0.4631 -0.9338 -0.9761
 7502TIP3    H243998   3.100   1.809   1.733 -1.3700 -0.9077  2.0895
 7503TIP3   OH243999   1.047   0.046   3.579 -0.9218 -0.0333  1.5701
 7503TIP3    H144000   0.986   0.070   3.649 -0.3129 -0.5098  2.2820
 7503TIP3    H244001   1.123   0.102   3.594 -0.3640 -0.8846  1.9369
 7504TIP3   OH244002   3.235   6.667  12.529 -0.2298  0.2328  0.1003
 7504TIP3    H144003   3.257   6.682  12.621  1.4813 -0.8847 -0.0880
 7504TIP3    H244004   3.248   6.573  12.515  2.2027  0.7530 -1.8929
 7505TIP3   OH244005   3.889   1.931   1.719  0.0752  0.5853  0.4299
 7505TIP3    H144006   3.906   1.838   1.734 -1.9278  0.1680  0.3331
 7505TIP3    H244007   3.968   1.963   1.676  0.9963 -0.9518  0.8979
 7506TIP3   OH244008   4.758   4.222   0.647 -0.7678  0.0527 -0.2592
 7506TIP3    H144009   4.781   4.134   0.676 -1.4868 -0.9602 -2.5323
 7506TIP3    H244010   4.693   4.252   0.711 -0.3342 -0.9265  0.6839
 7507TIP3   OH244011   0.364   4.705   1.536 -0.3065  0.0545 -0.5469
 7507TIP3    H144012   0.409   4.620   1.538 -0.6940 -0.1459  0.6870
 7507TIP3    H244013   0.272   4.682   1.524 -0.3214  0.3500 -0.9978
 7508TIP3   OH244014   6.070   0.579  12.629  0.5852 -0.0301  0.5819
 7508TIP3    H144015   6.025   0.659  12.602 -0.4692 -1.2461 -1.5347
 7508TIP3    H244016   6.015   0.543  12.698  0.3648  0.4115  0.6421
 7509TIP3   OH244017   3.330   0.573  11.381 -0.2479  0.1988  0.5289
 7509TIP3    H144018   3.351   0.533  11.297 -1.8397  2.6383 -1.1436
 7509TIP3    H244019   3.278   0.506  11.427  0.6575 -1.1744 -0.3510
 7510TIP3   OH244020   0.911   2.020  12.442 -0.0554  0.3279 -0.4997
 7510TIP3    H144021   0.970   2.015  12.518  0.0966  1.7897 -0.4835
 7510TIP3    H244022   0.935   1.945  12.388 -0.2415 -0.8050  0.9425
 7511TIP3   OH244023   2.062   5.239   6.506 -0.4514  0.1927  0.5724
 7511TIP3    H144024   2.033   5.309   6.564 -0.1208  1.1368 -0.3558
 7511TIP3    H244025   2.146   5.270   6.471  0.7873 -1.6328  1.7752
 7512TIP3   OH244026   3.499   1.594   4.109  0.6278  1.0234 -0.1509
 7512TIP3    H144027   3.432   1.541   4.067 -0.1749  1.1248  0.9550
 7512TIP3    H244028   3.580   1.543   4.098  0.1967  0.4403 -0.6640
 7513TIP3   OH244029   1.944   2.222  15.368  0.4300  0.0352 -0.2137
 7513TIP3    H144030   1.999   2.266  15.303 -1.1344  0.8647 -1.0285
 7513TIP3    H244031   1.903   2.150  15.321 -1.2146  1.0254 -0.3764
 7514TIP3   OH244032   0.924   5.693   0.190  0.2478 -0.7557  0.2024
 7514TIP3    H144033   0.983   5.738   0.129 -0.0181 -0.0262  0.4724
 7514TIP3    H244034   0.963   5.606   0.202  1.4933 -0.1553  0.6902
 7515TIP3   OH244035   3.410   0.546   4.584  0.0972 -0.7473  0.1742
 7515TIP3    H144036   3.459   0.615   4.630 -0.6716  0.2724 -0.4879
 7515TIP3    H244037   3.476   0.501   4.531  0.2598  0.9891 -1.1627
 7516TIP3   OH244038   3.966   1.578   3.387 -0.2164  0.6149 -0.1228
 7516TIP3    H144039   3.979   1.664   3.347 -1.3975  1.5012  1.3248
 7516TIP3    H244040   3.872   1.572   3.401 -0.0628 -0.5784  0.5456
 7517TIP3   OH244041   4.681   0.817   1.765 -0.3809 -0.0707 -0.4719
 7517TIP3    H144042   4.654   0.781   1.680 -2.8040 -2.4119  1.1295
 7517TIP3    H244043   4.738   0.750   1.803 -0.5915  0.2223  0.3921
 7518TIP3   OH244044   3.362   0.536  15.522 -0.5583 -0.1176 -0.4183
 7518TIP3    H144045   3.303   0.461  15.535 -0.2222 -0.1668  0.9575
 7518TIP3    H244046   3.346   0.593  15.597  0.0822  0.5956 -0.8049
 7519TIP3   OH244047   0.410   2.296  10.629 -0.2697  0.1199  0.1363
 7519TIP3    H144048   0.439   2.384  10.652 -0.3124  0.3785 -0.7335
 7519TIP3    H244049   0.348   2.310  10.557  0.7427 -0.7006 -0.9250
 7520TIP3   OH244050   1.687   1.853   3.505  0.0832 -0.8272 -0.0721
 7520TIP3    H144051   1.654   1.884   3.590  0.9531 -1.3098  0.4499
 7520TIP3    H244052   1.774   1.892   3.497 -0.9279  1.2647 -1.9094
 7521TIP3   OH244053   3.082   0.043   1.244  0.0340  0.1026 -0.1125
 7521TIP3    H144054   3.056  -0.049   1.241 -2.2411  0.6453  0.9189
 7521TIP3    H244055   3.072   0.068   1.335  3.1904  0.7577  0.1413
 7522TIP3   OH244056   2.295   5.284   3.327  0.5653  0.1261 -0.2876
 7522TIP3    H144057   2.389   5.281   3.315  0.3728 -0.6532 -1.8321
 7522TIP3    H244058   2.260   5.306   3.241 -0.7478 -1.3136 -0.1742
 7523TIP3   OH244059   2.293   5.919  15.326 -0.2556  0.4736  0.2423
 7523TIP3    H144060   2.211   5.957  15.358 -0.1663  0.2795  0.6974
 7523TIP3    H244061   2.342   5.896  15.404 -0.2527 -0.4698 -0.0121
 7524TIP3   OH244062   1.338   1.665   3.635 -0.3753 -0.1186  0.4372
 7524TIP3    H144063   1.256   1.714   3.641 -0.8343 -0.6084 -1.1701
 7524TIP3    H244064   1.371   1.662   3.724 -1.4219  1.2500  0.9059
 7525TIP3   OH244065   6.132   6.556  15.659 -0.2992  0.0474  0.1793
 7525TIP3    H144066   6.214   6.582  15.701  0.0389 -0.3350 -0.2415
 7525TIP3    H244067   6.064   6.588  15.719  0.1139  1.3347  0.0091
 7526TIP3   OH244068   2.890   6.335   4.773 -0.0456 -0.3153 -0.0025
 7526TIP3    H144069   2.899   6.257   4.828 -1.9634 -0.4820  0.1330
 7526TIP3    H244070   2.807   6.374   4.801 -0.4513  0.2767 -1.9423
 7527TIP3   OH244071   4.366   1.339   4.449 -0.3667  0.4833 -0.1282
 7527TIP3    H144072   4.281   1.383   4.440  0.1622  1.3916 -0.7895
 7527TIP3    H244073   4.385   1.343   4.542 -1.2459 -0.1129  0.0922
 7528TIP3   OH244074   0.101   0.611  11.447 -0.4854 -0.4188 -0.2027
 7528TIP3    H144075   0.058   0.577  11.369 -0.9411  0.7910 -0.4974
 7528TIP3    H244076   0.036   0.603  11.516  0.3457 -2.7009  0.4075
 7529TIP3   OH244077   2.967   5.697   4.607  0.3170  0.2478  0.4663
 7529TIP3    H144078   3.061   5.716   4.604 -0.2386  3.7472 -1.5817
 7529TIP3    H244079   2.932   5.761   4.669 -0.6782 -1.6454  1.9373
 7530TIP3   OH244080   2.240   4.903   0.865 -0.2516 -0.1393  0.0266
 7530TIP3    H144081   2.208   4.814   0.849  1.2712 -0.4503 -1.7016
 7530TIP3    H244082   2.283   4.898   0.950 -0.9380 -0.8265  0.3465
 7531TIP3   OH244083   2.025   4.563   3.404  0.2521  0.7288  0.3021
 7531TIP3    H144084   1.965   4.498   3.442 -0.9028  1.8716  0.4915
 7531TIP3    H244085   2.092   4.510   3.361 -1.3677 -0.6227 -0.7092
 7532TIP3   OH244086   6.304   6.120  16.827  0.1463 -0.2892  0.6042
 7532TIP3    H144087   6.350   6.203  16.821 -0.2436 -0.0751  0.5059
 7532TIP3    H244088   6.213   6.142  16.807  0.2964 -0.9973 -1.0030
 7533TIP3   OH244089   1.765   5.678   2.934  0.7562 -0.0189 -0.6167
 7533TIP3    H144090   1.715   5.600   2.958  0.4845  0.9286  2.1836
 7533TIP3    H244091   1.703   5.734   2.889  0.3245 -0.4185 -0.5242
 7534TIP3   OH244092   0.441   0.679   4.969 -0.4852  0.4156 -0.3538
 7534TIP3    H144093   0.407   0.697   4.881 -0.2454 -0.0075 -0.5365
 7534TIP3    H244094   0.373   0.626   5.010 -0.4149  0.2668 -0.4289
 7535TIP3   OH244095   6.090   3.017   2.021  0.1663  0.0454 -0.0507
 7535TIP3    H144096   6.156   3.043   2.086  0.3455 -2.5493  0.9319
 7535TIP3    H244097   6.131   3.038   1.937  0.9713  1.2197  0.5973
 7536TIP3   OH244098   3.651   5.770   5.800  1.2418 -0.0534 -1.0166
 7536TIP3    H144099   3.672   5.778   5.893 -1.1126 -2.9779 -0.0783
 7536TIP3    H244100   3.729   5.729   5.761  0.7707 -2.6705  0.5828
 7537TIP3   OH244101   1.704   3.253  16.853 -0.0982 -0.2109  0.2871
 7537TIP3    H144102   1.645   3.298  16.793  0.2484 -1.8676 -1.4141
 7537TIP3    H244103   1.786   3.303  16.848 -0.8212  1.1353  1.3886
 7538TIP3   OH244104   5.880   5.957  11.626  0.2107  0.0286 -0.0538
 7538TIP3    H144105   5.881   6.010  11.546  1.9132 -1.1557 -0.8944
 7538TIP3    H244106   5.787   5.946  11.646 -0.3078 -0.1082 -2.2117
 7539TIP3   OH244107   3.541   3.445   4.747 -0.2829 -0.2106 -0.4283
 7539TIP3    H144108   3.589   3.461   4.829  0.3783  0.1512 -0.8796
 7539TIP3    H244109   3.507   3.530   4.722  0.9201  0.0041 -1.3932
 7540TIP3   OH244110   3.465   3.715  15.510  0.2176 -0.0388 -0.4966
 7540TIP3    H144111   3.386   3.767  15.524 -0.4299 -0.9900 -0.4958
 7540TIP3    H244112   3.519   3.731  15.588 -1.1547 -1.4159  0.8038
 7541TIP3   OH244113   3.298   4.853   5.247 -0.7368  0.2049  0.1086
 7541TIP3    H144114   3.349   4.900   5.180 -0.8244 -0.6445 -0.5724
 7541TIP3    H244115   3.364   4.819   5.308 -0.6727  1.1891  0.6058
 7542TIP3   OH244116   1.711   1.504  16.487  0.2059  0.9584 -0.1151
 7542TIP3    H144117   1.708   1.409  16.496  1.5201  0.9292  0.2457
 7542TIP3    H244118   1.621   1.533  16.498 -0.0938 -0.1801  0.5058
 7543TIP3   OH244119   0.983   1.238   1.868 -0.9742 -0.1694 -0.0131
 7543TIP3    H144120   1.046   1.167   1.852  0.7014  1.6284 -2.0875
 7543TIP3    H244121   1.029   1.317   1.840 -3.2914  1.5853  0.8290
 7544TIP3   OH244122   0.296   4.189  13.692  0.1660 -0.2982  0.4266
 7544TIP3    H144123   0.358   4.164  13.624  1.5020 -0.5403  1.6655
 7544TIP3    H244124   0.277   4.281  13.675  0.0372 -0.5048 -0.5910
 7545TIP3   OH244125   1.080   5.995  16.294  0.3149 -0.1484 -0.1222
 7545TIP3    H144126   1.078   6.085  16.260 -1.7905  0.4403  1.3436
 7545TIP3    H244127   1.011   5.949  16.248 -3.0397  0.8350  3.3802
 7546TIP3   OH244128   1.075   5.431  16.159  0.4517  0.2913  0.0381
 7546TIP3    H144129   1.026   5.349  16.170  0.5347  0.1686 -0.4483
 7546TIP3    H244130   1.015   5.489  16.113 -0.4366  1.3198  2.3787
 7547TIP3   OH244131   5.176   5.821   4.955  0.2422  0.4030 -0.8149
 7547TIP3    H144132   5.232   5.761   4.905 -0.2245  0.6539 -1.6750
 7547TIP3    H244133   5.117   5.858   4.889 -3.5338 -2.6304  0.5011
 7548TIP3   OH244134   5.231   4.863  10.856 -0.2071  0.1557  0.4968
 7548TIP3    H144135   5.188   4.922  10.794  0.4883  0.2384  0.0776
 7548TIP3    H244136   5.318   4.901  10.868 -0.4090  0.2811  1.7281
 7549TIP3   OH244137   0.834   1.304  12.506  0.3398  0.5090  0.3124
 7549TIP3    H144138   0.875   1.221  12.531  0.5549  0.5847  0.2118
 7549TIP3    H244139   0.901   1.370  12.522 -0.2357  0.8330  1.5975
 7550TIP3   OH244140   6.832   1.235  14.105 -0.0593 -0.4081 -0.2535
 7550TIP3    H144141   6.805   1.292  14.178  1.7688  0.4621 -0.2165
 7550TIP3    H244142   6.750   1.213  14.061 -0.9839  0.9194  0.7151
 7551TIP3   OH244143   5.498   1.227  12.972  0.0188  0.4215  0.2334
 7551TIP3    H144144   5.526   1.151  12.922 -0.4095  1.1960 -1.2760
 7551TIP3    H244145   5.410   1.245  12.940  0.1044  1.5202  0.5674
 7552TIP3   OH244146   3.456   4.606   3.550  0.0730  0.2128 -0.2731
 7552TIP3    H144147   3.490   4.608   3.639  0.1696  0.0268 -0.3044
 7552TIP3    H244148   3.365   4.635   3.557  0.0419  0.0746 -0.0958
 7553TIP3   OH244149   3.847   6.857   2.932  0.2331  0.3186 -0.7862
 7553TIP3    H144150   3.928   6.860   2.882 -0.0129 -0.2244 -1.2332
 7553TIP3    H244151   3.853   6.930   2.993  1.0533  0.2897 -0.8205
 7554TIP3   OH244152   4.747   5.752   2.580 -0.0245  0.1344  0.0895
 7554TIP3    H144153   4.783   5.821   2.525 -0.4627 -0.0037 -0.3889
 7554TIP3    H244154   4.688   5.704   2.521  0.5490 -0.8691  0.3117
 7555TIP3   OH244155   4.732   3.967   3.573 -0.1019  0.0998  0.8438
 7555TIP3    H144156   4.639   3.977   3.595  0.1854  1.2475  1.6025
 7555TIP3    H244157   4.743   4.018   3.493  0.1975  1.3454  1.6537
 7556TIP3   OH244158   2.401   2.138  12.824  0.2723 -0.0742  0.0107
 7556TIP3    H144159   2.450   2.169  12.748 -1.9312  2.4121 -0.5381
 7556TIP3    H244160   2.312   2.125  12.791  0.0161 -2.4416  1.4193
 7557TIP3   OH244161   6.230   1.192  11.877  0.2038  0.4579  0.3078
 7557TIP3    H144162   6.166   1.227  11.816 -0.9024  0.0968  1.2181
 7557TIP3    H244163   6.313   1.232  11.851 -0.4943  1.4281 -0.4996
 7558TIP3   OH244164   2.676   2.256   1.416  0.1657 -0.0741  0.4257
 7558TIP3    H144165   2.585   2.282   1.427  0.1622 -0.7315  2.3288
 7558TIP3    H244166   2.681   2.168   1.455  1.6204 -0.0144  0.4322
 7559TIP3   OH244167   3.354   2.276  12.819  0.8216 -0.0232 -0.1872
 7559TIP3    H144168   3.376   2.206  12.882  0.8571  0.7332  0.6619
 7559TIP3    H244169   3.273   2.314  12.854  1.0813  0.6941 -0.3492
 7560TIP3   OH244170   4.332   2.904   4.839 -0.2188  0.9417  0.4853
 7560TIP3    H144171   4.412   2.891   4.788  0.0395 -2.5249  1.5309
 7560TIP3    H244172   4.354   2.973   4.902  0.8425  2.2436 -1.2090
 7561TIP3   OH244173   2.137   6.287   1.762 -0.0807  0.2876  0.2071
 7561TIP3    H144174   2.162   6.329   1.680 -0.7526  0.5715  0.1441
 7561TIP3    H244175   2.054   6.328   1.786  1.0948  1.7296  2.1057
 7562TIP3   OH244176   0.103   5.738   2.933  0.3281  0.1147  0.3279
 7562TIP3    H144177   0.124   5.645   2.930 -0.1969  0.0066 -0.5708
 7562TIP3    H244178   0.033   5.744   2.998 -1.1350 -0.4686 -1.1271
 7563TIP3   OH244179   2.300   5.456  12.655  0.4972 -0.2558  0.1133
 7563TIP3    H144180   2.219   5.505  12.668  0.5711  0.3737 -1.5381
 7563TIP3    H244181   2.352   5.510  12.595  1.9504 -0.8617  0.7745
 7564TIP3   OH244182   4.306   1.835  12.667  0.0144 -0.0384 -0.1935
 7564TIP3    H144183   4.396   1.866  12.675  0.1454 -0.0250 -1.4680
 7564TIP3    H244184   4.311   1.766  12.601 -0.8748 -0.2008 -0.0958
 7565TIP3   OH244185   1.665   4.528   4.489  0.2351  0.3844 -0.1940
 7565TIP3    H144186   1.610   4.472   4.544  3.7742 -0.6290  2.7461
 7565TIP3    H244187   1.630   4.518   4.400 -2.8339 -1.8219  1.1180
 7566TIP3   OH244188   3.633   1.714   0.983 -0.9666 -0.3617  0.8822
 7566TIP3    H144189   3.624   1.655   1.058  0.1914 -0.1402  1.2212
 7566TIP3    H244190   3.709   1.680   0.935 -0.6988  0.4509  0.7126
 7567TIP3   OH244191   1.683   1.403  15.189 -1.3823  1.0166 -0.7154
 7567TIP3    H144192   1.771   1.366  15.201 -1.9841 -1.0800 -2.0283
 7567TIP3    H244193   1.648   1.413  15.277 -0.6422 -0.3728 -0.2247
 7568TIP3   OH244194   4.508   0.560  14.669  0.1390  0.6637 -0.3255
 7568TIP3    H144195   4.534   0.652  14.668  1.4645  0.3283 -2.3180
 7568TIP3    H244196   4.429   0.558  14.722  0.8542  2.7166  0.9253
 7569TIP3   OH244197   4.617   1.801   3.599  0.0002 -0.3981 -0.5799
 7569TIP3    H144198   4.571   1.739   3.543  0.9098 -1.3098 -0.3524
 7569TIP3    H244199   4.641   1.873   3.541 -3.2659  1.0469 -0.3542
 7570TIP3   OH244200   0.907   2.588   1.771 -0.1616  0.4027  0.1501
 7570TIP3    H144201   0.833   2.531   1.748  0.0340 -0.1046  0.7585
 7570TIP3    H244202   0.890   2.669   1.723 -0.4611 -0.1551 -0.7050
 7571TIP3   OH244203   2.617   6.649  15.216 -0.2600 -0.2479 -0.2292
 7571TIP3    H144204   2.576   6.606  15.291 -1.4139  0.1107 -0.6431
 7571TIP3    H244205   2.665   6.579  15.172 -1.6339 -1.0155 -0.5631
 7572TIP3   OH244206   0.788   5.001   1.174  0.3822  0.6723 -0.0557
 7572TIP3    H144207   0.815   4.919   1.132  2.1629  1.8993 -1.4468
 7572TIP3    H244208   0.702   4.981   1.212  1.4841 -2.3507  1.2087
 7573TIP3   OH244209   4.171   2.770   5.833 -0.0917  0.3694  0.3588
 7573TIP3    H144210   4.153   2.816   5.751  0.0861  0.4187  0.3453
 7573TIP3    H244211   4.252   2.722   5.816 -0.3076  0.0095  0.3587
 7574TIP3   OH244212   5.690   1.598   1.420 -0.6982 -0.3145 -0.0102
 7574TIP3    H144213   5.718   1.526   1.477  1.8807 -0.1418 -0.9301
 7574TIP3    H244214   5.732   1.580   1.336 -0.0761  2.1747 -0.3199
 7575TIP3   OH244215   4.416   2.129   2.885  0.4357  0.8081 -0.0764
 7575TIP3    H144216   4.481   2.195   2.910  0.2861  0.4584  1.3266
 7575TIP3    H244217   4.384   2.095   2.968 -0.3429 -0.2073 -0.7729
 7576TIP3   OH244218   3.925   5.525  16.096 -0.3007 -0.4325 -0.5102
 7576TIP3    H144219   3.936   5.611  16.056  0.1491 -0.6999 -0.9732
 7576TIP3    H244220   3.977   5.530  16.177 -3.5159  1.0968  1.6626
 7577TIP3   OH244221   6.253   0.524   2.357 -0.3682 -0.4997  0.1203
 7577TIP3    H144222   6.246   0.449   2.416  1.0178 -1.2914 -0.6549
 7577TIP3    H244223   6.231   0.488   2.271 -0.4054  0.1606 -0.1504
 7578TIP3   OH244224   1.320   6.124   1.291 -0.1929 -0.3586 -0.2300
 7578TIP3    H144225   1.340   6.127   1.198 -0.2024 -0.0433 -0.2221
 7578TIP3    H244226   1.357   6.041   1.321 -0.4395 -0.5908 -0.5688
 7579TIP3   OH244227   0.411   6.254  15.525  0.9487  0.0853 -0.8186
 7579TIP3    H144228   0.483   6.273  15.585 -0.7685 -0.7062  1.6313
 7579TIP3    H244229   0.413   6.158  15.515 -0.0255  0.0010 -0.3352
 7580TIP3   OH244230   3.867   2.562   0.837  0.2809  0.4818  0.0586
 7580TIP3    H144231   3.918   2.507   0.897  0.8847  0.9369 -0.0319
 7580TIP3    H244232   3.820   2.499   0.783  1.5055  0.0179 -0.5073
 7581TIP3   OH244233   6.701   6.668  12.250 -0.5356  0.0869  0.0228
 7581TIP3    H144234   6.689   6.593  12.308  1.1124  0.4094  0.8624
 7581TIP3    H244235   6.622   6.670  12.196 -1.6937 -0.8132  1.5906
 7582TIP3   OH244236   1.293   2.692   5.368 -0.3912  0.2992 -0.1103
 7582TIP3    H144237   1.293   2.597   5.381  1.9454  0.1893 -0.5446
 7582TIP3    H244238   1.287   2.728   5.456  3.5841 -0.3702  0.6263
 7583TIP3   OH244239   2.989   5.517   0.158  0.2268 -0.6543  0.2604
 7583TIP3    H144240   2.958   5.583   0.220  1.2168 -0.1042  0.1808
 7583TIP3    H244241   2.971   5.434   0.201 -1.7906 -0.3861  0.0074
 7584TIP3   OH244242   1.064   3.447  11.612 -0.4483 -0.4526 -0.0537
 7584TIP3    H144243   0.998   3.377  11.616 -0.4213 -0.4987 -0.4392
 7584TIP3    H244244   1.035   3.503  11.540 -0.1902 -0.3456 -0.0734
 7585TIP3   OH244245   0.200   6.630   2.430 -0.1000 -0.3230 -0.3220
 7585TIP3    H144246   0.234   6.573   2.361  0.7517 -0.2391  0.0108
 7585TIP3    H244247   0.228   6.589   2.512  1.6521  1.1831 -0.0863
 7586TIP3   OH244248   1.131   1.452   3.922 -0.0481 -0.4039 -0.3029
 7586TIP3    H144249   1.134   1.454   3.827  2.9078  0.5278 -0.2878
 7586TIP3    H244250   1.170   1.367   3.946 -1.6965 -1.0820  0.1215
 7587TIP3   OH244251   3.615   6.463   4.254 -0.3677 -0.3178  0.1953
 7587TIP3    H144252   3.630   6.518   4.177 -1.1039  2.4281  1.8511
 7587TIP3    H244253   3.692   6.406   4.258  1.8901  2.4834 -0.2112
 7588TIP3   OH244254   1.131   6.519   3.749  0.0004 -0.0823  0.0496
 7588TIP3    H144255   1.204   6.498   3.690 -0.9704 -1.6030 -0.6674
 7588TIP3    H244256   1.072   6.573   3.696  0.7506  1.5076  0.7595
 7589TIP3   OH244257   5.577   3.650  12.445 -0.0634 -0.5267  0.2829
 7589TIP3    H144258   5.582   3.669  12.539 -2.8240  1.4658  0.1459
 7589TIP3    H244259   5.668   3.653  12.416  0.6358  2.6857  2.2539
 7590TIP3   OH244260   2.949   2.640   2.814  0.3255  0.2514  0.6073
 7590TIP3    H144261   3.021   2.601   2.763 -0.0193 -1.2190  1.1991
 7590TIP3    H244262   2.870   2.605   2.773 -0.1255  2.4972 -0.5544
 7591TIP3   OH244263   5.746   0.884   4.066 -0.4410  0.6891  0.1121
 7591TIP3    H144264   5.838   0.865   4.083 -0.5626  0.2117  0.2717
 7591TIP3    H244265   5.732   0.972   4.101 -0.2967  0.3426  1.0669
 7592TIP3   OH244266   2.095   5.831  12.936  0.3967  0.2751  0.4896
 7592TIP3    H144267   2.168   5.770  12.949 -0.3327 -0.7475 -0.0510
 7592TIP3    H244268   2.100   5.891  13.010  2.2994  0.7645  0.0171
 7593TIP3   OH244269   0.793   0.761  13.440 -0.1774  0.2338  0.4395
 7593TIP3    H144270   0.755   0.774  13.527  1.0998 -0.2412  1.0905
 7593TIP3    H244271   0.789   0.667  13.426  1.4734  0.0641  0.8908
 7594TIP3   OH244272   4.777   2.766   5.494 -0.0655 -0.1236  0.0736
 7594TIP3    H144273   4.852   2.793   5.547  0.0268  1.5626 -0.8505
 7594TIP3    H244274   4.776   2.827   5.420 -2.5117  0.0963  0.1895
 7595TIP3   OH244275   2.851   1.512  14.358  0.2842 -0.2802 -0.4166
 7595TIP3    H144276   2.816   1.593  14.395 -1.7018 -0.9902 -0.6503
 7595TIP3    H244277   2.920   1.485  14.419 -0.0202  0.8137  0.4395
 7596TIP3   OH244278   5.204   2.161   4.729 -0.3709  0.0355 -0.3262
 7596TIP3    H144279   5.257   2.130   4.655  0.0214  0.2854 -0.1548
 7596TIP3    H244280   5.144   2.224   4.690 -0.8268 -0.5525 -0.5907
 7597TIP3   OH244281   0.487   1.069   1.277 -0.1659 -0.8548  0.1228
 7597TIP3    H144282   0.478   1.123   1.198 -2.4171  0.3009  1.0727
 7597TIP3    H244283   0.503   0.981   1.244 -2.0175 -0.5960 -1.7032
 7598TIP3   OH244284   0.236   0.452   0.145  0.3845  0.0583  0.1753
 7598TIP3    H144285   0.331   0.437   0.153  0.2682  0.0059  1.9986
 7598TIP3    H244286   0.201   0.424   0.230 -1.1096  1.2475 -0.0178
 7599TIP3   OH244287   1.605   0.003  10.820 -0.7924  0.0346 -0.3272
 7599TIP3    H144288   1.697  -0.019  10.808 -0.4695  0.9233  0.4394
 7599TIP3    H244289   1.599   0.096  10.795 -1.0921  0.5152  1.4027
 7600TIP3   OH244290   4.399   5.113   1.856  0.1252 -0.2457 -0.2765
 7600TIP3    H144291   4.359   5.036   1.816  1.2163 -0.6080 -0.7114
 7600TIP3    H244292   4.385   5.102   1.950 -0.3290 -0.6263 -0.3896
 7601TIP3   OH244293   1.122   5.353  10.820  0.1883  0.3594  0.2715
 7601TIP3    H144294   1.081   5.436  10.842  0.9611  0.7359  0.2932
 7601TIP3    H244295   1.193   5.342  10.883  1.5041  0.7667 -1.0916
 7602TIP3   OH244296   1.101   0.685   3.611 -0.2353  0.0721 -0.2273
 7602TIP3    H144297   1.062   0.719   3.531  0.6415 -1.6950 -1.4818
 7602TIP3    H244298   1.191   0.718   3.611  0.3354 -1.3886 -0.9799
 7603TIP3   OH244299   4.919   4.234  13.910  0.0817 -0.5624  0.2108
 7603TIP3    H144300   4.971   4.312  13.925  0.1713 -0.8310  1.3415
 7603TIP3    H244301   4.942   4.175  13.981 -2.5824 -0.2658  1.4456
 7604TIP3   OH244302   5.012   3.653   3.336  0.2169 -0.3484  0.1355
 7604TIP3    H144303   4.939   3.592   3.328 -0.0009  0.0197 -0.8600
 7604TIP3    H244304   4.986   3.728   3.282  0.8835  0.2185  0.5959
 7605TIP3   OH244305   2.742   4.340   2.549 -0.5059  0.0164  0.1642
 7605TIP3    H144306   2.804   4.300   2.609  1.4793  1.9702 -0.4393
 7605TIP3    H244307   2.703   4.412   2.598 -1.1653 -0.2555  0.0533
 7606TIP3   OH244308   3.014   0.996   0.076 -0.8253  0.0789  0.7763
 7606TIP3    H144309   3.028   1.083   0.113  3.1158 -0.1642  0.2993
 7606TIP3    H244310   2.987   1.013  -0.014 -1.0985  0.7859  0.9805
 7607TIP3   OH244311   0.150   2.831   4.563 -0.0203  0.1601 -0.5940
 7607TIP3    H144312   0.097   2.895   4.516  0.5383  0.9486 -0.1750
 7607TIP3    H244313   0.199   2.883   4.627  0.4037 -0.6945 -0.2092
 7608TIP3   OH244314   0.632   2.790  16.462  0.1410  0.2704  0.2320
 7608TIP3    H144315   0.603   2.754  16.378 -0.2698 -1.6421  1.1222
 7608TIP3    H244316   0.713   2.836  16.442 -0.6003  0.9243 -1.4050
 7609TIP3   OH244317   4.346   5.284   2.775  0.4240  0.0793  0.5311
 7609TIP3    H144318   4.272   5.231   2.743 -1.0022  2.4025 -0.2144
 7609TIP3    H244319   4.332   5.289   2.870 -1.4546  1.9610  0.2049
 7610TIP3   OH244320   2.167   5.265  14.446 -0.4226 -0.5783  0.1310
 7610TIP3    H144321   2.076   5.255  14.417 -0.1122 -0.9355 -0.7820
 7610TIP3    H244322   2.176   5.357  14.468 -1.1174 -0.6245  0.6259
 7611TIP3   OH244323   5.550   6.119  10.522  0.4350  0.2905 -0.2875
 7611TIP3    H144324   5.535   6.167  10.441 -3.5007  0.1307  0.1293
 7611TIP3    H244325   5.578   6.032  10.494  0.2828  0.5884 -1.4159
 7612TIP3   OH244326   6.250   1.161   2.469  0.1324  0.1299 -0.7340
 7612TIP3    H144327   6.314   1.213   2.421  1.8518 -2.8740 -1.9830
 7612TIP3    H244328   6.298   1.125   2.543 -1.1151  0.5877  0.3483
 7613TIP3   OH244329   3.025   1.077   5.899 -0.3480 -0.2288 -0.0511
 7613TIP3    H144330   3.004   1.094   5.808 -2.4959 -0.9108  0.2740
 7613TIP3    H244331   2.997   0.987   5.915 -1.4678  0.3666  1.6630
 7614TIP3   OH244332   2.453   5.744   4.837 -0.3426  0.0176  0.4477
 7614TIP3    H144333   2.534   5.753   4.887  0.1391 -0.4502 -0.2198
 7614TIP3    H244334   2.443   5.827   4.791 -1.2618  0.7814  1.9801
 7615TIP3   OH244335   4.680   0.125  15.951  0.4695  0.1295 -0.3430
 7615TIP3    H144336   4.679   0.055  15.886  1.3103  0.9614 -1.2854
 7615TIP3    H244337   4.649   0.203  15.904  1.4317  0.8278  0.1227
 7616TIP3   OH244338   3.728   2.790   0.720  0.6658 -0.4864  0.2330
 7616TIP3    H144339   3.734   2.851   0.794 -0.5310 -0.0948  0.0292
 7616TIP3    H244340   3.783   2.716   0.746  0.7328 -0.0926  1.2606
 7617TIP3   OH244341   6.280   5.830  11.890  0.7530  0.0264  0.3306
 7617TIP3    H144342   6.356   5.887  11.877  1.0066 -0.1822  0.8564
 7617TIP3    H244343   6.222   5.850  11.816 -0.2889  2.7026  1.7394
 7618TIP3   OH244344   6.472   0.886   4.643 -0.5475  0.4185 -0.5738
 7618TIP3    H144345   6.537   0.829   4.685 -0.5358  0.3499 -0.6852
 7618TIP3    H244346   6.417   0.915   4.715 -1.3765 -0.7973 -0.6798
 7619TIP3   OH244347   6.695   2.567   5.760  0.5325  0.6654 -0.3022
 7619TIP3    H144348   6.743   2.622   5.822  1.0445  0.4910 -0.5395
 7619TIP3    H244349   6.636   2.627   5.714  0.7015  0.9206 -0.1872
 7620TIP3   OH244350   2.639   4.514  14.532 -0.1627  0.6419  0.5121
 7620TIP3    H144351   2.578   4.452  14.573  0.0997 -0.0889 -0.1991
 7620TIP3    H244352   2.703   4.459  14.488 -0.2932  1.4239 -0.6745
 7621TIP3   OH244353   5.741   1.043  15.241 -0.2023 -0.0703 -0.2749
 7621TIP3    H144354   5.817   1.043  15.300 -0.8981  0.2265  0.6469
 7621TIP3    H244355   5.778   1.025  15.154  0.9884  0.6296  0.0686
 7622TIP3   OH244356   4.140   0.173  14.350  0.0594 -0.2232  0.1708
 7622TIP3    H144357   4.219   0.128  14.379  0.6216 -0.0596 -1.0725
 7622TIP3    H244358   4.153   0.264  14.374  0.4192 -0.1300 -0.3668
 7623TIP3   OH244359   4.174   1.473  12.328 -0.2727  0.3256  0.2770
 7623TIP3    H144360   4.163   1.383  12.296  1.4744  0.5880 -1.2004
 7623TIP3    H244361   4.103   1.484  12.391 -1.3597 -1.6297 -0.5045
 7624TIP3   OH244362   1.913   5.100   5.649 -0.0650 -0.2274 -0.3293
 7624TIP3    H144363   1.979   5.039   5.618  0.5451  0.4697 -0.4492
 7624TIP3    H244364   1.872   5.134   5.569  0.2491  0.2127 -0.3081
 7625TIP3   OH244365   1.082   4.120   1.660  0.0307 -0.3406  0.1974
 7625TIP3    H144366   1.158   4.172   1.636  0.6823 -1.8964 -1.2920
 7625TIP3    H244367   1.117   4.033   1.677 -1.1669 -0.5866  1.6039
 7626TIP3   OH244368   2.728   3.592  10.718  0.3220  0.5266 -0.0130
 7626TIP3    H144369   2.675   3.641  10.656  0.9290  0.9764 -0.1917
 7626TIP3    H244370   2.673   3.519  10.746 -0.4052  1.0273 -0.1332
 7627TIP3   OH244371   4.571   5.379  14.177 -0.0796  0.7507 -0.3692
 7627TIP3    H144372   4.590   5.291  14.209 -1.1515  0.2417 -1.0859
 7627TIP3    H244373   4.501   5.411  14.234  1.7088  1.9902  1.2368
 7628TIP3   OH244374   0.223   5.838  11.136  0.6202  0.0370  0.6574
 7628TIP3    H144375   0.160   5.865  11.202 -0.5770  1.7437 -1.0654
 7628TIP3    H244376   0.235   5.916  11.082  1.9886 -1.1212 -0.8050
 7629TIP3   OH244377   2.501   0.925   3.388  0.9749  0.3127  0.5509
 7629TIP3    H144378   2.422   0.897   3.433  0.1865  1.1788 -0.2462
 7629TIP3    H244379   2.573   0.882   3.435 -0.0220 -1.3298  0.6431
 7630TIP3   OH244380   6.356   6.316   1.021 -0.4101  0.0956 -0.2771
 7630TIP3    H144381   6.263   6.310   1.044 -0.3599 -1.4142 -0.3642
 7630TIP3    H244382   6.399   6.254   1.081  0.8540  2.2892  1.2325
 7631TIP3   OH244383   4.559   4.269  11.486 -0.2696 -0.3615 -0.4669
 7631TIP3    H144384   4.650   4.238  11.480 -0.3117 -0.5108 -0.3501
 7631TIP3    H244385   4.529   4.271  11.396 -0.1753 -0.3894 -0.4999
 7632TIP3   OH244386   1.932   0.851  14.586  0.7176 -0.2472 -0.2427
 7632TIP3    H144387   1.980   0.768  14.588  0.8507 -0.1592  0.1507
 7632TIP3    H244388   1.889   0.856  14.671 -2.2429 -1.6531 -1.5120
 7633TIP3   OH244389   6.217   5.905  12.163  0.2593  0.2113  0.0082
 7633TIP3    H144390   6.208   5.998  12.140  0.5888  0.0249 -0.9237
 7633TIP3    H244391   6.297   5.877  12.118  1.1415 -0.1006  1.7145
 7634TIP3   OH244392   2.195   0.105   1.786 -0.4297 -0.2861 -0.2369
 7634TIP3    H144393   2.271   0.162   1.780 -2.2261  2.0821 -2.9751
 7634TIP3    H244394   2.214   0.033   1.725 -0.0412 -0.1691 -0.2544
 7635TIP3   OH244395   3.676   2.602   4.454 -0.4839 -0.1937 -0.2058
 7635TIP3    H144396   3.702   2.691   4.478 -2.3920  0.3483 -0.0402
 7635TIP3    H244397   3.685   2.600   4.358  2.4420 -0.8359 -0.0203
 7636TIP3   OH244398   5.973   1.298  10.839 -0.0075 -0.4928  0.0106
 7636TIP3    H144399   6.019   1.214  10.842  1.6343  0.3623  0.1479
 7636TIP3    H244400   5.881   1.275  10.827  0.3887 -2.3034  0.1879
 7637TIP3   OH244401   1.887   0.311  13.352  0.0074  0.0449 -0.7374
 7637TIP3    H144402   1.834   0.389  13.332 -2.0333 -0.9103  0.6264
 7637TIP3    H244403   1.914   0.324  13.443  0.3346 -0.4641 -0.7625
 7638TIP3   OH244404   2.674   4.535   5.686  0.0036 -0.4733  0.2178
 7638TIP3    H144405   2.688   4.621   5.725 -0.0487 -0.5933  0.5078
 7638TIP3    H244406   2.626   4.552   5.605  0.8244 -0.1535 -0.2163
 7639TIP3   OH244407   3.990   3.232  13.733 -0.2919 -0.3359 -0.0838
 7639TIP3    H144408   4.055   3.286  13.777 -0.4022  0.0186 -0.3560
 7639TIP3    H244409   4.038   3.153  13.707 -0.1980 -0.5032  0.5614
 7640TIP3   OH244410   1.292   4.436   5.323 -0.3943 -0.1680  0.2218
 7640TIP3    H144411   1.217   4.434   5.263  0.4441 -0.4016 -0.8508
 7640TIP3    H244412   1.310   4.529   5.335 -0.5891 -0.1187  0.1426
 7641TIP3   OH244413   6.351   1.156   0.718 -0.1656 -0.7788 -0.1417
 7641TIP3    H144414   6.391   1.236   0.752  2.7673 -0.7791 -3.0635
 7641TIP3    H244415   6.418   1.088   0.734 -1.0592 -1.8753 -0.9159
 7642TIP3   OH244416   4.851   6.088   3.659  0.1558  0.6105  0.3510
 7642TIP3    H144417   4.924   6.121   3.711  1.3734  0.3005 -1.0766
 7642TIP3    H244418   4.802   6.167   3.635  0.3242  0.8831  0.8823
 7643TIP3   OH244419   4.721   4.536   5.393  0.4828  0.2465  0.1551
 7643TIP3    H144420   4.704   4.567   5.305  2.7326  1.6076  0.1055
 7643TIP3    H244421   4.684   4.448   5.396 -1.6455  1.0352 -1.3674
 7644TIP3   OH244422   3.791   2.586  14.736 -0.1471  0.4486 -0.0809
 7644TIP3    H144423   3.766   2.674  14.708 -1.3268 -0.1437 -0.9821
 7644TIP3    H244424   3.737   2.570  14.814 -0.9665  0.0212 -0.7194
 7645TIP3   OH244425   2.117   2.354   0.195  0.2288  0.1985  0.3034
 7645TIP3    H144426   2.027   2.335   0.166  0.8137 -0.7070 -1.0419
 7645TIP3    H244427   2.119   2.325   0.286 -0.7160 -0.2198  0.2073
 7646TIP3   OH244428   0.725   2.739   0.460 -0.4961 -0.3299 -0.3397
 7646TIP3    H144429   0.641   2.730   0.414 -0.9637  2.1169 -0.1047
 7646TIP3    H244430   0.714   2.816   0.515  0.9438 -1.6594  1.9634
 7647TIP3   OH244431   4.725   4.070   1.352 -0.3848  0.1483 -0.0896
 7647TIP3    H144432   4.676   4.111   1.423  1.1787  0.0025  1.1308
 7647TIP3    H244433   4.696   3.979   1.351  1.7335 -0.6685  2.4827
 7648TIP3   OH244434   5.901   0.148   3.004  0.3314 -0.2338 -0.0562
 7648TIP3    H144435   5.968   0.101   3.053 -0.9594 -3.3900 -1.1123
 7648TIP3    H244436   5.880   0.224   3.058 -0.1670 -2.8478  3.7844
 7649TIP3   OH244437   6.470   2.236  10.985  0.0898 -0.2267 -0.3489
 7649TIP3    H144438   6.553   2.208  10.945  0.3012 -0.1919  0.0600
 7649TIP3    H244439   6.404   2.212  10.921  0.4251 -0.1775 -0.7221
 7650TIP3   OH244440   1.146   6.841   0.706 -0.1822 -0.3260  0.2493
 7650TIP3    H144441   1.125   6.813   0.617  0.3308  0.7553 -0.2206
 7650TIP3    H244442   1.068   6.818   0.757 -2.2961  2.7701 -1.2670
 7651TIP3   OH244443   1.714   2.171   3.834 -0.5954  0.1455 -0.0412
 7651TIP3    H144444   1.666   2.095   3.799 -1.5358  0.3705  0.7252
 7651TIP3    H244445   1.803   2.139   3.845  0.3167  0.5693 -4.4353
 7652TIP3   OH244446   2.021   6.702  12.099 -0.0069 -0.1547 -0.0021
 7652TIP3    H144447   1.981   6.760  12.164 -0.7171 -0.4861 -0.1337
 7652TIP3    H244448   2.023   6.754  12.018 -1.7341 -0.6703 -0.4306
 7653TIP3   OH244449   6.357   3.897  14.440 -0.1481  0.1980 -0.2529
 7653TIP3    H144450   6.334   3.987  14.460  1.1678  0.4634  0.1654
 7653TIP3    H244451   6.275   3.849  14.447 -0.9713  1.4358 -0.9945
 7654TIP3   OH244452   5.790   0.123   0.955 -0.4147  0.2818  0.1856
 7654TIP3    H144453   5.834   0.040   0.938  1.4979  1.1775  0.5154
 7654TIP3    H244454   5.858   0.179   0.992 -1.9465  1.6428  1.0410
 7655TIP3   OH244455   3.960   3.043   0.859  0.2506  0.5553  0.2782
 7655TIP3    H144456   3.865   3.034   0.865  0.2970  0.7055  1.5370
 7655TIP3    H244457   3.983   3.005   0.774 -0.9879  1.0420 -0.2893
 7656TIP3   OH244458   1.607   2.943  14.577 -0.3008  0.8470 -0.1891
 7656TIP3    H144459   1.530   2.998  14.588 -1.6615 -0.8436 -0.8179
 7656TIP3    H244460   1.638   2.926  14.666 -2.3949 -0.7383  0.3140
 7657TIP3   OH244461   5.303   4.064   5.013 -0.3085 -0.5025 -0.7279
 7657TIP3    H144462   5.276   3.972   5.005 -2.2158 -0.0237 -0.1357
 7657TIP3    H244463   5.224   4.111   5.037  1.2469  0.8315  2.4257
 7658TIP3   OH244464   0.731   5.790  11.820 -0.5169  0.2270 -0.3111
 7658TIP3    H144465   0.795   5.775  11.890  0.3952  0.1272 -1.1508
 7658TIP3    H244466   0.775   5.849  11.759 -1.5443  0.8431 -0.4914
 7659TIP3   OH244467   4.045   2.287   2.145  0.5077 -0.3306  0.5282
 7659TIP3    H144468   4.007   2.305   2.231 -1.4803  0.8060 -0.5111
 7659TIP3    H244469   4.020   2.362   2.092 -0.4476 -2.0927 -1.6740
 7660TIP3   OH244470   5.596   2.642   4.588  0.0593 -0.1872  0.4533
 7660TIP3    H144471   5.529   2.696   4.546  2.5261  2.3497 -0.5606
 7660TIP3    H244472   5.568   2.636   4.679 -0.8888  1.9799  0.3731
 7661TIP3   OH244473   0.289   3.692   1.519 -0.6142 -0.0373  0.2380
 7661TIP3    H144474   0.357   3.628   1.540 -0.0177  0.7668  0.8394
 7661TIP3    H244475   0.290   3.696   1.423 -0.2070 -0.4460  0.2182
 7662TIP3   OH244476   3.791   3.713  16.424 -0.5045 -0.3409 -0.7031
 7662TIP3    H144477   3.820   3.726  16.514  0.5715 -0.0616 -1.0719
 7662TIP3    H244478   3.799   3.619  16.409  1.5583 -0.1567 -1.1870
 7663TIP3   OH244479   0.413   0.647  12.638  0.3565 -0.3174 -0.1796
 7663TIP3    H144480   0.440   0.588  12.567 -0.9988 -2.2790  0.8631
 7663TIP3    H244481   0.454   0.611  12.716  1.4691  1.5802  0.1813
 7664TIP3   OH244482   1.528   1.079   1.678 -0.2203 -0.0090 -0.4618
 7664TIP3    H144483   1.606   1.077   1.624 -0.5620 -0.3505 -0.9484
 7664TIP3    H244484   1.495   0.989   1.677 -1.2831  0.3734 -1.2407
 7665TIP3   OH244485   3.037   0.037  11.293 -0.4180  0.5046  0.4847
 7665TIP3    H144486   2.982   0.106  11.256 -0.5691 -0.2528 -0.7931
 7665TIP3    H244487   2.997  -0.044  11.261  1.1596 -0.0762 -0.0982
 7666TIP3   OH244488   3.704   0.380  16.845 -0.3127  0.5927 -0.3662
 7666TIP3    H144489   3.759   0.311  16.881 -0.5435  0.1149 -0.9069
 7666TIP3    H244490   3.747   0.405  16.764 -0.4270  0.8261 -0.3558
 7667TIP3   OH244491   0.141   2.383   5.540 -0.1869 -0.3033  0.1981
 7667TIP3    H144492   0.178   2.302   5.504  1.8681 -0.4464  2.4067
 7667TIP3    H244493   0.202   2.451   5.513  0.7034 -0.2379  2.2604
 7668TIP3   OH244494   1.775   6.799  16.696 -0.1635  0.1227  0.0233
 7668TIP3    H144495   1.804   6.782  16.786 -0.4919 -0.4624  0.0247
 7668TIP3    H244496   1.731   6.884  16.700  0.3833  0.3965  0.2860
 7669TIP3   OH244497   1.046   4.813   4.827  0.2718 -0.5342  0.8532
 7669TIP3    H144498   1.032   4.741   4.767  0.0335 -1.9041  2.4728
 7669TIP3    H244499   0.978   4.803   4.893  1.2833  0.1233  2.0472
 7670TIP3   OH244500   5.095   3.508  11.339 -0.2143  0.5805 -0.1758
 7670TIP3    H144501   5.101   3.482  11.431 -1.7849  0.4559 -0.0877
 7670TIP3    H244502   5.185   3.528  11.315  0.5359 -1.2310  0.8368
 7671TIP3   OH244503   1.472   0.462  13.488 -0.1594 -0.0980 -0.3464
 7671TIP3    H144504   1.477   0.414  13.571 -3.1599  0.0998  0.0443
 7671TIP3    H244505   1.469   0.554  13.514  1.0458  0.1050 -0.8501
 7672TIP3   OH244506   4.889   6.538   0.773  0.1039 -0.0395 -0.5160
 7672TIP3    H144507   4.975   6.503   0.794  0.1639  0.6694  0.5316
 7672TIP3    H244508   4.829   6.487   0.827  0.0414  0.4891 -0.0759
 7673TIP3   OH244509   1.973   6.410   2.732 -0.6987  0.4246 -0.1536
 7673TIP3    H144510   1.970   6.320   2.766  1.2550  0.2461 -0.3008
 7673TIP3    H244511   2.048   6.410   2.672  0.6531  2.6234  1.3755
 7674TIP3   OH244512   4.554   1.981  12.998 -0.2081  0.1944  0.2818
 7674TIP3    H144513   4.618   2.009  13.063  0.8799 -0.3377 -0.5359
 7674TIP3    H244514   4.512   2.062  12.969 -0.6172  0.4482  1.5350
 7675TIP3   OH244515   0.705   5.924   3.613 -0.2565  0.1417 -0.2004
 7675TIP3    H144516   0.654   6.004   3.624  1.7591  1.2460  1.8323
 7675TIP3    H244517   0.792   5.953   3.587  0.0263 -1.5535 -1.3420
 7676TIP3   OH244518   1.739   5.106   0.999 -0.2975 -0.8628  0.0573
 7676TIP3    H144519   1.825   5.066   1.010 -0.3597 -1.9331 -2.5006
 7676TIP3    H244520   1.730   5.165   1.073  1.6747 -2.3764  1.6138
 7677TIP3   OH244521   3.225   6.623   4.885  0.4952 -0.7803  0.3639
 7677TIP3    H144522   3.163   6.568   4.837 -1.7238  1.2606  0.7079
 7677TIP3    H244523   3.249   6.692   4.822 -0.2320  0.3249  1.2677
 7678TIP3   OH244524   6.325   1.491   0.383 -0.0291 -0.2556 -0.3334
 7678TIP3    H144525   6.329   1.573   0.432  1.1199  0.1471 -1.0602
 7678TIP3    H244526   6.287   1.429   0.445  2.2196  0.0189  1.4732
 7679TIP3   OH244527   3.976   4.119   6.032  0.5260 -0.1319 -0.1670
 7679TIP3    H144528   4.067   4.090   6.035  0.3511 -0.6227  1.8141
 7679TIP3    H244529   3.963   4.165   6.115 -1.2182 -0.6737 -0.1056
 7680TIP3   OH244530   5.045   6.330  13.890 -0.4042 -0.6101 -0.0862
 7680TIP3    H144531   4.965   6.354  13.935 -0.6117 -1.4631  0.0048
 7680TIP3    H244532   5.016   6.285  13.811 -0.0114 -1.5256  0.2854
 7681TIP3   OH244533   0.629   6.160   4.201 -0.8501 -0.5932  0.2372
 7681TIP3    H144534   0.554   6.102   4.192 -0.6238 -0.8733  0.1253
 7681TIP3    H244535   0.608   6.217   4.275 -2.3153  1.0916 -1.3642
 7682TIP3   OH244536   6.787   1.633   5.919  0.5786 -0.2759  0.5407
 7682TIP3    H144537   6.791   1.728   5.931 -1.8667  0.0706 -0.8464
 7682TIP3    H244538   6.695   1.611   5.929  1.3238 -2.8703  2.8407
 7683TIP3   OH244539   4.288   1.157  12.677 -0.2350  0.4368  0.4378
 7683TIP3    H144540   4.318   1.217  12.609 -0.0277 -0.2826 -0.1156
 7683TIP3    H244541   4.207   1.196  12.710 -0.3733  0.7599 -0.2637
 7684TIP3   OH244542   6.362   2.687  16.839  0.0863 -0.4123  0.2702
 7684TIP3    H144543   6.446   2.710  16.800 -0.3409  0.1477 -0.3377
 7684TIP3    H244544   6.368   2.718  16.929  1.2466 -2.1059  0.8283
 7685TIP3   OH244545   5.909   4.577   6.071  0.0886  0.2551  0.3974
 7685TIP3    H144546   5.992   4.594   6.027 -0.0005 -0.7961 -0.2226
 7685TIP3    H244547   5.876   4.664   6.095  1.2156  0.6959  0.3841
 7686TIP3   OH244548   3.551   5.289   2.102  0.4853 -0.2405 -0.3160
 7686TIP3    H144549   3.582   5.375   2.131 -0.6373 -0.2061  0.8794
 7686TIP3    H244550   3.606   5.268   2.027  0.9951  1.3804 -0.4418
 7687TIP3   OH244551   1.814   2.875   1.948 -0.3152  0.1869  0.0741
 7687TIP3    H144552   1.814   2.967   1.975  0.7187  0.0918  0.4328
 7687TIP3    H244553   1.724   2.858   1.921 -0.5353  1.2809  0.0873
 7688TIP3   OH244554   4.753   4.679   5.158 -0.0591  0.3782 -0.0811
 7688TIP3    H144555   4.728   4.767   5.188  0.1510  0.9257 -1.4450
 7688TIP3    H244556   4.813   4.695   5.085  1.7683 -0.8992  1.0582
 7689TIP3   OH244557   4.959   1.919   2.582 -0.0440  0.0060  0.0461
 7689TIP3    H144558   5.040   1.959   2.613 -0.0826  0.3200 -0.2528
 7689TIP3    H244559   4.986   1.840   2.534  0.0696 -0.0090  0.1370
 7690TIP3   OH244560   0.459   6.449   1.244 -0.2074  0.5332  0.0698
 7690TIP3    H144561   0.507   6.420   1.166 -1.1720 -1.6891  0.2225
 7690TIP3    H244562   0.462   6.374   1.303 -1.3577  1.4074  1.2983
 7691TIP3   OH244563   1.018   2.034   3.167  0.4559  0.1254 -0.7106
 7691TIP3    H144564   0.992   2.110   3.219  1.0143 -0.5986  0.6826
 7691TIP3    H244565   1.046   2.071   3.084 -0.7644  1.2975 -0.6436
 7692TIP3   OH244566   0.740   3.695  12.890  0.0790 -0.2575 -0.2237
 7692TIP3    H144567   0.737   3.751  12.968  0.3090  1.2039 -1.2154
 7692TIP3    H244568   0.793   3.620  12.916  0.9091  0.6396  0.7509
 7693TIP3   OH244569   1.419   6.377   4.499 -0.0637  0.8257 -0.4233
 7693TIP3    H144570   1.363   6.317   4.449  2.0921  0.3084 -2.4109
 7693TIP3    H244571   1.363   6.452   4.519 -1.6489  0.0340 -1.6768
 7694TIP3   OH244572   2.296   0.486   2.249 -0.1008  0.1943 -0.3758
 7694TIP3    H144573   2.283   0.579   2.269  0.5424  0.3137 -0.4938
 7694TIP3    H244574   2.214   0.458   2.209 -1.4110 -0.0013  2.2274
 7695TIP3   OH244575   3.343   0.064   6.143 -0.6567 -0.0239 -0.0984
 7695TIP3    H144576   3.358   0.158   6.147 -1.4918  0.1641 -1.0193
 7695TIP3    H244577   3.318   0.047   6.052  1.7135 -1.4903 -0.5495
 7696TIP3   OH244578   2.101   4.527  13.582 -0.0127 -0.4722 -0.0625
 7696TIP3    H144579   2.067   4.569  13.503 -1.4198 -0.4967  0.5019
 7696TIP3    H244580   2.124   4.439  13.555 -1.8293 -0.9552 -0.1802
 7697TIP3   OH244581   2.602   0.064   3.076 -0.3292  0.2289 -0.1941
 7697TIP3    H144582   2.593   0.134   3.011  0.6913 -0.2617 -0.8764
 7697TIP3    H244583   2.684   0.020   3.054 -0.3916 -0.4862  0.9132
 7698TIP3   OH244584   2.778   1.866   3.430 -0.4030 -0.6394  0.1951
 7698TIP3    H144585   2.799   1.840   3.520 -0.7236  0.5455  0.6355
 7698TIP3    H244586   2.783   1.961   3.431 -1.8794 -0.5142 -0.6513
 7699TIP3   OH244587   3.015   4.515  12.554  0.3353 -0.0677  0.1320
 7699TIP3    H144588   2.967   4.525  12.636 -0.6937 -1.1066 -0.3099
 7699TIP3    H244589   3.057   4.429  12.562 -0.3343 -0.4848 -0.6945
 7700TIP3   OH244590   1.224   4.745   0.277  0.1998  0.3444 -0.3822
 7700TIP3    H144591   1.208   4.809   0.207 -1.2377  0.0546 -0.3511
 7700TIP3    H244592   1.233   4.797   0.356 -1.2606  0.5176 -0.3113
 7701TIP3   OH244593   5.977   3.780  16.683  0.3831 -0.0859  0.8268
 7701TIP3    H144594   5.941   3.795  16.595  0.4863  1.0540  0.9682
 7701TIP3    H244595   6.058   3.732  16.668  0.9357  1.0105  0.2116
 7702TIP3   OH244596   3.920   3.908  10.954  0.1313  0.1243 -0.6516
 7702TIP3    H144597   3.917   3.820  10.918  1.3850 -1.4791  2.7053
 7702TIP3    H244598   4.013   3.924  10.971 -0.3087  0.8722  1.3659
 7703TIP3   OH244599   1.097   1.762   0.862 -0.5719  0.1113 -0.3115
 7703TIP3    H144600   1.023   1.752   0.801 -0.9005  0.1348  0.0788
 7703TIP3    H244601   1.072   1.836   0.917  0.9920  2.0234 -1.9694
 7704TIP3   OH244602   5.344   1.271  11.153 -0.4426  0.0789 -0.4279
 7704TIP3    H144603   5.391   1.275  11.236  0.1918  1.1817 -0.8228
 7704TIP3    H244604   5.303   1.357  11.144 -2.2870 -0.7275 -0.2680
 7705TIP3   OH244605   3.690   1.487  11.977  0.1382  0.0375  0.2129
 7705TIP3    H144606   3.728   1.441  11.903 -0.6962  0.3130 -0.4011
 7705TIP3    H244607   3.759   1.487  12.044  0.1632 -2.0731  0.2386
 7706TIP3   OH244608   3.562   5.212   2.492 -0.9904  0.2962  0.0107
 7706TIP3    H144609   3.600   5.189   2.407 -0.8343  1.0090 -0.1251
 7706TIP3    H244610   3.622   5.177   2.557 -0.0191  1.4989 -0.2017
 7707TIP3   OH244611   3.662   6.590  10.944  0.0652  0.2066 -0.6090
 7707TIP3    H144612   3.726   6.582  10.873 -1.1838  0.3698 -1.7914
 7707TIP3    H244613   3.666   6.682  10.969 -0.2689  0.3922 -1.2271
 7708TIP3   OH244614   3.009   4.644  11.934  0.4844 -0.5123 -0.7862
 7708TIP3    H144615   2.944   4.714  11.920 -0.5422 -1.2879 -0.0737
 7708TIP3    H244616   3.057   4.639  11.851 -0.2149  0.2407 -1.2543
 7709TIP3   OH244617   2.170   1.959  12.808 -0.0188 -0.6736 -0.7253
 7709TIP3    H144618   2.125   1.894  12.754  2.1665 -0.5828 -2.8259
 7709TIP3    H244619   2.243   1.911  12.848  0.3043  0.0013 -0.4807
 7710TIP3   OH244620   2.650   0.605  10.501  0.3017 -0.4308 -0.2589
 7710TIP3    H144621   2.706   0.553  10.557 -0.7187  0.5650  1.7816
 7710TIP3    H244622   2.575   0.548  10.482  0.7782 -0.8645 -0.8803
 7711TIP3   OH244623   0.731   6.031  14.691 -0.1552  0.6165 -0.1605
 7711TIP3    H144624   0.703   6.057  14.603 -1.4977  0.0398  0.0845
 7711TIP3    H244625   0.737   5.935  14.687 -1.7556  0.4421  0.7835
 7712TIP3   OH244626   1.131   3.608   3.842 -0.2016 -0.4053  0.2843
 7712TIP3    H144627   1.225   3.624   3.846 -0.2894  0.0847  0.5031
 7712TIP3    H244628   1.105   3.639   3.755 -0.3316  0.4543  0.6190
 7713TIP3   OH244629   5.564   3.354   0.396 -0.1743  0.0412  0.2834
 7713TIP3    H144630   5.522   3.277   0.434 -0.1224 -1.3130 -2.2464
 7713TIP3    H244631   5.654   3.351   0.428  0.0211 -1.3745 -0.3570
 7714TIP3   OH244632   6.625   2.227  14.787  0.3829  1.1524 -0.2601
 7714TIP3    H144633   6.667   2.268  14.863  0.4684 -0.7295  0.7564
 7714TIP3    H244634   6.650   2.283  14.714  2.7995  1.3934  0.6401
 7715TIP3   OH244635   0.485   5.984  16.261 -0.1410 -0.7284  0.6760
 7715TIP3    H144636   0.415   5.925  16.235  0.3331 -0.8030 -0.4740
 7715TIP3    H244637   0.524   6.014  16.179  0.0749  0.6543  1.2483
 7716TIP3   OH244638   3.791   3.867  11.687 -0.2454  0.1905  0.7910
 7716TIP3    H144639   3.771   3.782  11.727  0.6337 -0.2401  0.3465
 7716TIP3    H244640   3.715   3.887  11.632 -0.3857 -0.3920  0.7673
 7717TIP3   OH244641   3.728   5.034   5.351  0.2465 -0.2315 -0.0334
 7717TIP3    H144642   3.649   5.087   5.342  0.6797  0.3761 -0.4416
 7717TIP3    H244643   3.754   5.045   5.443  0.8201  1.0308 -0.3121
 7718TIP3   OH244644   6.329   2.653   2.012  0.3827 -0.5738  0.6102
 7718TIP3    H144645   6.305   2.608   2.093 -0.3718  0.2931  0.8945
 7718TIP3    H244646   6.396   2.717   2.038  0.8496 -0.9614  0.3662
 7719TIP3   OH244647   2.892   5.087  15.263  0.2551  0.0186  0.2878
 7719TIP3    H144648   2.826   5.068  15.329 -1.3348  0.4551 -1.1170
 7719TIP3    H244649   2.917   5.002  15.228 -4.0859 -0.1279 -3.3566
 7720TIP3   OH244650   0.020   5.846  14.950 -0.2362 -0.0206  0.3516
 7720TIP3    H144651   0.093   5.805  14.996  0.0219  0.6356  0.5489
 7720TIP3    H244652   0.030   5.819  14.859 -0.9399 -1.5937  0.7209
 7721TIP3   OH244653   0.365   4.920  12.815  0.1283 -0.2322  0.1653
 7721TIP3    H144654   0.400   4.871  12.889 -0.2619 -0.9498 -0.1190
 7721TIP3    H244655   0.391   4.870  12.738 -0.2171  0.0415 -0.1354
 7722TIP3   OH244656   4.506   2.207   1.822  0.0554 -0.0044 -0.2062
 7722TIP3    H144657   4.595   2.173   1.830  0.6857  1.6856  0.6052
 7722TIP3    H244658   4.461   2.144   1.766  2.3461  0.1706 -2.4244
 7723TIP3   OH244659   1.410   3.174   2.510  0.1626  0.0616  0.1300
 7723TIP3    H144660   1.487   3.160   2.566  0.6111  2.0059  0.0887
 7723TIP3    H244661   1.442   3.228   2.438 -0.7412 -1.1630 -1.2555
 7724TIP3   OH244662   5.374   1.363  11.455  0.0568  0.2176 -0.0867
 7724TIP3    H144663   5.470   1.361  11.450  0.3592  0.9923  3.1652
 7724TIP3    H244664   5.349   1.272  11.471  0.2011 -0.0125 -1.1059
 7725TIP3   OH244665   3.708   2.588  11.584  0.1440  0.4130 -0.3726
 7725TIP3    H144666   3.635   2.570  11.643 -0.1148 -1.0049 -1.0981
 7725TIP3    H244667   3.782   2.606  11.642  0.1380 -1.9310  0.4474
 7726TIP3   OH244668   1.884   2.623   3.350 -0.4736  0.4156 -0.0634
 7726TIP3    H144669   1.948   2.604   3.281  0.5806 -1.4144  1.3463
 7726TIP3    H244670   1.803   2.640   3.302  0.5950  0.9071 -1.8140
 7727TIP3   OH244671   5.427   5.636   2.949  0.2249 -0.0412 -0.0311
 7727TIP3    H144672   5.495   5.573   2.929  0.9708  0.7781 -0.1425
 7727TIP3    H244673   5.467   5.697   3.012 -0.2855  0.6442 -0.3509
 7728TIP3   OH244674   4.137   1.699  11.778 -0.2806 -0.4323 -0.6913
 7728TIP3    H144675   4.116   1.707  11.685  3.3911  1.5518 -1.5343
 7728TIP3    H244676   4.220   1.652  11.780 -1.1708 -2.1168  1.8158
 7729TIP3   OH244677   1.553   3.243   4.991 -0.0961  0.1766  0.3548
 7729TIP3    H144678   1.533   3.197   4.910 -0.1732  0.1508  0.3892
 7729TIP3    H244679   1.468   3.266   5.029 -0.1052 -1.3003  1.2911
 7730TIP3   OH244680   0.600   6.032  14.922 -0.1699  0.8513  0.2311
 7730TIP3    H144681   0.650   5.988  14.991  0.4495 -0.0284 -0.7459
 7730TIP3    H244682   0.662   6.040  14.849 -1.1527  0.6950 -0.6380
 7731TIP3   OH244683   6.221   5.418   2.594 -0.5589  0.1595 -0.2778
 7731TIP3    H144684   6.286   5.466   2.645  1.1173 -3.2044  1.0837
 7731TIP3    H244685   6.140   5.426   2.644  0.0195  0.4967  0.6271
 7732TIP3   OH244686   2.952   1.514   3.706  0.3817 -0.0674  0.6385
 7732TIP3    H144687   2.997   1.531   3.789 -0.1517  1.1985  0.6748
 7732TIP3    H244688   2.873   1.467   3.731 -0.3496  1.2982  0.9816
 7733TIP3   OH244689   2.893   0.888   1.644 -0.3130 -0.1365  0.1102
 7733TIP3    H144690   2.971   0.942   1.640 -1.2320  1.1894 -1.2569
 7733TIP3    H244691   2.907   0.820   1.577  0.6391 -1.3770  1.5056
 7734TIP3   OH244692   3.179   3.014   1.850  0.4699 -0.0332  0.1839
 7734TIP3    H144693   3.233   3.048   1.779  1.5838 -2.0158 -0.0022
 7734TIP3    H244694   3.141   2.933   1.814 -0.1256 -0.2963  1.3601
 7735TIP3   OH244695   5.459   2.318   3.299  0.4429 -0.0465 -0.2957
 7735TIP3    H144696   5.554   2.320   3.307  0.3415  0.7748  0.9762
 7735TIP3    H244697   5.428   2.300   3.388 -0.6155  0.7000 -0.5001
 7736TIP3   OH244698   2.326   0.833   0.725 -0.4661  0.0316 -0.4768
 7736TIP3    H144699   2.422   0.832   0.731 -0.4235 -0.2364 -1.1386
 7736TIP3    H244700   2.297   0.790   0.806 -0.0612  0.9201  0.1668
 7737TIP3   OH244701   2.410   6.725  11.592  0.5877  0.6331  0.5920
 7737TIP3    H144702   2.407   6.755  11.683  1.4890  0.9100  0.5385
 7737TIP3    H244703   2.496   6.753  11.560 -0.1078  1.4340 -0.6657
 7738TIP3   OH244704   0.526   4.249   4.087 -0.5492  0.0280 -0.3161
 7738TIP3    H144705   0.443   4.292   4.064 -1.3243 -1.4819 -0.4478
 7738TIP3    H244706   0.504   4.157   4.097  0.5593 -0.0484  2.4649
 7739TIP3   OH244707   5.890   5.484   4.546  0.4908 -0.5615  0.0005
 7739TIP3    H144708   5.837   5.429   4.487  1.4854 -0.3044 -1.1832
 7739TIP3    H244709   5.953   5.423   4.584  0.9163 -0.4486 -0.5040
 7740TIP3   OH244710   6.591   1.589  16.876  0.7427 -0.0545  0.4154
 7740TIP3    H144711   6.647   1.566  16.801 -0.9994  0.4827 -1.1251
 7740TIP3    H244712   6.609   1.681  16.891  0.9696 -0.1203  0.5552
 7741TIP3   OH244713   3.516   1.443   1.332  0.3710  0.1354  0.6069
 7741TIP3    H144714   3.599   1.490   1.321 -0.0539  0.3852 -1.9980
 7741TIP3    H244715   3.490   1.418   1.244 -2.5466  0.3950  1.2966
 7742TIP3   OH244716   4.123   3.204   3.919  0.6731 -0.7432  0.4254
 7742TIP3    H144717   4.105   3.291   3.883  1.5133 -0.6045  0.3238
 7742TIP3    H244718   4.200   3.174   3.871  1.6579 -0.6739  1.9138
 7743TIP3   OH244719   1.144   2.181  10.701 -0.4862 -0.4137 -0.2700
 7743TIP3    H144720   1.145   2.173  10.606 -0.8003  0.1063 -0.3259
 7743TIP3    H244721   1.235   2.198  10.725 -0.0102 -2.6898 -0.2530
 7744TIP3   OH244722   3.304   1.397   4.046  1.0855  0.6358 -0.3573
 7744TIP3    H144723   3.269   1.325   3.992 -0.1536  2.2235 -1.7933
 7744TIP3    H244724   3.267   1.382   4.133  0.8996 -0.4718 -0.6079
 7745TIP3   OH244725   1.327   2.144   2.024 -0.6295  0.1025  0.1311
 7745TIP3    H144726   1.371   2.123   1.941  0.5167  0.5476  0.5977
 7745TIP3    H244727   1.241   2.177   1.998 -0.9625 -1.4022 -0.7905
 7746TIP3   OH244728   1.756   5.718   5.055  0.9199  0.1515  0.4392
 7746TIP3    H144729   1.730   5.665   5.130 -0.3241 -1.0235 -0.7627
 7746TIP3    H244730   1.676   5.763   5.028  0.6139 -1.4759 -1.7062
 7747TIP3   OH244731   1.606   1.941   1.600 -0.1816  0.3847 -0.3369
 7747TIP3    H144732   1.701   1.945   1.596  0.0499 -1.2043  1.7293
 7747TIP3    H244733   1.588   1.883   1.674 -2.7769  1.6146  0.0913
 7748TIP3   OH244734   6.066   1.549   1.375  0.4905 -0.3049 -0.5260
 7748TIP3    H144735   5.999   1.511   1.319  0.2677 -0.1230 -0.3811
 7748TIP3    H244736   6.029   1.545   1.463 -0.7824  2.8782 -0.7955
 7749TIP3   OH244737   0.125   4.781   0.535  0.2469 -0.0224  0.0989
 7749TIP3    H144738   0.198   4.737   0.580  0.2755 -0.0673  0.0083
 7749TIP3    H244739   0.145   4.771   0.442 -0.1098 -0.4307  0.0647
 7750TIP3   OH244740   6.290   6.541  12.996 -0.6085 -0.0232  0.0410
 7750TIP3    H144741   6.338   6.463  13.025 -0.6318  0.0683  0.3284
 7750TIP3    H244742   6.249   6.514  12.913  1.3991  0.4667 -1.1711
 7751TIP3   OH244743   2.118   4.288   3.768  0.1986  0.4799 -0.2495
 7751TIP3    H144744   2.082   4.231   3.835 -1.5312 -0.7647 -2.1211
 7751TIP3    H244745   2.048   4.352   3.750  0.9564  1.3238 -0.2949
 7752TIP3   OH244746   1.195   2.570   2.492 -0.0131 -0.2293  0.0432
 7752TIP3    H144747   1.187   2.488   2.541 -0.8350 -0.7568 -0.9470
 7752TIP3    H244748   1.121   2.570   2.432 -0.5514  1.6896  0.6474
 7753TIP3   OH244749   4.714   0.364   4.067  0.1890 -0.2868  0.2692
 7753TIP3    H144750   4.767   0.443   4.055 -0.5168 -0.1130 -2.0977
 7753TIP3    H244751   4.631   0.396   4.103  0.2061 -0.0588  0.1070
 7754TIP3   OH244752   2.021   0.267   1.598  0.1726  0.2832  0.0310
 7754TIP3    H144753   1.951   0.298   1.541 -0.4491 -1.9548 -0.5103
 7754TIP3    H244754   1.990   0.184   1.633  1.8251  0.1038  1.2347
 7755TIP3   OH244755   6.414   4.902   1.860  0.4312 -0.0028 -0.2045
 7755TIP3    H144756   6.319   4.891   1.862  0.4213 -0.3903 -1.5377
 7755TIP3    H244757   6.448   4.829   1.912  0.0041 -0.2666 -0.2887
 7756TIP3   OH244758   1.070   4.856   2.853  0.1830 -0.1539  0.8701
 7756TIP3    H144759   1.079   4.928   2.916  1.5535 -0.1252  0.6877
 7756TIP3    H244760   1.159   4.819   2.847 -0.2993 -1.2573  0.2512
 7757TIP3   OH244761   6.881   5.773  16.195 -0.1943  0.5222  0.2517
 7757TIP3    H144762   6.814   5.709  16.171  0.6727  0.2742 -1.7443
 7757TIP3    H244763   6.832   5.845  16.234 -1.5613  0.0563 -0.5138
 7758TIP3   OH244764   4.926   4.195  12.985  0.2630 -0.2050 -0.3683
 7758TIP3    H144765   4.887   4.250  12.918 -0.1697 -1.6614 -1.3393
 7758TIP3    H244766   4.856   4.136  13.012  0.7064 -0.2713  0.6860
 7759TIP3   OH244767   5.377   6.142   3.046  0.1308 -0.0102 -0.3749
 7759TIP3    H144768   5.415   6.055   3.050 -1.0489 -0.4930  2.0193
 7759TIP3    H244769   5.294   6.135   3.092 -1.2509  1.8196 -2.3624
 7760TIP3   OH244770   2.899   5.856   5.333  0.1621  0.2545  0.4116
 7760TIP3    H144771   2.915   5.948   5.312  1.7648 -0.4116 -1.5371
 7760TIP3    H244772   2.970   5.833   5.393  1.1160 -0.2644 -0.8798
 7761TIP3   OH244773   6.435   5.597  15.533  0.4018 -0.2213  0.4724
 7761TIP3    H144774   6.348   5.612  15.568  1.2290 -1.2861  3.2320
 7761TIP3    H244775   6.494   5.643  15.592  1.8161 -0.7996 -0.4151
 7762TIP3   OH244776   5.231   6.869  13.366  0.1150  0.1889  0.6866
 7762TIP3    H144777   5.272   6.906  13.288 -1.6975  1.9478  0.4663
 7762TIP3    H244778   5.249   6.776  13.362  0.1736  0.2613 -1.7737
 7763TIP3   OH244779   6.641   4.322   4.696  0.8038 -0.1610  0.4092
 7763TIP3    H144780   6.658   4.263   4.622 -1.1718 -1.2454  0.7528
 7763TIP3    H244781   6.672   4.273   4.773  2.1408  0.6486  0.4324
 7764TIP3   OH244782   4.360   3.750   2.207 -0.2113 -0.0448 -0.3707
 7764TIP3    H144783   4.313   3.764   2.125 -0.3638  2.3153  0.0494
 7764TIP3    H244784   4.345   3.831   2.257  0.6190 -1.0525  1.6141
 7765TIP3   OH244785   3.363   6.415  15.828 -0.3895  0.6073  0.1851
 7765TIP3    H144786   3.349   6.320  15.832  1.2459  0.3691  1.4331
 7765TIP3    H244787   3.364   6.436  15.735 -1.8520 -0.4017 -0.0934
 7766TIP3   OH244788   5.535   5.394   2.928 -0.0983  0.1818  0.0275
 7766TIP3    H144789   5.558   5.385   2.835 -1.1512  1.3563 -0.3623
 7766TIP3    H244790   5.595   5.334   2.973  1.1884  0.4160 -1.2991
 7767TIP3   OH244791   0.746   2.920   5.311  0.0443  0.2703  0.3368
 7767TIP3    H144792   0.827   2.878   5.281  0.2197 -0.5946  1.8793
 7767TIP3    H244793   0.676   2.874   5.265  0.3613 -0.2105  0.3232
 7768TIP3   OH244794   6.877   5.598  15.534 -0.1800  0.5772 -0.1325
 7768TIP3    H144795   6.897   5.691  15.519  0.3404  0.5834  0.6018
 7768TIP3    H244796   6.962   5.556  15.547 -0.3778 -0.0953 -0.8948
 7769TIP3   OH244797   6.872   0.071   0.295  0.1841 -0.0032  0.2366
 7769TIP3    H144798   6.777   0.076   0.299  0.1139  1.7086 -1.9180
 7769TIP3    H244799   6.903   0.147   0.344  0.5141 -0.8292  1.3693
 7770TIP3   OH244800   3.858   5.938  11.100 -0.3481  0.8776  0.3290
 7770TIP3    H144801   3.818   5.861  11.139 -2.0852  1.5486 -0.0460
 7770TIP3    H244802   3.788   6.002  11.094  0.1096  1.2658 -2.6764
 7771TIP3   OH244803   5.061   2.411  16.163 -0.7946 -0.0143  0.8208
 7771TIP3    H144804   4.998   2.386  16.231 -1.0591 -0.5234  0.3987
 7771TIP3    H244805   5.127   2.463  16.209 -0.6701 -0.8229  1.5739
 7772TIP3   OH244806   5.994   5.031   3.310 -0.1749  0.4708 -0.3784
 7772TIP3    H144807   5.906   5.003   3.334 -0.0715  0.8500  0.4592
 7772TIP3    H244808   6.012   4.986   3.227 -0.7687 -0.3785 -0.0539
 7773TIP3   OH244809   4.944   3.896   1.065  0.8155 -0.4648  0.4635
 7773TIP3    H144810   4.985   3.908   1.151  1.2037 -3.0038  0.7177
 7773TIP3    H244811   5.014   3.915   1.002  0.1557  2.7874  0.5661
 7774TIP3   OH244812   3.752   0.845   1.628 -0.6039  1.0380  0.0656
 7774TIP3    H144813   3.755   0.911   1.559 -0.7811 -0.0084 -0.9631
 7774TIP3    H244814   3.661   0.817   1.631 -0.3495  0.1264 -0.2191
 7775TIP3   OH244815   3.231   4.619   3.126 -0.1190  0.0091 -0.3120
 7775TIP3    H144816   3.292   4.545   3.129  0.1183  0.1890 -0.6819
 7775TIP3    H244817   3.253   4.666   3.045 -0.1068  0.6289  0.0490
 7776TIP3   OH244818   2.333   5.403   0.237 -0.2697  0.6067  0.0678
 7776TIP3    H144819   2.332   5.324   0.183 -1.8145 -0.3309  1.3944
 7776TIP3    H244820   2.425   5.430   0.239  0.2816 -1.1453 -0.4212
 7777TIP3   OH244821   6.420   5.539  13.845  0.3853 -0.1161  0.8041
 7777TIP3    H144822   6.501   5.590  13.849  0.9177 -0.9608  1.3284
 7777TIP3    H244823   6.450   5.448  13.835 -0.5188 -0.3782  0.3889
 7778TIP3   OH244824   4.551   0.279   1.732  0.2922  0.6337 -0.2755
 7778TIP3    H144825   4.468   0.325   1.750  0.8763  1.3106  0.7998
 7778TIP3    H244826   4.565   0.224   1.809  1.3634  1.3331  0.0547
 7779TIP3   OH244827   4.431   3.341   5.938  0.6609 -0.5201 -0.2176
 7779TIP3    H144828   4.500   3.376   5.995  0.3040  0.0051 -0.0966
 7779TIP3    H244829   4.459   3.252   5.918  2.4317  0.3104 -1.8154
 7780TIP3   OH244830   6.185   0.677  11.501 -0.0158 -0.1915 -0.4299
 7780TIP3    H144831   6.133   0.753  11.526 -1.3969 -1.5813  1.2035
 7780TIP3    H244832   6.141   0.643  11.422 -0.3346 -0.1686 -0.2650
 7781TIP3   OH244833   2.996   1.440   2.038  0.3343 -0.1523  0.3356
 7781TIP3    H144834   3.012   1.478   1.952 -0.8259 -1.4662 -0.5058
 7781TIP3    H244835   3.037   1.353   2.034  1.6203  0.3534  1.6829
 7782TIP3   OH244836   4.137   5.016  14.407 -0.3040 -0.7326  0.1114
 7782TIP3    H144837   4.197   5.088  14.388  0.1750 -1.5796 -1.8647
 7782TIP3    H244838   4.175   4.972  14.482 -0.2168  0.6329  0.8935
 7783TIP3   OH244839   3.987   6.843  14.254 -0.3397 -0.9751 -0.6801
 7783TIP3    H144840   4.050   6.903  14.294  0.1370 -0.2894 -2.3817
 7783TIP3    H244841   3.910   6.848  14.311  0.5051 -0.4980  0.4647
 7784TIP3   OH244842   5.649   6.691   0.841 -0.2917 -0.5249  0.1883
 7784TIP3    H144843   5.572   6.709   0.896 -0.0082 -0.1429  0.4650
 7784TIP3    H244844   5.671   6.600   0.858 -0.6313 -0.6126  0.1698
 7785TIP3   OH244845   5.071   3.166  13.804  0.9845 -0.1332 -0.5071
 7785TIP3    H144846   5.057   3.260  13.809 -1.3755 -0.4845  0.7342
 7785TIP3    H244847   5.134   3.147  13.874 -0.7804  0.2159  1.2631
 7786TIP3   OH244848   1.886   5.031   5.981  0.6890  0.1890  0.0039
 7786TIP3    H144849   1.820   5.099   5.997  0.9467  0.2244  0.9893
 7786TIP3    H244850   1.950   5.072   5.924  0.0905  0.3023 -0.5888
 7787TIP3   OH244851   5.827   1.986  13.823 -0.3481  0.0907 -0.3602
 7787TIP3    H144852   5.732   1.991  13.827 -0.5112 -2.2203  0.1221
 7787TIP3    H244853   5.845   1.912  13.765  1.1565  0.5711 -0.5571
 7788TIP3   OH244854   4.052   5.953  11.821 -0.2159 -0.1003 -0.3737
 7788TIP3    H144855   4.030   5.867  11.857  1.5849 -0.1479  0.7685
 7788TIP3    H244856   4.088   5.934  11.734 -0.3162 -0.4508 -0.3403
 7789TIP3   OH244857   4.622   2.116   1.130  0.6324  0.3526 -0.0344
 7789TIP3    H144858   4.629   2.202   1.089  1.4624 -0.4183 -1.5845
 7789TIP3    H244859   4.702   2.069   1.103 -1.5662 -2.2936 -2.6338
 7790TIP3   OH244860   4.486   4.381  12.335  0.1344 -0.7981  0.0400
 7790TIP3    H144861   4.470   4.467  12.374  0.2594 -0.3119 -0.9504
 7790TIP3    H244862   4.549   4.339  12.393  1.6687  0.5920 -0.5500
 7791TIP3   OH244863   5.181   1.672  15.277  0.2577 -0.1746 -0.5665
 7791TIP3    H144864   5.122   1.719  15.219 -0.7643 -1.8447 -0.9207
 7791TIP3    H244865   5.237   1.621  15.219  0.8507 -0.0160 -0.1519
 7792TIP3   OH244866   2.673   2.960   1.221  0.2827 -0.3603 -0.5726
 7792TIP3    H144867   2.646   3.010   1.297 -1.6322 -2.4237  0.1934
 7792TIP3    H244868   2.632   3.005   1.147  0.6540  0.6040 -0.2108
 7793TIP3   OH244869   0.893   2.929   0.935 -0.2827 -0.2707 -0.1699
 7793TIP3    H144870   0.916   2.865   0.868 -3.7199  0.2077 -2.0198
 7793TIP3    H244871   0.897   2.879   1.017  2.3443 -1.3302 -0.8378
 7794TIP3   OH244872   6.526   4.075   3.564  0.5595 -0.6835  0.0308
 7794TIP3    H144873   6.566   4.134   3.499  0.2784  1.4378  1.6817
 7794TIP3    H244874   6.547   4.115   3.648  0.5930 -3.1546  1.2914
 7795TIP3   OH244875   0.319   3.890   3.038  0.0360 -0.0303  0.0734
 7795TIP3    H144876   0.324   3.828   2.965 -0.6889 -1.3217  1.1060
 7795TIP3    H244877   0.406   3.887   3.077  0.1815  0.0612 -0.2361
 7796TIP3   OH244878   2.612   3.684   6.487 -0.9518 -0.2245  0.0177
 7796TIP3    H144879   2.642   3.721   6.570 -2.0423  1.9407 -0.4811
 7796TIP3    H244880   2.519   3.667   6.500 -1.0662 -0.1465 -0.6484
 7797TIP3   OH244881   5.104   5.059   4.683  0.1121 -0.2067  0.2540
 7797TIP3    H144882   5.039   5.048   4.753  1.0419  0.7263  1.3006
 7797TIP3    H244883   5.186   5.030   4.723  1.2714  3.2243  0.6720
 7798TIP3   OH244884   6.225   2.717   1.604  0.4515  0.1475 -0.1653
 7798TIP3    H144885   6.275   2.756   1.533  0.5247 -2.2028 -1.4743
 7798TIP3    H244886   6.291   2.681   1.663  0.3549 -0.3336 -0.3484
 7799TIP3   OH244887   3.738   1.730  16.118  0.0739  0.3441  0.2043
 7799TIP3    H144888   3.742   1.766  16.029  2.3509 -0.6384 -0.1363
 7799TIP3    H244889   3.745   1.636  16.106  2.6109  0.3034  1.4859
 7800TIP3   OH244890   0.625   1.111  14.745  0.3912 -0.1151 -0.0360
 7800TIP3    H144891   0.616   1.191  14.796 -1.7772 -0.0140 -0.4641
 7800TIP3    H244892   0.593   1.134  14.658  1.7858 -0.9068 -0.7978
 7801TIP3   OH244893   1.526   6.155  13.055  0.2444  0.5657  1.2079
 7801TIP3    H144894   1.544   6.163  13.149  0.5343  0.3806  1.1688
 7801TIP3    H244895   1.498   6.243  13.029  1.7583  1.0626  1.1282
 7802TIP3   OH244896   5.517   4.956  13.311 -0.0187 -0.8754 -0.5771
 7802TIP3    H144897   5.603   4.961  13.352 -0.5666 -0.2749  0.5503
 7802TIP3    H244898   5.504   4.863  13.292  0.3521 -1.1319  0.4042
 7803TIP3   OH244899   2.756   6.680   1.038 -0.0351  0.8687  0.0055
 7803TIP3    H144900   2.663   6.697   1.049 -0.3940 -0.3879 -0.9670
 7803TIP3    H244901   2.796   6.768   1.036 -0.8841  1.3827  2.6137
 7804TIP3   OH244902   0.394   6.632  16.628  0.5006 -0.1989 -0.4441
 7804TIP3    H144903   0.330   6.666  16.565  1.6845  1.0462 -1.0374
 7804TIP3    H244904   0.479   6.654  16.589  1.2724  0.8220  1.6670
 7805TIP3   OH244905   1.042   6.865   1.878  0.0082  0.6594  0.5778
 7805TIP3    H144906   1.136   6.851   1.868  0.0140  1.0728  0.0254
 7805TIP3    H244907   1.002   6.790   1.834  0.0715  1.1043 -0.2674
 7806TIP3   OH244908   5.764   2.985  12.088  0.2487  1.0428 -0.0744
 7806TIP3    H144909   5.822   2.914  12.114 -0.1801  0.2234 -1.2310
 7806TIP3    H244910   5.742   3.029  12.170 -0.5050 -0.9669  0.8904
 7807TIP3   OH244911   6.435   6.313  13.042  0.3664  0.3943 -0.4376
 7807TIP3    H144912   6.471   6.229  13.072  0.5454  0.5500 -0.2164
 7807TIP3    H244913   6.509   6.358  13.003  1.4558  2.3339  3.3371
 7808TIP3   OH244914   6.558   1.361  12.960 -0.1628  0.1828 -0.1519
 7808TIP3    H144915   6.616   1.321  12.895  0.5844 -1.0342  1.2015
 7808TIP3    H244916   6.612   1.370  13.038 -1.2056  1.0600  0.4959
 7809TIP3   OH244917   0.730   2.436  12.505  0.0689 -0.0343 -0.4740
 7809TIP3    H144918   0.781   2.481  12.572  0.6640  0.8225 -1.4729
 7809TIP3    H244919   0.697   2.358  12.549  2.3050 -0.6725  0.2051
 7810TIP3   OH244920   2.765   5.854   3.873  0.3999 -0.3637 -0.5137
 7810TIP3    H144921   2.712   5.925   3.909 -0.1869 -0.9939 -0.1235
 7810TIP3    H244922   2.734   5.776   3.917  1.6171 -0.7610 -0.3220
 7811TIP3   OH244923   2.682   3.474  13.065  0.4779  0.2109  0.3116
 7811TIP3    H144924   2.595   3.492  13.100  0.2526 -1.3696  0.6467
 7811TIP3    H244925   2.719   3.560  13.047  0.2328  1.0909  3.4912
 7812TIP3   OH244926   1.550   1.280   5.867 -0.3145  0.1338  0.3055
 7812TIP3    H144927   1.490   1.349   5.838 -0.7657  0.4247  1.8114
 7812TIP3    H244928   1.630   1.327   5.889 -1.0246  0.4310  2.5320
 7813TIP3   OH244929   6.510   1.151   4.088 -0.8498 -0.6371  0.0025
 7813TIP3    H144930   6.517   1.074   4.144 -1.8778 -1.8249 -1.4214
 7813TIP3    H244931   6.427   1.138   4.040 -1.5050  1.8004  0.3753
 7814TIP3   OH244932   4.928   0.732   3.442  0.0741 -0.2117  0.0230
 7814TIP3    H144933   4.908   0.815   3.398 -0.2393 -1.1408 -1.6724
 7814TIP3    H244934   4.943   0.670   3.371 -0.2657 -1.7541  1.2419
 7815TIP3   OH244935   4.933   3.165   0.899  0.4149  0.2905 -0.5275
 7815TIP3    H144936   4.839   3.178   0.893  0.0359 -2.4186 -2.3038
 7815TIP3    H244937   4.968   3.196   0.816  1.5434  3.5151  0.9963
 7816TIP3   OH244938   1.578   5.339   2.533  0.4268  0.5053 -0.0934
 7816TIP3    H144939   1.640   5.294   2.590  2.8189  0.9044 -2.2094
 7816TIP3    H244940   1.588   5.432   2.556  0.9916  0.6140 -0.7555
 7817TIP3   OH244941   2.561   2.831  12.895  0.1110  0.0409 -0.1903
 7817TIP3    H144942   2.599   2.899  12.950  1.1853 -0.8646  0.2342
 7817TIP3    H244943   2.486   2.799  12.945 -0.1345  0.5978 -0.1940
 7818TIP3   OH244944   5.178   6.750  15.285 -0.0645  0.0630  0.1445
 7818TIP3    H144945   5.153   6.840  15.266  0.6411 -0.1887 -2.3417
 7818TIP3    H244946   5.127   6.727  15.363 -1.6361  2.0107 -0.2153
 7819TIP3   OH244947   0.264   3.733  13.599 -0.6144 -0.6784  0.1361
 7819TIP3    H144948   0.177   3.760  13.627 -0.0877  2.5138 -0.9501
 7819TIP3    H244949   0.256   3.725  13.503  0.5271  0.8550 -0.1142
 7820TIP3   OH244950   3.778   4.355  12.400  0.0619 -0.4013  0.2715
 7820TIP3    H144951   3.705   4.349  12.461  1.0702  1.7525  1.8182
 7820TIP3    H244952   3.854   4.325  12.450  1.0682  2.2694  0.5556
 7821TIP3   OH244953   3.585   6.781  13.696 -0.1454  0.0283  0.1309
 7821TIP3    H144954   3.571   6.693  13.731  1.8910 -0.5125 -0.2945
 7821TIP3    H244955   3.530   6.837  13.751 -1.1449 -1.4267  0.7065
 7822TIP3   OH244956   3.609   5.321  13.718 -0.1170 -0.4068 -0.3671
 7822TIP3    H144957   3.593   5.261  13.645  1.2392 -0.7657 -0.4062
 7822TIP3    H244958   3.700   5.303  13.743 -0.1458  0.6542  0.5407
 7823TIP3   OH244959   6.765   3.213   5.054  0.1116  0.6131  0.0861
 7823TIP3    H144960   6.795   3.214   4.963 -0.6683  1.9306 -0.1788
 7823TIP3    H244961   6.775   3.122   5.081 -0.7005 -0.0600 -1.6946
 7824TIP3   OH244962   2.137   3.064  15.466 -0.2462 -0.3750 -0.2569
 7824TIP3    H144963   2.220   3.038  15.504 -0.1870 -1.4235 -1.0636
 7824TIP3    H244964   2.150   3.156  15.440  1.0135 -0.8166 -1.2928
 7825TIP3   OH244965   4.854   4.981   0.156 -0.7811 -0.3238  0.5726
 7825TIP3    H144966   4.821   4.894   0.178  0.2144 -1.5588 -2.2794
 7825TIP3    H244967   4.789   5.017   0.095 -0.4447  0.3223  0.5840
 7826TIP3   OH244968   3.297   1.097  15.733  0.2631 -0.5228 -0.5457
 7826TIP3    H144969   3.218   1.079  15.681  0.5163  0.2200 -1.2043
 7826TIP3    H244970   3.369   1.093  15.670  0.2995  3.5336 -1.0293
 7827TIP3   OH244971   4.591   1.628  16.550  0.0195  0.0409 -0.4982
 7827TIP3    H144972   4.534   1.552  16.562  0.0995 -0.2435 -1.7569
 7827TIP3    H244973   4.574   1.683  16.626  0.3622 -1.4851  0.7331
 7828TIP3   OH244974   6.033   5.902  12.947 -0.4012 -0.2043  0.0693
 7828TIP3    H144975   5.990   5.986  12.934 -1.0013 -0.4267  0.5710
 7828TIP3    H244976   5.986   5.862  13.020 -1.0647 -1.5862 -1.0818
 7829TIP3   OH244977   4.507   2.428  13.428 -0.4575 -0.3723  0.1125
 7829TIP3    H144978   4.574   2.483  13.467 -0.0509 -1.7232  1.4263
 7829TIP3    H244979   4.537   2.338  13.444  0.0389 -1.1117 -3.8443
 7830TIP3   OH244980   3.372   4.502  11.969  0.2154  0.1439  0.5785
 7830TIP3    H144981   3.325   4.584  11.988  0.6518  0.4499  0.3711
 7830TIP3    H244982   3.304   4.439  11.949 -0.1448  0.3737  1.0799
 7831TIP3   OH244983   5.107   0.130  16.920 -0.3019 -0.2143 -0.0736
 7831TIP3    H144984   5.084   0.220  16.895  1.5815  0.8781  1.8006
 7831TIP3    H244985   5.185   0.110  16.868  1.8705  0.9750  2.4617
 7832TIP3   OH244986   6.632   6.345   2.901  0.3643 -0.1519  0.5659
 7832TIP3    H144987   6.577   6.416   2.933  0.1142 -0.3943  0.6800
 7832TIP3    H244988   6.593   6.266   2.939  0.4195 -0.3850  0.1482
 7833TIP3   OH244989   4.137   1.191   5.522  0.0582 -0.3390  0.2255
 7833TIP3    H144990   4.200   1.249   5.564  0.1711 -0.0133 -0.3694
 7833TIP3    H244991   4.115   1.236   5.440 -0.3713 -0.8133  0.0736
 7834TIP3   OH244992   4.072   0.093   1.651  0.4022 -0.2268 -0.0296
 7834TIP3    H144993   4.133   0.151   1.606  1.2663 -2.0979 -1.4043
 7834TIP3    H244994   3.994   0.146   1.665  1.0975  1.2141 -1.3682
 7835TIP3   OH244995   5.262   5.078  15.089 -0.0171  0.7885  0.4241
 7835TIP3    H144996   5.342   5.108  15.133 -0.2983  2.6254 -0.2138
 7835TIP3    H244997   5.210   5.038  15.158  0.8378  0.8952  1.1461
 7836TIP3   OH244998   4.584   3.829   1.985 -0.1249  0.3164 -0.2359
 7836TIP3    H144999   4.490   3.835   2.001 -0.0509 -0.9876  0.8697
 7836TIP3    H245000   4.594   3.757   1.924  0.0816  1.3893 -1.5216
 7837TIP3   OH245001   2.207   2.889  14.040  0.3784 -0.4025 -0.0444
 7837TIP3    H145002   2.259   2.924  14.112 -1.3938  1.0523  0.6120
 7837TIP3    H245003   2.205   2.959  13.975 -0.8275 -0.3673  0.0044
 7838TIP3   OH245004   6.202   2.820  12.109 -0.2560  0.2249 -0.1880
 7838TIP3    H145005   6.243   2.905  12.094  1.7777 -0.5930  0.4275
 7838TIP3    H245006   6.214   2.772  12.026  3.2440 -1.2074  0.9567
 7839TIP3   OH245007   1.250   0.624  11.772 -0.7190 -0.2170 -0.0319
 7839TIP3    H145008   1.161   0.592  11.787 -0.4025 -1.1420 -0.0604
 7839TIP3    H245009   1.302   0.545  11.759  0.5963  0.1082  2.4688
 7840TIP3   OH245010   3.335   6.306   6.071  0.3249 -0.0090  0.3357
 7840TIP3    H145011   3.283   6.253   6.131 -0.7201  1.1892  0.5338
 7840TIP3    H245012   3.382   6.367   6.127  1.0815 -0.3441  0.0760
 7841TIP3   OH245013   1.228   0.895   4.535  0.2175 -0.1313 -0.4274
 7841TIP3    H145014   1.140   0.899   4.497  0.2563  0.3531 -0.4707
 7841TIP3    H245015   1.218   0.934   4.622  0.8996  2.3680 -1.3984
 7842TIP3   OH245016   5.262   6.413  11.437  0.1679  0.5961 -0.7013
 7842TIP3    H145017   5.326   6.460  11.383  0.8907 -0.1609 -0.5179
 7842TIP3    H245018   5.256   6.465  11.518  1.4865  0.0162 -0.2135
 7843TIP3   OH245019   5.336   5.419  13.283 -0.2353  0.1848 -0.3065
 7843TIP3    H145020   5.260   5.362  13.299 -0.7569  0.9256 -0.0611
 7843TIP3    H245021   5.340   5.475  13.361  0.4456  0.2817 -0.4106
 7844TIP3   OH245022   2.166   0.639  16.623  0.6091  0.7653 -0.0653
 7844TIP3    H145023   2.218   0.621  16.544 -1.0153 -0.9243 -0.8273
 7844TIP3    H245024   2.120   0.720  16.602  0.8247  0.7816 -0.5020
 7845TIP3   OH245025   0.265   3.533  15.183 -0.6119  0.2561 -0.7472
 7845TIP3    H145026   0.212   3.583  15.245  0.8328  1.1676 -0.2000
 7845TIP3    H245027   0.285   3.596  15.113  0.1659  0.0933 -0.6815
 7846TIP3   OH245028   4.055   5.861   5.777 -0.1586  0.5872  0.1135
 7846TIP3    H145029   3.993   5.801   5.736 -0.7225  1.7683 -0.8179
 7846TIP3    H245030   4.065   5.932   5.714  0.4983  1.4790  1.1852
 7847TIP3   OH245031   5.125   4.196   5.242  0.2387 -0.3038  0.1076
 7847TIP3    H145032   5.217   4.181   5.265 -0.3722 -3.1005  1.1112
 7847TIP3    H245033   5.103   4.279   5.285  1.9620 -0.1856  0.8534
 7848TIP3   OH245034   0.170   6.134  12.171 -0.2243  0.0271 -0.2831
 7848TIP3    H145035   0.133   6.110  12.256 -0.4728  0.5918 -0.2271
 7848TIP3    H245036   0.264   6.122  12.181 -0.2465  0.1556  0.0972
 7849TIP3   OH245037   4.106   3.841  12.033  0.0025  0.0042 -0.1378
 7849TIP3    H145038   4.066   3.910  11.980 -0.1266 -2.1627 -3.1047
 7849TIP3    H245039   4.200   3.850  12.016  0.0233 -0.2436 -0.1492
 7850TIP3   OH245040   3.507   0.135   3.111 -0.6483 -0.2906  0.3987
 7850TIP3    H145041   3.511   0.095   3.198 -0.4481  0.0500  0.5463
 7850TIP3    H245042   3.435   0.198   3.117 -0.0159  0.4200  0.6068
 7851TIP3   OH245043   2.618   2.405   2.148 -0.2723  0.0312  0.0777
 7851TIP3    H145044   2.561   2.347   2.097  0.9314 -0.3409 -0.8982
 7851TIP3    H245045   2.685   2.347   2.185 -0.4239  0.4764  1.0763
 7852TIP3   OH245046   6.588   5.453  14.948  0.1079  0.2250  0.1243
 7852TIP3    H145047   6.512   5.394  14.946 -0.1640  0.5903 -0.4103
 7852TIP3    H245048   6.594   5.480  15.040 -0.6353  0.4752  0.1077
 7853TIP3   OH245049   3.406   4.428   3.078 -0.3145  0.0670 -0.0146
 7853TIP3    H145050   3.489   4.475   3.081 -0.3664  0.2884 -1.3382
 7853TIP3    H245051   3.430   4.336   3.066 -0.2484  0.1986 -0.9785
 7854TIP3   OH245052   3.905   5.622   6.778  0.3661  0.1527 -0.5056
 7854TIP3    H145053   3.846   5.652   6.709  0.7967 -1.1963 -1.4978
 7854TIP3    H245054   3.929   5.533   6.752 -1.9648 -1.7315  2.9566
 7855TIP3   OH245055   0.338   5.167   4.604 -0.3609  0.7675 -0.2245
 7855TIP3    H145056   0.393   5.117   4.664  0.2846  3.4269  1.5888
 7855TIP3    H245057   0.249   5.136   4.621 -0.1486  1.1764  1.9274
 7856TIP3   OH245058   3.011   5.091   1.470 -0.3718 -0.3834 -0.3502
 7856TIP3    H145059   2.978   5.106   1.559  0.5245 -0.6492  0.0371
 7856TIP3    H245060   3.054   5.005   1.475  0.5699  0.0506 -0.7759
 7857TIP3   OH245061   2.781   3.125  15.522 -0.4174 -0.0926 -0.0596
 7857TIP3    H145062   2.697   3.166  15.503 -1.8429 -2.0012  1.6694
 7857TIP3    H245063   2.813   3.172  15.599  0.0920  0.5889 -0.6771
 7858TIP3   OH245064   5.434   1.425   3.894 -0.6410 -0.2923  0.1611
 7858TIP3    H145065   5.342   1.449   3.908 -1.0070 -2.4056  1.9063
 7858TIP3    H245066   5.467   1.492   3.833 -2.3200  2.6895  2.2370
 7859TIP3   OH245067   4.610   6.850   4.988 -0.3030  0.6021  0.2837
 7859TIP3    H145068   4.659   6.864   5.070  0.2244 -0.6351  0.2015
 7859TIP3    H245069   4.531   6.903   4.998  0.0504  0.9529  1.3409
 7860TIP3   OH245070   1.566   0.039  12.301  0.4245 -0.4312  0.4380
 7860TIP3    H145071   1.592   0.131  12.311  0.1256 -0.3841  0.7762
 7860TIP3    H245072   1.616   0.009  12.225 -0.5121  0.3984 -0.5317
 7861TIP3   OH245073   2.850   3.035  10.814 -0.0657 -0.1684  0.2098
 7861TIP3    H145074   2.759   3.028  10.785 -0.8164  1.2486  2.0077
 7861TIP3    H245075   2.897   3.068  10.737 -1.5876  1.5877 -0.0368
 7862TIP3   OH245076   4.818   2.736  12.203  0.3629  0.6813  0.2008
 7862TIP3    H145077   4.798   2.769  12.290  1.4535  0.9513  0.3659
 7862TIP3    H245078   4.787   2.805  12.144  1.3369  1.3739  0.4762
 7863TIP3   OH245079   6.369   3.567   2.445 -0.1616  0.0684  1.1676
 7863TIP3    H145080   6.329   3.486   2.476  0.1050 -0.8727 -0.7625
 7863TIP3    H245081   6.306   3.636   2.467 -0.2611 -0.6045  3.0967
 7864TIP3   OH245082   1.261   1.953  14.470  0.5842 -0.6731  0.0608
 7864TIP3    H145083   1.304   1.946  14.555  1.1578 -0.0157 -0.1714
 7864TIP3    H245084   1.255   2.047  14.453  0.2100 -0.7901 -0.4989
 7865TIP3   OH245085   5.447   5.336  15.840 -0.1764  0.1500  0.5281
 7865TIP3    H145086   5.363   5.359  15.800  0.7328  0.4846 -1.3033
 7865TIP3    H245087   5.509   5.401  15.805  0.3615  1.8631  4.1918
 7866TIP3   OH245088   1.691   3.260  13.425 -0.3295 -0.1178 -0.0455
 7866TIP3    H145089   1.670   3.203  13.351 -1.3864 -0.4456  0.4789
 7866TIP3    H245090   1.774   3.301  13.401 -0.5531 -0.3551 -1.3296
 7867TIP3   OH245091   2.899   4.876   3.166  0.2130  0.2884  0.2515
 7867TIP3    H145092   2.833   4.838   3.108 -1.2438  1.3122  1.1751
 7867TIP3    H245093   2.962   4.917   3.107 -0.7909  0.5951 -0.6374
 7868TIP3   OH245094   5.615   4.465   3.532  0.3431 -0.1677  0.5720
 7868TIP3    H145095   5.561   4.456   3.454  0.8502  0.2910  0.1586
 7868TIP3    H245096   5.553   4.470   3.604 -0.1731  0.4750  0.0905
 7869TIP3   OH245097   5.080   5.081  15.280  0.0989 -0.0409 -0.3297
 7869TIP3    H145098   5.046   5.096  15.368 -0.5495  0.2530 -0.6213
 7869TIP3    H245099   5.097   5.168  15.245  1.5490 -0.1895 -0.0568
 7870TIP3   OH245100   2.252   2.514  13.097 -0.4890  0.2478 -0.5083
 7870TIP3    H145101   2.295   2.447  13.150 -0.1851  1.0533  0.2994
 7870TIP3    H245102   2.302   2.515  13.015  1.6227  1.6757  0.6737
 7871TIP3   OH245103   3.592   2.752  14.623 -0.4655 -0.1426  0.3696
 7871TIP3    H145104   3.564   2.844  14.621 -1.2410 -0.3269 -2.7297
 7871TIP3    H245105   3.511   2.703  14.614  0.0910 -1.0600  0.2974
 7872TIP3   OH245106   6.788   1.225   4.213  0.0850  0.0875 -0.1147
 7872TIP3    H145107   6.715   1.207   4.153 -0.8607 -0.5836  1.1773
 7872TIP3    H245108   6.746   1.243   4.297  1.4015  0.2163  0.5420
 7873TIP3   OH245109   5.394   5.843  11.538 -0.1088 -0.3429 -0.0369
 7873TIP3    H145110   5.380   5.863  11.445  3.9779  0.5611 -0.6597
 7873TIP3    H245111   5.378   5.749  11.545 -0.3968 -0.4533 -1.7023
 7874TIP3   OH245112   4.030   5.658  11.494 -0.2939 -0.1726 -0.0759
 7874TIP3    H145113   4.113   5.616  11.517 -0.3786 -0.2539  0.0843
 7874TIP3    H245114   4.019   5.638  11.401  0.8838  1.5857 -0.6388
 7875TIP3   OH245115   0.635   4.291  14.911  0.2519 -0.6288  0.4698
 7875TIP3    H145116   0.715   4.239  14.912  0.9162  0.3216 -0.1773
 7875TIP3    H245117   0.586   4.263  14.988  0.9259 -1.6544  0.5431
 7876TIP3   OH245118   5.578   2.729  12.350 -0.8270 -0.0054  0.1497
 7876TIP3    H145119   5.630   2.649  12.359 -2.3770 -1.1370 -0.5038
 7876TIP3    H245120   5.553   2.731  12.258  1.5197  2.8114 -0.5671
 7877TIP3   OH245121   6.185   4.018   4.238  0.1421 -0.4364  0.3786
 7877TIP3    H145122   6.112   4.076   4.261  0.8021 -0.3553  2.4856
 7877TIP3    H245123   6.171   3.939   4.291  0.9911 -0.8815 -0.0294
 7878TIP3   OH245124   1.052   3.305  11.354  0.0761  0.1366 -0.1737
 7878TIP3    H145125   1.039   3.387  11.400 -0.2091 -0.2090  0.3727
 7878TIP3    H245126   0.995   3.242  11.400  2.0606 -0.9304  0.9367
 7879TIP3   OH245127   5.978   5.084   0.494  0.5980 -0.3578 -0.1131
 7879TIP3    H145128   5.907   5.140   0.524 -1.3914 -3.2058  0.9361
 7879TIP3    H245129   6.030   5.068   0.572 -0.8632 -2.6199  0.4843
 7880TIP3   OH245130   2.202   4.170  11.641  0.0812  0.2859  0.3474
 7880TIP3    H145131   2.235   4.090  11.600  0.8317 -0.3329  2.0783
 7880TIP3    H245132   2.165   4.141  11.725  0.2351  1.7258  0.9446
 7881TIP3   OH245133   4.411   4.886  15.397  0.2278  0.8421 -0.0855
 7881TIP3    H145134   4.416   4.834  15.317  1.8393  0.0651  0.4664
 7881TIP3    H245135   4.471   4.959  15.383  2.3723 -0.5561  1.2082
 7882TIP3   OH245136   1.542   2.145   0.329 -0.0891 -0.4133  0.3389
 7882TIP3    H145137   1.600   2.135   0.405 -1.2725 -0.3055  1.2921
 7882TIP3    H245138   1.472   2.083   0.345  1.5107 -3.2631 -2.6141
 7883TIP3   OH245139   3.838   2.002   4.561  0.1259 -0.0137 -0.1918
 7883TIP3    H145140   3.879   2.078   4.603  1.4965 -1.0292  0.3825
 7883TIP3    H245141   3.894   1.928   4.586 -1.6025 -1.3480 -0.0947
 7884TIP3   OH245142   3.284   5.317   6.194 -0.4360  0.4409  0.5919
 7884TIP3    H145143   3.376   5.344   6.185 -0.0771 -0.1809  2.0117
 7884TIP3    H245144   3.289   5.227   6.227 -1.5679  0.2537  0.2864
 7885TIP3   OH245145   4.108   0.609   2.456 -0.0244  0.1621 -0.1492
 7885TIP3    H145146   4.025   0.601   2.502  0.6276 -0.3273  0.9726
 7885TIP3    H245147   4.096   0.559   2.376 -0.3168 -1.1922  0.7153
 7886TIP3   OH245148   5.897   0.192   4.802  0.4272  0.5015 -0.4346
 7886TIP3    H145149   5.926   0.282   4.819  0.1154  0.2955  1.3741
 7886TIP3    H245150   5.970   0.137   4.831  0.0654  0.1360 -0.2040
 7887TIP3   OH245151   5.482   2.189  14.998 -0.1304 -0.0493  0.0534
 7887TIP3    H145152   5.435   2.197  15.081 -0.3290 -0.8774  0.0333
 7887TIP3    H245153   5.567   2.229  15.014  0.3280 -1.3852  1.0726
 7888TIP3   OH245154   6.566   1.207  13.267 -0.7056 -0.2514  0.3586
 7888TIP3    H145155   6.503   1.223  13.337 -0.9195 -1.7135  0.5372
 7888TIP3    H245156   6.630   1.148  13.305 -0.7841 -1.0075 -0.6380
 7889TIP3   OH245157   5.327   0.442  13.395  0.4521 -0.6490 -0.5625
 7889TIP3    H145158   5.263   0.431  13.466 -0.4813  1.4101 -0.9884
 7889TIP3    H245159   5.274   0.443  13.315  0.4050  3.9022 -0.7702
 7890TIP3   OH245160   0.001   3.613   0.870  0.1075 -0.2160  0.1228
 7890TIP3    H145161  -0.039   3.532   0.838  0.1005  0.2160 -1.0316
 7890TIP3    H245162  -0.030   3.622   0.960 -0.7176 -0.9668 -0.0793
 7891TIP3   OH245163   4.100   1.815  13.597 -0.0464  0.7208 -0.6010
 7891TIP3    H145164   4.135   1.803  13.685  0.5450  0.4791 -0.8604
 7891TIP3    H245165   4.017   1.767  13.597  0.7099 -0.6356 -0.6301
 7892TIP3   OH245166   5.047   1.599  14.886  0.5463  0.1485  0.2019
 7892TIP3    H145167   5.089   1.552  14.813 -0.2425  1.2885 -1.0373
 7892TIP3    H245168   5.115   1.607  14.952  0.8975 -2.1628  0.2217
 7893TIP3   OH245169   5.276   1.271   0.358 -0.3313  0.5240  0.4903
 7893TIP3    H145170   5.203   1.277   0.419  0.9175 -2.0191  2.3924
 7893TIP3    H245171   5.353   1.295   0.410  0.7217 -1.3067 -0.1329
 7894TIP3   OH245172   4.780   5.521  15.736 -0.3005  0.0780  0.0899
 7894TIP3    H145173   4.779   5.552  15.645  0.2336  2.0108  0.6930
 7894TIP3    H245174   4.696   5.477  15.747 -0.1019 -0.8069 -1.5108
 7895TIP3   OH245175   2.110   2.315   5.086  0.2068  0.6006 -0.2489
 7895TIP3    H145176   2.103   2.378   5.014 -4.4274 -0.2585 -0.8154
 7895TIP3    H245177   2.134   2.233   5.044 -1.6054  0.3036 -0.7854
 7896TIP3   OH245178   2.715   4.284  16.936  0.2791  0.6241 -0.1161
 7896TIP3    H145179   2.745   4.193  16.940 -0.2312  0.4753  0.5164
 7896TIP3    H245180   2.729   4.318  17.025  1.0246  1.3530 -0.4931
 7897TIP3   OH245181   6.803   2.598  16.162  0.2803 -0.2769  0.4344
 7897TIP3    H145182   6.762   2.610  16.077  1.2451 -0.5781 -0.0989
 7897TIP3    H245183   6.745   2.538  16.209  0.5256 -1.3723 -0.6147
 7898TIP3   OH245184   0.016   2.063  15.070  0.1362  0.4544  0.4353
 7898TIP3    H145185  -0.032   1.980  15.076 -0.3689  0.5964 -1.2673
 7898TIP3    H245186  -0.005   2.108  15.152  1.2222 -1.4722  1.8616
 7899TIP3   OH245187   0.886   6.208  13.255 -0.3785 -0.4754 -0.0981
 7899TIP3    H145188   0.865   6.115  13.247  0.2582 -0.5633 -0.8579
 7899TIP3    H245189   0.980   6.213  13.242 -0.4336  0.2989 -0.2508
 7900TIP3   OH245190   6.298   5.861  16.526  0.3421 -0.4049 -0.2221
 7900TIP3    H145191   6.305   5.791  16.590  0.0689  0.5913  0.9319
 7900TIP3    H245192   6.215   5.904  16.546  0.5722  0.3372 -0.8099
 7901TIP3   OH245193   2.735   6.101   2.094 -0.4209  0.4249  0.5809
 7901TIP3    H145194   2.784   6.023   2.070  2.2319  1.7089  1.4323
 7901TIP3    H245195   2.704   6.137   2.011  1.7385  0.5296 -0.2385
 7902TIP3   OH245196   0.488   2.519  11.088 -0.2651 -0.0091 -0.4499
 7902TIP3    H145197   0.503   2.579  11.161 -0.4015  0.0862 -0.4990
 7902TIP3    H245198   0.404   2.547  11.052 -0.5810 -0.5617 -0.1523
 7903TIP3   OH245199   4.468   6.469   1.184  0.2354  0.0590  0.1472
 7903TIP3    H145200   4.561   6.452   1.171  0.1419  1.8702 -4.6650
 7903TIP3    H245201   4.464   6.558   1.217  0.1754 -0.1666  0.7640
 7904TIP3   OH245202   6.776   2.010  11.922  0.4467  0.1339  0.1787
 7904TIP3    H145203   6.759   1.930  11.971 -2.0654 -0.2294 -1.1467
 7904TIP3    H245204   6.710   2.072  11.953 -0.2629  0.3532 -1.6662
 7905TIP3   OH245205   5.230   3.913   2.566  0.5975 -0.4986 -0.7455
 7905TIP3    H145206   5.219   3.966   2.488 -1.6256 -2.1827 -1.6568
 7905TIP3    H245207   5.278   3.836   2.536 -0.2547 -1.1458 -0.4811
 7906TIP3   OH245208   1.867   4.220   4.699  0.1340 -0.1223  0.4793
 7906TIP3    H145209   1.872   4.294   4.638  2.6769 -0.5211  0.0911
 7906TIP3    H245210   1.823   4.151   4.649  0.4459  0.1819 -0.2388
 7907TIP3   OH245211   1.999   1.494   1.371 -0.3006  0.0260 -0.1045
 7907TIP3    H145212   2.088   1.529   1.371 -0.3337  0.1114 -0.2620
 7907TIP3    H245213   1.950   1.551   1.430 -0.3256  0.1736 -0.2658
 7908TIP3   OH245214   4.159   2.791  11.711  0.4302  0.4203  0.2070
 7908TIP3    H145215   4.176   2.873  11.665 -3.8586  3.2349  2.8885
 7908TIP3    H245216   4.243   2.770  11.753  2.2618  2.1644 -2.2413
 7909TIP3   OH245217   5.992   0.119  11.589  0.0785 -0.1144 -0.1421
 7909TIP3    H145218   6.037   0.043  11.627  2.5182 -0.4404 -3.2643
 7909TIP3    H245219   5.945   0.083  11.513  1.0086  1.3975 -1.4837
 7910TIP3   OH245220   2.073   1.291  14.855  0.5155  0.5630 -0.3401
 7910TIP3    H145221   2.057   1.302  14.949 -0.7077  0.0061 -0.4525
 7910TIP3    H245222   2.149   1.346  14.837 -0.0184  1.7153  0.7272
 7911TIP3   OH245223   4.101   2.962   5.249 -0.4747 -0.9317  0.3110
 7911TIP3    H145224   4.146   2.883   5.220 -3.6275 -2.3522 -1.2375
 7911TIP3    H245225   4.044   2.985   5.176 -0.5891  2.0948  1.2216
 7912TIP3   OH245226   2.457   2.429   4.520 -0.4727  0.3133 -0.2748
 7912TIP3    H145227   2.396   2.438   4.447  0.1413 -0.1775 -0.8697
 7912TIP3    H245228   2.403   2.404   4.595 -1.0200  0.0909 -0.7393
 7913TIP3   OH245229   1.282   6.805   0.076 -0.0617 -0.2455 -0.0680
 7913TIP3    H145230   1.199   6.851   0.065 -0.4920 -1.2084 -1.0185
 7913TIP3    H245231   1.343   6.851   0.020 -0.3971 -0.5871 -0.7258
 7914TIP3   OH245232   0.753   1.340  14.978 -0.3290 -0.2301  0.0094
 7914TIP3    H145233   0.691   1.347  15.051 -2.3427 -1.4118 -1.4913
 7914TIP3    H245234   0.777   1.430  14.957 -2.2944  0.3350  0.0485
 7915TIP3   OH245235   5.018   6.047   1.356 -0.2073  0.3552  0.2937
 7915TIP3    H145236   5.110   6.038   1.332 -0.1149  2.5517 -0.3601
 7915TIP3    H245237   4.991   5.958   1.382  1.3661 -0.8848 -2.0069
 7916TIP3   OH245238   2.752   2.919  14.859 -0.3453 -0.5327  0.1968
 7916TIP3    H145239   2.708   3.001  14.836  1.9980  0.0555 -2.8690
 7916TIP3    H245240   2.764   2.924  14.953 -2.1203  1.6549  0.3986
 7917TIP3   OH245241   6.691   1.093  12.483 -0.2033  0.0523 -0.3134
 7917TIP3    H145242   6.731   1.071  12.567 -0.1290  1.3362  0.0186
 7917TIP3    H245243   6.677   1.009  12.440  0.9870 -0.5480  0.4149
 7918TIP3   OH245244   5.824   1.549   1.182  0.1573 -0.0086 -0.1900
 7918TIP3    H145245   5.858   1.597   1.106  2.1317 -0.8156  0.1355
 7918TIP3    H245246   5.816   1.459   1.152  0.1541 -0.1836  0.3365
 7919TIP3   OH245247   2.135   6.783   1.969  0.6239 -0.5053 -0.2447
 7919TIP3    H145248   2.162   6.863   1.923  2.6065 -0.9568  0.0526
 7919TIP3    H245249   2.091   6.814   2.048  0.4558  0.2824 -0.6380
 7920TIP3   OH245250   1.324   0.954  10.738  0.0503 -0.2326  0.4906
 7920TIP3    H145251   1.400   1.012  10.743  0.3593 -0.5298 -0.5417
 7920TIP3    H245252   1.290   0.966  10.650 -0.9981 -0.2593  0.8716
 7921TIP3   OH245253   3.593   1.060  10.173 -0.0439 -0.1919 -0.2514
 7921TIP3    H145254   3.597   0.967  10.195 -0.0619 -0.1839 -0.2151
 7921TIP3    H245255   3.508   1.072  10.132 -0.7880  0.1573  1.3326
 7922TIP3   OH245256   4.054   4.255   2.209 -0.1765  0.0046  0.6250
 7922TIP3    H145257   4.021   4.218   2.291  1.4282 -0.2847  1.1770
 7922TIP3    H245258   4.116   4.323   2.237  2.5835 -1.9811 -0.2027
 7923TIP3   OH245259   3.349   2.774   2.968  0.4840  0.1234  0.3908
 7923TIP3    H145260   3.395   2.697   3.003  2.1449  1.5585  1.5164
 7923TIP3    H245261   3.364   2.842   3.033  1.3673  2.1717 -1.8246
 7924TIP3   OH245262   5.073   0.946   1.903 -0.3777  0.1769  0.1001
 7924TIP3    H145263   5.166   0.957   1.883 -0.3114 -2.1555 -1.1654
 7924TIP3    H245264   5.071   0.911   1.992 -0.1987  2.0737  0.8924
 7925TIP3   OH245265   2.988   3.650  11.172  0.3830 -0.4723  0.2457
 7925TIP3    H145266   2.978   3.612  11.085 -0.1283  0.9494 -0.3296
 7925TIP3    H245267   3.020   3.577  11.226 -0.9066 -1.8056 -0.7349
 7926TIP3   OH245268   2.081   2.456  11.214  0.5138  0.9180 -0.2480
 7926TIP3    H145269   2.046   2.374  11.178  2.2676  0.6544 -1.4898
 7926TIP3    H245270   2.060   2.522  11.147 -0.5842  1.4451  0.5865
 7927TIP3   OH245271   4.422   3.142  14.764 -0.1696 -0.0242 -0.1404
 7927TIP3    H145272   4.358   3.142  14.835 -2.4172 -1.8835 -1.9620
 7927TIP3    H245273   4.403   3.222  14.715 -0.6128 -0.1645 -0.2115
 7928TIP3   OH245274   4.118   3.934  14.332  0.3182 -0.4736 -0.2293
 7928TIP3    H145275   4.051   3.881  14.288 -0.5920 -1.9862  2.7572
 7928TIP3    H245276   4.197   3.881  14.329  0.2881 -0.5236 -0.1345
 7929TIP3   OH245277   5.108   2.304  11.971 -0.2051 -0.0660 -0.0736
 7929TIP3    H145278   5.085   2.237  12.035 -0.7242  0.6490  0.5152
 7929TIP3    H245279   5.069   2.385  12.006  1.9066  0.9084  0.1679
 7930TIP3   OH245280   0.604   2.016  11.406 -0.7361  0.2049  0.3091
 7930TIP3    H145281   0.667   1.948  11.428 -1.8387 -1.3130 -1.0330
 7930TIP3    H245282   0.623   2.037  11.314 -2.8438 -1.1017 -0.4813
 7931TIP3   OH245283   2.065   4.120   3.255  0.2753  0.2519  0.3784
 7931TIP3    H145284   1.988   4.105   3.200 -0.9013  1.1733  1.6817
 7931TIP3    H245285   2.065   4.046   3.316  0.7965 -0.0708 -0.0074
 7932TIP3   OH245286   4.653   3.506   0.666  0.2630 -0.1329 -0.7421
 7932TIP3    H145287   4.595   3.433   0.646  0.2607  0.5039 -3.5148
 7932TIP3    H245288   4.619   3.579   0.614  3.2083  0.3625 -2.2616
 7933TIP3   OH245289   3.904   2.529  12.888 -0.2609  0.3367 -0.4994
 7933TIP3    H145290   3.840   2.594  12.915 -1.4093 -0.0965 -1.9798
 7933TIP3    H245291   3.959   2.574  12.825  0.3186  0.4567  0.0872
 7934TIP3   OH245292   6.704   1.515  11.172  0.3745 -0.1647 -0.1168
 7934TIP3    H145293   6.722   1.486  11.082  0.0453 -1.0101  0.0804
 7934TIP3    H245294   6.633   1.459  11.201 -0.0507  0.6274  0.4153
 7935TIP3   OH245295   1.145   4.089   4.414 -0.5436 -0.3940  0.4349
 7935TIP3    H145296   1.113   4.086   4.324  0.1545 -0.8882  0.1911
 7935TIP3    H245297   1.240   4.076   4.406 -0.3619  0.3856  1.1787
 7936TIP3   OH245298   6.540   6.170  15.683  0.6709 -0.1796 -0.0369
 7936TIP3    H145299   6.609   6.111  15.651  1.1950 -0.2964  1.2542
 7936TIP3    H245300   6.545   6.163  15.778 -1.8251 -1.0082  0.1149
 7937TIP3   OH245301   0.531   3.267  15.527  0.4062  0.1883  0.2677
 7937TIP3    H145302   0.526   3.359  15.500  0.7690 -0.4730 -2.3655
 7937TIP3    H245303   0.622   3.242  15.510 -0.0366 -1.0191 -0.4495
 7938TIP3   OH245304   3.997   0.833   4.235  0.0052  0.1130 -0.0169
 7938TIP3    H145305   3.928   0.767   4.239  0.3885 -0.3576 -0.8799
 7938TIP3    H245306   3.954   0.911   4.202 -0.0568 -0.2912 -0.9318
 7939TIP3   OH245307   0.119   1.737  16.024  0.0684 -0.2278  0.5080
 7939TIP3    H145308   0.161   1.776  16.101 -2.5256  0.1738  1.8226
 7939TIP3    H245309   0.116   1.808  15.960  1.8622 -0.4429  0.1392
 7940TIP3   OH245310   0.485   3.483   2.324 -0.2259  0.4922  0.5127
 7940TIP3    H145311   0.524   3.470   2.238 -1.1620  0.1598  0.1166
 7940TIP3    H245312   0.425   3.557   2.312  1.0195  1.7039  1.3749
 7941TIP3   OH245313   3.626   6.534  15.376  0.1662  0.2709 -0.1105
 7941TIP3    H145314   3.563   6.603  15.396 -0.0741  0.2597 -0.8095
 7941TIP3    H245315   3.699   6.550  15.436  0.1614  1.2061 -0.3398
 7942TIP3   OH245316   2.928   5.535  15.867 -0.1777  0.0180 -0.4319
 7942TIP3    H145317   2.839   5.569  15.861 -0.6773 -0.7504  1.7002
 7942TIP3    H245318   2.947   5.532  15.961  1.9873 -0.1592 -0.8043
 7943TIP3   OH245319   6.238   1.418  14.788  0.5575 -0.2313  0.2761
 7943TIP3    H145320   6.324   1.376  14.793  0.1112 -1.0747  1.5370
 7943TIP3    H245321   6.176   1.345  14.793 -0.2301  0.4360  0.3336
 7944TIP3   OH245322   5.191   4.924  13.685 -0.2570 -0.5978 -0.1401
 7944TIP3    H145323   5.267   4.902  13.632 -1.1108 -0.6072 -1.4179
 7944TIP3    H245324   5.125   4.860  13.659 -0.8011 -0.3930  0.7068
 7945TIP3   OH245325   2.223   2.928   3.120  0.2447  0.3385  0.3534
 7945TIP3    H145326   2.257   2.961   3.203  2.1240  0.2878 -0.3584
 7945TIP3    H245327   2.218   3.005   3.064  2.2862 -0.1321 -0.5366
 7946TIP3   OH245328   0.288   1.350  12.656  0.3800  0.2388  0.0896
 7946TIP3    H145329   0.379   1.380  12.659  0.6081 -0.3795 -0.5771
 7946TIP3    H245330   0.293   1.260  12.625 -0.3758 -0.2091  1.1931
 7947TIP3   OH245331   5.762   2.251   2.444  0.2816  0.1487  0.2011
 7947TIP3    H145332   5.763   2.204   2.361  0.7294  1.8264 -0.8028
 7947TIP3    H245333   5.700   2.202   2.499  0.5223 -1.4040 -0.8550
 7948TIP3   OH245334   1.063   1.180  13.923  0.7568 -0.3659  0.3351
 7948TIP3    H145335   1.035   1.218  13.840 -0.7479  0.5225  1.1920
 7948TIP3    H245336   1.083   1.255  13.978  0.5440 -0.8872  1.1503
 7949TIP3   OH245337   1.661   3.058  11.691 -0.2907  0.1685  0.3189
 7949TIP3    H145338   1.658   3.153  11.690 -2.5346  0.1608 -0.4776
 7949TIP3    H245339   1.588   3.033  11.749 -0.6126 -1.0361 -0.5661
 7950TIP3   OH245340   6.298   5.094  12.470 -0.7869 -0.1094 -0.3854
 7950TIP3    H145341   6.289   5.072  12.563 -1.4398  1.0698 -0.1470
 7950TIP3    H245342   6.210   5.118  12.442 -0.0706  3.0023 -0.3479
 7951TIP3   OH245343   2.630   4.826  16.354 -0.0701 -0.0601  0.4178
 7951TIP3    H145344   2.682   4.906  16.355  1.0240 -0.7344 -0.4232
 7951TIP3    H245345   2.693   4.756  16.370 -1.0113 -0.7676  1.1686
 7952TIP3   OH245346   2.456   3.346   5.639 -0.1496 -0.2782 -0.0336
 7952TIP3    H145347   2.372   3.306   5.663  0.7318 -1.8022  0.6840
 7952TIP3    H245348   2.441   3.440   5.646 -1.6835 -0.5340  0.4688
 7953TIP3   OH245349   5.836   0.623   0.796  0.0645 -0.8502 -0.0215
 7953TIP3    H145350   5.791   0.626   0.880 -3.4837 -2.0430 -1.6752
 7953TIP3    H245351   5.884   0.540   0.797  0.9474 -0.3578  1.1467
 7954TIP3   OH245352   6.776   2.356  15.765  0.1615  0.4659  0.2384
 7954TIP3    H145353   6.687   2.323  15.776  0.7718 -0.8041  1.9392
 7954TIP3    H245354   6.824   2.283  15.725  0.6981  0.6960  0.4524
 7955TIP3   OH245355   6.785   5.132  12.227 -0.3205 -0.1468 -0.1510
 7955TIP3    H145356   6.703   5.112  12.273 -1.3090  0.6578 -1.4827
 7955TIP3    H245357   6.854   5.112  12.291 -1.4749 -1.9720  0.6232
 7956TIP3   OH245358   6.238   3.346   2.569 -0.3729 -0.1636 -0.0031
 7956TIP3    H145359   6.212   3.287   2.639 -1.2459 -2.0765 -1.8415
 7956TIP3    H245360   6.158   3.393   2.546  0.0225  0.8161  0.5731
 7957TIP3   OH245361   4.334   6.103   1.230 -0.0728  0.0290  0.4705
 7957TIP3    H145362   4.291   6.030   1.276 -1.3952  1.4022  1.5162
 7957TIP3    H245363   4.279   6.179   1.249  0.3614  1.0199 -1.9502
 7958TIP3   OH245364   4.502   2.488   4.476  0.2332  0.1665 -0.1373
 7958TIP3    H145365   4.445   2.479   4.552 -0.4346 -0.2838 -0.6721
 7958TIP3    H245366   4.563   2.414   4.483 -0.5401 -0.5420 -0.6114
 7959TIP3   OH245367   0.327   2.574   5.160  0.2312 -0.3228  0.4644
 7959TIP3    H145368   0.232   2.565   5.158 -0.2653  3.4516 -0.5515
 7959TIP3    H245369   0.344   2.648   5.219  2.5554 -0.9281  0.6649
 7960TIP3   OH245370   2.299   5.193  12.606 -0.1128 -0.2585 -0.3523
 7960TIP3    H145371   2.214   5.163  12.638  1.1112 -1.5819  1.9298
 7960TIP3    H245372   2.295   5.288  12.615 -0.4369 -0.4357  2.4909
 7961TIP3   OH245373   4.141   1.587  15.681 -0.0413 -0.4800  0.2456
 7961TIP3    H145374   4.139   1.669  15.730  1.3392 -0.8355  0.9164
 7961TIP3    H245375   4.227   1.549  15.699 -0.6931 -2.1503  0.0550
 7962TIP3   OH245376   5.166   3.580  16.960  0.8657  0.3932 -0.2719
 7962TIP3    H145377   5.164   3.644  16.889 -2.1241  0.8246  0.0519
 7962TIP3    H245378   5.179   3.632  17.039  0.7661  0.3309 -0.2144
 7963TIP3   OH245379   1.245   5.604   1.542 -0.0030  0.3287 -0.3214
 7963TIP3    H145380   1.241   5.554   1.460 -0.9630  0.2802 -0.2638
 7963TIP3    H245381   1.278   5.542   1.607 -0.2335  0.0569 -0.4587
 7964TIP3   OH245382   2.062   5.307  16.573  0.5932  0.2746  0.5377
 7964TIP3    H145383   2.083   5.216  16.592 -0.1917  0.2343  1.2624
 7964TIP3    H245384   1.995   5.302  16.504 -0.9610  0.2054  1.9892
 7965TIP3   OH245385   5.818   2.907   5.043  0.3854  0.0204 -0.0876
 7965TIP3    H145386   5.885   2.901   4.975 -0.0585 -1.2175 -0.4534
 7965TIP3    H245387   5.858   2.961   5.112  0.9630  1.0249 -1.1803
 7966TIP3   OH245388   5.711   3.492   2.221 -0.3161 -0.0218 -0.1738
 7966TIP3    H145389   5.682   3.571   2.175 -0.1160  0.3408  0.3186
 7966TIP3    H245390   5.806   3.502   2.228 -0.4725  0.5860  1.5050
 7967TIP3   OH245391   6.405   0.264  10.847  0.0083  0.3579  0.1223
 7967TIP3    H145392   6.392   0.356  10.872  0.6319  0.4364  0.1691
 7967TIP3    H245393   6.445   0.269  10.760  1.4802  0.1737  0.7600
 7968TIP3   OH245394   0.467   3.137  15.009  0.1040 -0.1815  0.1844
 7968TIP3    H145395   0.380   3.165  15.040  0.6516  2.0744 -0.1132
 7968TIP3    H245396   0.507   3.095  15.085 -1.0326 -0.7407  0.4970
 7969TIP3   OH245397   3.293   5.410   5.709  0.5661 -0.3892 -0.1762
 7969TIP3    H145398   3.213   5.360   5.724 -0.1877  0.3783 -1.4316
 7969TIP3    H245399   3.319   5.388   5.620  1.9964 -0.9317  0.3526
 7970TIP3   OH245400   5.465   1.519   4.473 -0.4530  0.0322 -0.1934
 7970TIP3    H145401   5.376   1.544   4.497 -0.6221 -1.5756  1.0272
 7970TIP3    H245402   5.500   1.477   4.551  1.7270  1.3952 -0.3637
 7971TIP3   OH245403   2.913   0.848  13.259  0.6176  0.4865 -0.5689
 7971TIP3    H145404   2.968   0.835  13.182 -1.1648 -0.8636 -1.7068
 7971TIP3    H245405   2.887   0.760  13.286 -0.4353  1.0343  0.3142
 7972TIP3   OH245406   3.016   4.904   1.907 -0.1412  0.0783 -0.3064
 7972TIP3    H145407   2.975   4.917   1.822 -3.1881 -0.0550  1.0408
 7972TIP3    H245408   3.015   4.990   1.948 -1.6084 -0.4052  0.7534
 7973TIP3   OH245409   0.545   1.726   4.916 -0.0951 -0.0496  0.5896
 7973TIP3    H145410   0.564   1.784   4.842 -1.0854 -1.5264 -0.9110
 7973TIP3    H245411   0.462   1.759   4.951  0.4885  0.7908  1.2243
 7974TIP3   OH245412   2.654   6.041  16.503  0.0805 -0.0975  0.0368
 7974TIP3    H145413   2.600   6.097  16.447 -0.0141  0.5891  0.7958
 7974TIP3    H245414   2.592   6.006  16.567  0.5954  1.0572  1.1962
 7975TIP3   OH245415   5.036   1.224   5.164 -0.0938 -0.1416 -0.0604
 7975TIP3    H145416   5.089   1.302   5.147  0.8105 -0.4128  1.3182
 7975TIP3    H245417   5.053   1.167   5.090  2.3614 -0.6152  0.7706
 7976TIP3   OH245418   5.622   0.504  11.515  0.2742  0.5062 -0.0159
 7976TIP3    H145419   5.697   0.529  11.460 -0.7646  0.2153 -1.6299
 7976TIP3    H245420   5.610   0.411  11.497 -0.0158  0.3736  0.8313
 7977TIP3   OH245421   5.254   5.973  15.062 -0.5698 -0.4058 -0.3679
 7977TIP3    H145422   5.209   6.024  15.130 -2.4245 -1.7057 -0.5499
 7977TIP3    H245423   5.278   5.892  15.106  1.3295  0.0982 -0.3909
 7978TIP3   OH245424   0.753   2.452   0.471  0.1033 -0.3744  0.2135
 7978TIP3    H145425   0.725   2.543   0.465  2.2602  0.2493 -2.2268
 7978TIP3    H245426   0.787   2.442   0.560 -0.8160  0.9579  0.7369
 7979TIP3   OH245427   2.002   2.045  11.338 -0.4748  0.0421 -0.4246
 7979TIP3    H145428   2.090   2.010  11.322  0.5806  2.2529  0.1831
 7979TIP3    H245429   1.988   2.106  11.266 -1.4538 -0.1393 -0.3959
 7980TIP3   OH245430   1.048   2.597  13.126  0.1147  0.0347  0.3553
 7980TIP3    H145431   1.018   2.625  13.212  0.5732  3.7004 -0.5118
 7980TIP3    H245432   0.977   2.541  13.093 -1.7737  1.5034  1.6870
 7981TIP3   OH245433   4.892   2.836  11.466  0.2321 -0.9666 -0.2836
 7981TIP3    H145434   4.881   2.843  11.561  0.6932 -0.9306 -0.2288
 7981TIP3    H245435   4.985   2.853  11.451 -0.0713  0.3421 -0.8715
 7982TIP3   OH245436   1.369   4.341  15.947  0.1193 -0.2117 -0.6262
 7982TIP3    H145437   1.386   4.336  15.853 -2.4555  1.4074 -1.3001
 7982TIP3    H245438   1.314   4.265  15.966  0.3569 -0.3522 -0.4930
 7983TIP3   OH245439   1.185   0.797  15.127 -0.1204  0.0787 -0.3684
 7983TIP3    H145440   1.169   0.717  15.078  2.1411  0.5181 -1.9725
 7983TIP3    H245441   1.138   0.865  15.079 -1.6312 -0.1467  0.7148
 7984TIP3   OH245442   5.725   3.475   3.492  0.2920  0.5424  0.6438
 7984TIP3    H145443   5.755   3.385   3.502  3.5309  1.5611  1.0826
 7984TIP3    H245444   5.726   3.510   3.581  0.5471  1.4518  0.2871
 7985TIP3   OH245445   5.362   1.092   2.586 -0.0370  0.0873  0.0037
 7985TIP3    H145446   5.442   1.040   2.590  0.1239  0.3004 -0.4487
 7985TIP3    H245447   5.343   1.101   2.493  0.2468  1.3052  0.0370
 7986TIP3   OH245448   0.383   1.170  14.226 -0.6178 -0.1861  0.1592
 7986TIP3    H145449   0.308   1.145  14.280 -2.0157  1.4455 -0.9325
 7986TIP3    H245450   0.377   1.114  14.149  0.6489 -1.6242  1.0374
 7987TIP3   OH245451   5.347   3.752  15.751 -0.0557  0.6480  0.4963
 7987TIP3    H145452   5.321   3.720  15.838 -0.0493  1.2470  0.7271
 7987TIP3    H245453   5.419   3.695  15.725  0.0239  0.5392  0.9392
 7988TIP3   OH245454   4.768   5.479   4.380 -0.0153 -0.1418  0.4337
 7988TIP3    H145455   4.863   5.472   4.375 -0.0446 -1.2552  1.0463
 7988TIP3    H245456   4.744   5.533   4.305  0.9550 -1.2599 -0.7429
 7989TIP3   OH245457   0.005   3.104   2.246  0.2744  0.2935 -0.0875
 7989TIP3    H145458   0.089   3.147   2.259  0.8358 -1.2744  1.9159
 7989TIP3    H245459  -0.053   3.144   2.311  0.0026  0.0322 -0.1661
 7990TIP3   OH245460   2.950   1.120   4.347 -0.5121 -0.6751  0.3141
 7990TIP3    H145461   2.952   1.209   4.313 -1.8516 -0.1995  1.3695
 7990TIP3    H245462   2.993   1.126   4.432 -0.8410 -0.9756  0.5052
 7991TIP3   OH245463   5.583   3.546   2.663 -0.5254  0.1286 -0.5356
 7991TIP3    H145464   5.671   3.580   2.683 -1.0361  1.2412 -0.1279
 7991TIP3    H245465   5.598   3.483   2.592  0.5301  0.7336 -0.8794
 7992TIP3   OH245466   6.141   5.206  14.376 -0.4385 -0.1402  0.0199
 7992TIP3    H145467   6.200   5.247  14.313 -1.0356  0.6654 -0.0328
 7992TIP3    H245468   6.178   5.119  14.391 -0.2946 -0.3511 -1.4560
 7993TIP3   OH245469   1.712   6.346  11.055 -0.3303 -1.1436 -0.7440
 7993TIP3    H145470   1.660   6.268  11.039  0.9409 -2.0853 -0.4775
 7993TIP3    H245471   1.800   6.313  11.073  0.0565  0.3064  0.2324
 7994TIP3   OH245472   3.285   6.341  16.431  0.7407  0.1314 -0.4330
 7994TIP3    H145473   3.267   6.363  16.339 -0.3976  0.0355 -0.2463
 7994TIP3    H245474   3.285   6.425  16.476 -0.2226  0.0545 -0.2769
 7995TIP3   OH245475   3.377   3.877  12.676  0.1050  0.2995  0.4143
 7995TIP3    H145476   3.383   3.806  12.739  1.4749 -1.1091 -1.2002
 7995TIP3    H245477   3.434   3.945  12.711  0.8194 -0.4426  0.7240
 7996TIP3   OH245478   5.429   4.489   3.301  0.1758  0.4371 -0.1586
 7996TIP3    H145479   5.360   4.437   3.342  0.8775 -0.3773  0.0365
 7996TIP3    H245480   5.419   4.473   3.207 -0.2512  0.7821 -0.1743
 7997TIP3   OH245481   5.632   6.794  15.793  0.0602  0.3655  0.0862
 7997TIP3    H145482   5.652   6.880  15.830 -1.1967  0.7827 -0.1536
 7997TIP3    H245483   5.595   6.813  15.707 -1.6108 -0.3098  0.6124
 7998TIP3   OH245484   3.587   3.310   3.303 -0.1912  0.2746 -0.1455
 7998TIP3    H145485   3.636   3.387   3.275  0.1837  0.7933  1.7818
 7998TIP3    H245486   3.626   3.238   3.254  1.2691  0.9392 -0.0155
 7999TIP3   OH245487   4.293   0.123  13.698 -0.4093 -0.2072 -0.1952
 7999TIP3    H145488   4.250   0.164  13.623 -1.2671 -2.4799 -1.0345
 7999TIP3    H245489   4.301   0.030  13.674 -0.2761 -0.9366  2.3272
 8000TIP3   OH245490   2.651   0.322  16.375  0.1340 -0.2941 -0.6993
 8000TIP3    H145491   2.721   0.386  16.387 -2.0193  1.9598  0.6947
 8000TIP3    H245492   2.662   0.291  16.285  3.2479 -0.5680 -0.3439
 8001TIP3   OH245493   6.170   5.655  13.893 -0.4901  0.2037  0.4652
 8001TIP3    H145494   6.141   5.580  13.945 -0.7850 -0.6911 -0.9144
 8001TIP3    H245495   6.260   5.633  13.868 -0.4006  0.5471  0.4794
 8002TIP3   OH245496   1.361   5.010  13.592  0.3458  0.5154  0.3615
 8002TIP3    H145497   1.266   4.998  13.596  0.4865 -0.8006  0.1955
 8002TIP3    H245498   1.397   4.922  13.602  1.5134  0.8317 -0.7281
 8003TIP3   OH245499   6.878   4.323  11.406 -0.3492  0.4747 -0.1804
 8003TIP3    H145500   6.790   4.287  11.393 -0.2836  0.3243 -0.2174
 8003TIP3    H245501   6.924   4.257  11.459 -0.3720  0.7234  0.1533
 8004TIP3   OH245502   1.717   6.566   0.785  0.4573  0.8942  0.1511
 8004TIP3    H145503   1.809   6.541   0.790 -0.0118 -0.7691  1.4137
 8004TIP3    H245504   1.703   6.589   0.693  1.6085 -0.9833 -0.5431
 8005TIP3   OH245505   5.937   4.171   0.481  0.3330 -0.3473 -0.1860
 8005TIP3    H145506   5.949   4.220   0.400  0.2574 -0.1994 -0.1081
 8005TIP3    H245507   5.868   4.218   0.528  1.1616  0.2500  0.4806
 8006TIP3   OH245508   6.795   3.218   0.028  0.3890 -0.3403 -0.0696
 8006TIP3    H145509   6.717   3.255  -0.013 -0.0162 -0.9998  0.0893
 8006TIP3    H245510   6.814   3.140  -0.024 -0.4013 -1.4500  1.2177
 8007TIP3   OH245511   3.681   4.480   5.605  0.2796 -0.0228 -0.0478
 8007TIP3    H145512   3.637   4.428   5.671  2.1023  0.5872  1.7388
 8007TIP3    H245513   3.771   4.447   5.604  1.6719  3.3305  1.5562
 8008TIP3   OH245514   3.500   6.146  12.712  0.0633  0.0944  0.2225
 8008TIP3    H145515   3.578   6.171  12.762 -0.4750  0.2004  1.0268
 8008TIP3    H245516   3.462   6.229  12.684 -2.0467  0.3422  3.3865
 8009TIP3   OH245517   0.336   0.615   0.368 -0.5062  0.3878  0.1075
 8009TIP3    H145518   0.302   0.652   0.286 -1.3163 -0.1814  0.1657
 8009TIP3    H245519   0.404   0.554   0.340 -1.5537 -0.6597 -0.2547
 8010TIP3   OH245520   3.986   5.347   6.715 -0.2584  0.1362 -0.6836
 8010TIP3    H145521   4.049   5.300   6.660 -0.9275  1.0401 -2.2981
 8010TIP3    H245522   3.923   5.281   6.743  0.5111 -0.4737 -0.3644
 8011TIP3   OH245523   5.660   2.162  16.336 -0.6502 -0.1126 -0.0818
 8011TIP3    H145524   5.639   2.255  16.344  0.2917  0.0037  1.4190
 8011TIP3    H245525   5.657   2.129  16.426  0.1659 -1.2680 -0.4581
 8012TIP3   OH245526   2.640   5.213   0.062  0.8105  0.1665  0.3159
 8012TIP3    H145527   2.631   5.129   0.017 -1.0127  1.1662 -1.3631
 8012TIP3    H245528   2.730   5.239   0.048  1.4298 -1.5022  0.9257
 8013TIP3   OH245529   1.745   2.893  15.607  0.0359  0.2987  0.0687
 8013TIP3    H145530   1.661   2.922  15.572 -0.0974 -0.3332 -0.1567
 8013TIP3    H245531   1.736   2.798  15.614  1.3111  0.0212 -1.5324
 8014TIP3   OH245532   0.980   3.007  11.078  0.2149  0.6743  0.8733
 8014TIP3    H145533   1.068   3.004  11.116 -0.4245  1.4234  2.5171
 8014TIP3    H245534   0.976   3.091  11.033  1.6264 -0.9881 -2.7375
 8015TIP3   OH245535   6.437   1.292  15.846  0.4554  0.4024 -0.0360
 8015TIP3    H145536   6.478   1.249  15.771  0.7583 -0.7492  0.7618
 8015TIP3    H245537   6.504   1.352  15.878  0.8176 -0.0650  0.0972
 8016TIP3   OH245538   3.027   4.372   4.679 -0.0636  0.6088 -0.1812
 8016TIP3    H145539   3.046   4.379   4.773  0.5099 -1.1946 -0.1417
 8016TIP3    H245540   3.008   4.462   4.653 -1.8009  0.9689  1.9811
 8017TIP3   OH245541   2.399   2.889   0.417  0.2974  0.0751 -0.2086
 8017TIP3    H145542   2.350   2.824   0.367 -1.6304  1.3501 -0.1033
 8017TIP3    H245543   2.421   2.957   0.352 -0.4380  0.7699  0.2457
 8018TIP3   OH245544   4.448   5.628   1.748  0.5089  0.2542  0.6860
 8018TIP3    H145545   4.373   5.620   1.808 -1.0904  1.6527 -1.0046
 8018TIP3    H245546   4.496   5.704   1.780 -1.5816  2.4162 -0.9163
 8019TIP3   OH245547   4.043   0.752   0.715  0.2181 -0.4526  0.3950
 8019TIP3    H145548   3.994   0.831   0.737 -1.2668 -0.8096 -1.3981
 8019TIP3    H245549   3.979   0.681   0.723  1.7092 -1.6423  2.7139
 8020TIP3   OH245550   2.128   0.434   3.375  0.5723 -0.2141  0.7038
 8020TIP3    H145551   2.134   0.395   3.462  0.4936  2.0824  1.8013
 8020TIP3    H245552   2.040   0.472   3.372  0.1437 -1.2180 -0.8492
 8021TIP3   OH245553   4.425   1.535  11.494  0.9292  0.1360 -0.1064
 8021TIP3    H145554   4.343   1.530  11.445  0.0263 -1.9383  1.5029
 8021TIP3    H245555   4.484   1.474  11.447 -0.0489 -2.1336  1.4357
 8022TIP3   OH245556   2.362   2.099  13.095 -0.5073  0.2498 -0.4296
 8022TIP3    H145557   2.350   2.192  13.116  0.4637  0.8369 -2.2582
 8022TIP3    H245558   2.396   2.099  13.005 -1.0943 -1.9109 -0.7044
 8023TIP3   OH245559   5.538   6.253   3.404 -0.8720 -0.3332  0.1178
 8023TIP3    H145560   5.588   6.182   3.444 -1.4779 -0.9601 -0.2184
 8023TIP3    H245561   5.530   6.318   3.473 -1.1159 -1.0064  0.7397
 8024TIP3   OH245562   5.201   0.133  14.831 -0.1864 -0.2310 -0.1836
 8024TIP3    H145563   5.166   0.138  14.742  1.5317 -0.8613 -0.9464
 8024TIP3    H245564   5.129   0.162  14.887 -1.3505  0.0670 -1.7604
 8025TIP3   OH245565   4.338   1.585  12.147 -0.6108 -0.5150 -0.4794
 8025TIP3    H145566   4.424   1.607  12.182 -1.7359  2.9814  0.4650
 8025TIP3    H245567   4.286   1.563  12.224 -0.9776 -1.1462 -0.8974
 8026TIP3   OH245568   0.752   0.060   3.132  0.0601 -0.0396 -0.1404
 8026TIP3    H145569   0.795   0.101   3.207  3.0439 -1.3420 -0.9796
 8026TIP3    H245570   0.755   0.126   3.063  0.8732 -0.1505 -0.2184
 8027TIP3   OH245571   5.189   5.188  11.738 -0.5633  0.2870 -0.3441
 8027TIP3    H145572   5.225   5.112  11.784 -0.9029 -0.1990 -0.8726
 8027TIP3    H245573   5.178   5.159  11.648  1.7650  1.7479 -1.1944
 8028TIP3   OH245574   0.309   0.417   5.447 -0.8767  0.0720 -0.2989
 8028TIP3    H145575   0.360   0.475   5.391  0.0191 -0.7177 -0.3263
 8028TIP3    H245576   0.303   0.464   5.530  0.6391 -0.1480 -0.0205
 8029TIP3   OH245577   5.485   3.896   1.851  0.3256  0.2438 -0.5055
 8029TIP3    H145578   5.562   3.855   1.810 -1.2104 -1.2513 -2.0280
 8029TIP3    H245579   5.517   3.925   1.937  1.8799 -3.2027  0.2628
 8030TIP3   OH245580   0.466   6.802   1.611 -0.0477 -0.3101 -0.4813
 8030TIP3    H145581   0.409   6.741   1.657 -2.2738  0.8590 -1.5152
 8030TIP3    H245582   0.469   6.769   1.521  0.9796 -0.3688 -0.4421
 8031TIP3   OH245583   5.689   2.951   1.310 -0.0960 -0.3360 -0.2818
 8031TIP3    H145584   5.754   3.005   1.267 -0.2218  1.3254  1.4536
 8031TIP3    H245585   5.609   2.964   1.260 -0.0228  0.8030 -0.1143
 8032TIP3   OH245586   6.003   3.973   4.605  0.3085  0.2284 -0.0311
 8032TIP3    H145587   5.955   4.005   4.528  0.9136  0.7842 -0.1813
 8032TIP3    H245588   5.977   4.031   4.676 -1.2095 -1.0280  0.5039
 8033TIP3   OH245589   5.173   1.999  11.716 -0.4303  0.3069 -0.1371
 8033TIP3    H145590   5.260   2.012  11.752 -0.4774  1.3463 -0.3568
 8033TIP3    H245591   5.187   1.977  11.624 -0.4134  1.8407 -0.5297
 8034TIP3   OH245592   3.336   1.239  16.631 -0.2928  0.0283 -0.0197
 8034TIP3    H145593   3.349   1.242  16.726  0.3895 -0.3677 -0.0931
 8034TIP3    H245594   3.297   1.324  16.609  0.0140  0.3200  0.5512
 8035TIP3   OH245595   6.205   2.102   4.568  0.4814 -0.2410 -0.1383
 8035TIP3    H145596   6.197   2.175   4.629 -0.2531  1.3527 -2.0188
 8035TIP3    H245597   6.253   2.138   4.493 -0.3258 -1.5383 -1.3361
 8036TIP3   OH245598   5.701   6.521   2.438  0.2062 -0.1923 -0.2733
 8036TIP3    H145599   5.666   6.432   2.436 -0.4370  0.0547 -1.5694
 8036TIP3    H245600   5.778   6.517   2.381  0.9698 -0.1994  0.7249
 8037TIP3   OH245601   1.852   1.103   0.379  0.2501  0.0546  0.0729
 8037TIP3    H145602   1.763   1.069   0.387  0.1668  0.3491  0.4406
 8037TIP3    H245603   1.863   1.121   0.285 -0.2896  0.5655  0.1032
 8038TIP3   OH245604   2.140   6.083  15.485 -0.1313  0.2292 -0.2053
 8038TIP3    H145605   2.047   6.059  15.487  0.5104 -2.4374  0.7843
 8038TIP3    H245606   2.171   6.067  15.574  1.0332  2.3863 -0.1603
 8039TIP3   OH245607   5.265   6.422  15.782  0.7468  0.1314  0.5994
 8039TIP3    H145608   5.305   6.435  15.867  2.3287  0.7809 -0.1978
 8039TIP3    H245609   5.237   6.510  15.755  0.7382  0.0195  0.2331
 8040TIP3   OH245610   1.288   0.750  16.060  0.0878  0.2915 -0.3267
 8040TIP3    H145611   1.201   0.714  16.075  0.2195 -0.3398 -0.9962
 8040TIP3    H245612   1.302   0.740  15.965  1.4789 -1.0416 -0.0309
 8041TIP3   OH245613   0.642   1.997   0.430  0.1260  0.5927 -0.0940
 8041TIP3    H145614   0.594   2.036   0.357 -0.7640  1.1799  0.7865
 8041TIP3    H245615   0.709   2.062   0.451 -2.0017  2.2177  2.0416
 8042TIP3   OH245616   6.012   4.213  13.770  0.2730  0.0697 -1.0624
 8042TIP3    H145617   6.076   4.242  13.835  0.8806 -0.7987 -1.2472
 8042TIP3    H245618   5.980   4.129  13.804 -0.8005  0.5163 -0.9542
 8043TIP3   OH245619   6.289   0.642   0.030  1.0410 -0.5187 -0.1224
 8043TIP3    H145620   6.342   0.585   0.086  0.9961 -0.1472  0.3024
 8043TIP3    H245621   6.198   0.615   0.047  1.0740 -0.9945 -0.6715
 8044TIP3   OH245622   0.933   4.784  13.137  0.5377  0.0840 -0.3278
 8044TIP3    H145623   0.930   4.879  13.142 -2.1961  0.1027 -0.5886
 8044TIP3    H245624   0.991   4.765  13.064  1.6223  1.5000  0.1310
 8045TIP3   OH245625   4.100   3.802  16.547 -0.0754 -0.1845 -0.2131
 8045TIP3    H145626   4.188   3.837  16.535 -0.0048 -0.4483 -0.4987
 8045TIP3    H245627   4.042   3.874  16.521  0.0752 -0.5463 -1.6410
 8046TIP3   OH245628   6.186   4.766   0.248  0.4255  0.7520  0.7527
 8046TIP3    H145629   6.235   4.847   0.237  0.6375  0.5277 -0.0272
 8046TIP3    H245630   6.246   4.708   0.296  0.2195  1.0961  1.4338
 8047TIP3   OH245631   4.287   6.531   5.721  0.0184  0.0787  0.6715
 8047TIP3    H145632   4.351   6.543   5.792  0.5228 -1.2921  0.4634
 8047TIP3    H245633   4.207   6.503   5.766  0.2557 -0.5164  0.7259
 8048TIP3   OH245634   4.588   3.092  13.893 -0.0718  0.4086 -0.4956
 8048TIP3    H145635   4.603   3.187  13.893 -0.2838  0.4673  0.8005
 8048TIP3    H245636   4.652   3.059  13.956 -0.4434 -0.2261 -0.4457
 8049TIP3   OH245637   6.318   6.257   4.466  0.7037 -0.1374 -0.2534
 8049TIP3    H145638   6.372   6.187   4.428 -0.1057 -0.6308 -0.5324
 8049TIP3    H245639   6.267   6.213   4.533 -1.2751 -0.2765 -1.7580
 8050TIP3   OH245640   6.101   3.403  14.800 -0.5723  0.6246  0.1420
 8050TIP3    H145641   6.193   3.426  14.805 -0.9537  2.0044  1.4816
 8050TIP3    H245642   6.095   3.344  14.725  1.3126  0.8497 -0.2289
 8051TIP3   OH245643   5.697   4.464   1.834 -0.3286 -0.0304  0.6727
 8051TIP3    H145644   5.735   4.383   1.869  0.0395 -0.0043  0.3425
 8051TIP3    H245645   5.640   4.496   1.904 -0.6165 -0.6712  0.7319
 8052TIP3   OH245646   4.542   6.494  15.838  0.4985  0.3509  0.0989
 8052TIP3    H145647   4.501   6.580  15.849  1.1718  0.9759 -1.8538
 8052TIP3    H245648   4.626   6.503  15.882  0.3675  0.5332  0.3161
 8053TIP3   OH245649   0.119   4.364   1.536 -0.1155  0.0677  0.6059
 8053TIP3    H145650   0.105   4.426   1.607 -1.1882  0.2006  0.2997
 8053TIP3    H245651   0.088   4.280   1.570  1.2118 -0.2934  0.9736
 8054TIP3   OH245652   1.474   5.690  14.469 -0.4567  0.6230  0.1778
 8054TIP3    H145653   1.406   5.625  14.490 -2.2966  2.7243  1.1200
 8054TIP3    H245654   1.555   5.649  14.498 -1.7380 -0.6514  2.2767
 8055TIP3   OH245655   6.059   0.642   2.976  0.1294 -0.2370 -0.1052
 8055TIP3    H145656   6.115   0.648   2.899 -1.4702 -2.1416 -1.5046
 8055TIP3    H245657   5.979   0.687   2.951  0.2042  0.6083  1.0988
 8056TIP3   OH245658   2.797   3.573  14.663  0.5770 -0.3917 -0.1278
 8056TIP3    H145659   2.884   3.574  14.621  0.7425 -0.3151  0.2162
 8056TIP3    H245660   2.812   3.529  14.746  0.3237 -0.1920  0.0219
 8057TIP3   OH245661   0.058   1.064   5.402  0.0654 -0.4632 -0.3223
 8057TIP3    H145662   0.015   1.076   5.487  0.1288 -1.1259 -0.1843
 8057TIP3    H245663   0.128   1.128   5.401 -0.1822 -0.1852 -0.0386
 8058TIP3   OH245664   4.185   4.557   2.134 -0.6732  0.7063  0.3495
 8058TIP3    H145665   4.103   4.519   2.104  1.1763 -4.1157  0.5956
 8058TIP3    H245666   4.184   4.646   2.098 -5.6070  0.7508 -0.1399
 8059TIP3   OH245667   3.328   4.994  12.515  0.3317 -0.3200  0.0735
 8059TIP3    H145668   3.338   4.959  12.604 -1.7880  0.7876  0.8089
 8059TIP3    H245669   3.254   4.945  12.478  0.1194  0.3877 -0.4596
 8060TIP3   OH245670   3.393   4.223  14.413  0.4757  0.3433  0.3472
 8060TIP3    H145671   3.468   4.210  14.356  0.9692 -1.0608  1.2519
 8060TIP3    H245672   3.375   4.136  14.449 -0.4760  0.9843  1.5110
 8061TIP3   OH245673   6.711   4.798   4.305  0.0622 -0.4543 -0.1815
 8061TIP3    H145674   6.713   4.778   4.398 -2.7149 -0.5606 -0.0591
 8061TIP3    H245675   6.694   4.892   4.301 -0.6610 -0.5874 -0.5341
 8062TIP3   OH245676   6.371   2.654   4.296 -0.0602 -0.2044  0.5582
 8062TIP3    H145677   6.313   2.722   4.332  0.3321 -0.6737  2.1620
 8062TIP3    H245678   6.315   2.604   4.238 -0.5710  0.9799 -0.0108
 8063TIP3   OH245679   1.574   1.204   0.193  0.6864  0.4574 -0.8752
 8063TIP3    H145680   1.531   1.146   0.255  1.5296  1.8344  1.1428
 8063TIP3    H245681   1.577   1.155   0.111 -0.5394 -1.4380  0.1425
 8064TIP3   OH245682   0.312   1.813   1.736  0.0351  0.0283  0.0560
 8064TIP3    H145683   0.347   1.849   1.818 -0.2732  0.3119  0.0647
 8064TIP3    H245684   0.250   1.746   1.765  1.5153 -1.4231  0.0373
 8065TIP3   OH245685   5.489   3.859  13.321 -0.2608 -0.0904  0.3053
 8065TIP3    H145686   5.548   3.934  13.315  1.0734 -0.9312  2.0342
 8065TIP3    H245687   5.527   3.804  13.389 -1.4378 -2.1465 -0.6144
 8066TIP3   OH245688   2.223   6.584  15.165 -0.0113  0.0050  0.4262
 8066TIP3    H145689   2.257   6.671  15.185 -0.2492  0.0658  0.5771
 8066TIP3    H245690   2.131   6.587  15.193 -0.2647 -0.0164 -0.3884
 8067TIP3   OH245691   2.839   4.375  16.120 -0.2511 -0.2123 -0.2142
 8067TIP3    H145692   2.913   4.400  16.175 -1.0451 -0.9963  1.2483
 8067TIP3    H245693   2.762   4.401  16.170 -1.0701 -3.3516  0.3504
 8068TIP3   OH245694   1.971   4.983   1.051  0.2591  0.2855  0.3780
 8068TIP3    H145695   1.988   4.900   1.007 -1.9332 -0.1128  0.1852
 8068TIP3    H245696   1.974   4.963   1.144  1.3628  0.3722  0.3755
 8069TIP3   OH245697   5.374   2.599   2.635 -0.1218 -0.4409 -0.0480
 8069TIP3    H145698   5.447   2.540   2.614 -2.3745 -3.3333 -0.3575
 8069TIP3    H245699   5.301   2.541   2.656 -2.6453  2.2495 -0.6715
 8070TIP3   OH245700   3.854   2.829   1.566  0.9471  0.0045  0.1727
 8070TIP3    H145701   3.780   2.770   1.580  1.4707 -0.5858  0.5193
 8070TIP3    H245702   3.822   2.893   1.503  0.6719 -1.2271 -0.9870
 8071TIP3   OH245703   2.167   4.712   3.681 -0.0524 -0.2138  0.1548
 8071TIP3    H145704   2.075   4.687   3.690  0.2260 -1.5495 -0.3782
 8071TIP3    H245705   2.211   4.631   3.652  0.8320  1.0296 -2.2679
 8072TIP3   OH245706   1.259   4.338   1.826  0.0858 -0.0302 -0.4199
 8072TIP3    H145707   1.309   4.256   1.826  3.1162  1.5622  2.2735
 8072TIP3    H245708   1.258   4.366   1.734  1.7512 -1.5639 -0.9596
 8073TIP3   OH245709   2.016   1.802   3.937 -0.0620  0.0101  0.0454
 8073TIP3    H145710   2.081   1.843   3.994  0.3080 -0.2558 -0.1766
 8073TIP3    H245711   2.003   1.864   3.866 -0.5840  0.3781  0.4519
 8074TIP3   OH245712   5.319   6.349  16.211 -0.4971 -0.3648  0.1752
 8074TIP3    H145713   5.240   6.359  16.159  0.3035 -0.6643 -1.1437
 8074TIP3    H245714   5.330   6.254  16.221  0.1048 -0.3569 -0.3245
 8075TIP3   OH245715   4.562   1.568   2.860 -0.1669  0.0351 -0.8067
 8075TIP3    H145716   4.538   1.639   2.920  2.9830 -0.6041  1.4862
 8075TIP3    H245717   4.499   1.575   2.788 -2.7975  2.2845  1.4653
 8076TIP3   OH245718   1.856   3.468   5.424  0.1019 -0.1881 -0.0800
 8076TIP3    H145719   1.762   3.471   5.408 -0.5574 -3.2269  2.2664
 8076TIP3    H245720   1.871   3.533   5.492 -1.0656 -1.9382  1.9998
 8077TIP3   OH245721   5.820   0.241   4.086 -0.3415 -0.3856 -0.0660
 8077TIP3    H145722   5.828   0.150   4.116 -1.7282 -0.9707 -1.3494
 8077TIP3    H245723   5.759   0.282   4.147 -0.1763 -0.4778  0.1620
 8078TIP3   OH245724   5.636   3.795   0.710  0.5331 -0.6622  0.1561
 8078TIP3    H145725   5.729   3.797   0.686  0.7909 -3.7328  0.5376
 8078TIP3    H245726   5.624   3.710   0.751 -1.8442  0.8010  2.8389
 8079TIP3   OH245727   2.547   0.438  15.425  0.3660 -0.3936  0.2146
 8079TIP3    H145728   2.527   0.355  15.469 -1.9545  0.0771  0.1933
 8079TIP3    H245729   2.627   0.420  15.375 -0.0337 -2.6054  0.2432
 8080TIP3   OH245730   0.493   1.915   0.655  0.8626  0.0322 -0.1880
 8080TIP3    H145731   0.436   1.988   0.676  1.2985  0.3088  0.0564
 8080TIP3    H245732   0.560   1.952   0.597  2.1984  0.3012  1.4557
 8081TIP3   OH245733   3.203   3.140   0.650 -0.2065 -0.1639  0.4084
 8081TIP3    H145734   3.224   3.095   0.732  2.8353 -0.9616 -0.6657
 8081TIP3    H245735   3.129   3.197   0.672  0.5412 -0.2581  3.7216
 8082TIP3   OH245736   3.686   3.439   1.123 -0.2182 -0.3471  0.5368
 8082TIP3    H145737   3.615   3.501   1.138 -0.2945  0.1351 -1.5332
 8082TIP3    H245738   3.651   3.356   1.155 -1.3786  0.0529  0.3820
 8083TIP3   OH245739   1.326   3.545  11.679  0.3994  0.0197 -0.0004
 8083TIP3    H145740   1.370   3.536  11.764  0.2664 -1.7606 -0.0754
 8083TIP3    H245741   1.258   3.477  11.681 -0.3454  0.7181 -1.0908
 8084TIP3   OH245742   0.908   3.129  11.894 -0.2067 -0.6436 -0.4530
 8084TIP3    H145743   0.957   3.101  11.971  0.4167  1.0395 -0.1770
 8084TIP3    H245744   0.840   3.187  11.930 -0.7372 -0.8876 -1.0608
 8085TIP3   OH245745   2.475   4.791  12.384  0.0653  0.0645  0.4270
 8085TIP3    H145746   2.496   4.722  12.321  0.1816 -0.0902  0.6356
 8085TIP3    H245747   2.451   4.866  12.330  0.1570 -0.0717  0.1964
 8086TIP3   OH245748   2.772   1.760  14.101  0.3706 -0.4207  0.3387
 8086TIP3    H145749   2.791   1.853  14.092 -0.0730 -0.1898  1.6104
 8086TIP3    H245750   2.687   1.756  14.145 -0.7593 -1.4438 -1.7381
 8087TIP3   OH245751   2.511   1.965   2.400 -0.0808 -0.0606 -0.2238
 8087TIP3    H145752   2.534   2.057   2.417  0.3317 -0.0856 -0.6256
 8087TIP3    H245753   2.590   1.927   2.363 -0.0944 -0.7182  0.4140
 8088TIP3   OH245754   5.920   6.537   2.288 -0.6698  0.4269 -0.4885
 8088TIP3    H145755   5.941   6.612   2.234  0.9183  0.2549 -0.1730
 8088TIP3    H245756   6.005   6.497   2.307 -1.4012 -0.9143  0.1038
 8089TIP3   OH245757   4.098   4.419  15.689  0.0465  0.0082  0.0210
 8089TIP3    H145758   4.040   4.494  15.679  1.0584  0.7793 -0.1863
 8089TIP3    H245759   4.086   4.368  15.609 -0.7492 -0.1372  0.2262
 8090TIP3   OH245760   6.766   0.945  16.260  0.1459  0.1898  0.1735
 8090TIP3    H145761   6.833   0.983  16.203  0.7198  0.9424  1.3245
 8090TIP3    H245762   6.770   0.851  16.242 -0.1604  0.4582 -1.5197
 8091TIP3   OH245763   3.826   1.025   1.414  0.7720  0.5994 -0.0893
 8091TIP3    H145764   3.797   1.015   1.324 -0.7567  0.0853  0.4309
 8091TIP3    H245765   3.910   0.979   1.418 -0.6565 -2.3306 -0.5226
 8092TIP3   OH245766   3.037   1.073  16.415 -0.6981  0.0115 -0.3305
 8092TIP3    H145767   3.105   1.124  16.372 -1.5843  1.1010 -0.5062
 8092TIP3    H245768   2.957   1.096  16.368 -1.2163 -1.1000 -0.0191
 8093TIP3   OH245769   4.955   6.333   6.274  0.1463  0.1730  0.3505
 8093TIP3    H145770   4.909   6.358   6.355 -1.9821  0.8648 -0.9917
 8093TIP3    H245771   5.019   6.402   6.260 -0.9425  1.2219  0.3524
 8094TIP3   OH245772   3.244   2.921  13.718  0.2230  0.0136  0.0922
 8094TIP3    H145773   3.316   2.984  13.716 -0.1262  0.5862  2.5268
 8094TIP3    H245774   3.165   2.975  13.722 -0.1792 -0.5815  0.3569
 8095TIP3   OH245775   1.300   6.859  10.933 -0.5290  0.1198 -0.2806
 8095TIP3    H145776   1.331   6.948  10.949  0.3826 -0.7669  4.1115
 8095TIP3    H245777   1.222   6.850  10.989 -0.3671 -1.9384 -0.2865
 8096TIP3   OH245778   3.579   5.553  15.181 -0.2134  0.5457 -0.0365
 8096TIP3    H145779   3.598   5.626  15.240 -0.2855 -0.4308  1.2307
 8096TIP3    H245780   3.650   5.556  15.116  0.8207  0.6483  1.0617
 8097TIP3   OH245781   0.178   2.769   2.777 -0.4777  0.0803  0.3718
 8097TIP3    H145782   0.152   2.678   2.762 -0.3357  0.2879 -1.4076
 8097TIP3    H245783   0.103   2.809   2.821  0.0264 -1.2065  2.5516
 8098TIP3   OH245784   3.378   4.652  16.895  0.4377 -0.0175 -0.8415
 8098TIP3    H145785   3.334   4.570  16.874  1.8871 -0.6450 -1.5938
 8098TIP3    H245786   3.419   4.636  16.981 -1.5740  0.9254  0.3737
 8099TIP3   OH245787   5.209   0.768   2.492  0.3867  0.3388 -0.4741
 8099TIP3    H145788   5.156   0.704   2.445  1.1212 -0.6484  0.0162
 8099TIP3    H245789   5.203   0.742   2.584  0.4370  1.1722 -0.2201
 8100TIP3   OH245790   2.233   1.940  16.324 -0.6583  0.1464 -0.1924
 8100TIP3    H145791   2.297   2.010  16.315 -0.4788 -0.1274 -1.1768
 8100TIP3    H245792   2.212   1.915  16.234 -1.1732 -0.6513  0.1365
 8101TIP3   OH245793   1.104   2.643   3.689 -0.8300 -0.1208 -0.4476
 8101TIP3    H145794   1.021   2.660   3.735 -0.7708  0.5864 -0.5827
 8101TIP3    H245795   1.172   2.659   3.755 -0.7912 -0.4187 -0.4156
 8102TIP3   OH245796   0.208   5.612  12.123 -0.3611 -0.0293  0.4632
 8102TIP3    H145797   0.277   5.591  12.185 -0.8135 -0.7664  0.7250
 8102TIP3    H245798   0.204   5.708  12.123  1.1029  0.0588 -0.0567
 8103TIP3   OH245799   3.892   2.448   1.116  0.7387  0.1501  0.1582
 8103TIP3    H145800   3.868   2.541   1.121  1.6487  0.3567  1.2034
 8103TIP3    H245801   3.830   2.405   1.175  1.8427  0.4665  1.6205
 8104TIP3   OH245802   0.607   1.200  16.582  0.4680 -0.2864 -0.4399
 8104TIP3    H145803   0.559   1.198  16.665 -1.3563  0.6119 -1.4205
 8104TIP3    H245804   0.580   1.120  16.538  1.2314 -0.6291 -0.3039
 8105TIP3   OH245805   3.694   2.637  15.008  0.1775  0.7716 -0.1873
 8105TIP3    H145806   3.668   2.717  14.962 -1.1182  0.7581  0.4765
 8105TIP3    H245807   3.740   2.667  15.086  0.5862  0.8319 -0.4456
 8106TIP3   OH245808   1.758   6.751   5.275  0.1814  0.3213  0.2815
 8106TIP3    H145809   1.674   6.707   5.288 -1.0163  2.1725 -0.7157
 8106TIP3    H245810   1.734   6.839   5.245  2.4905  0.9074 -0.0021
 8107TIP3   OH245811   0.989   4.358   1.343  0.0206  0.2093  0.2320
 8107TIP3    H145812   1.049   4.283   1.349  1.0879  1.0336  0.2174
 8107TIP3    H245813   0.985   4.377   1.249  1.0290  1.1367  0.3522
 8108TIP3   OH245814   5.617   5.365   3.474  0.8084  0.6387 -0.5348
 8108TIP3    H145815   5.649   5.396   3.559  0.2670 -0.3323  0.0505
 8108TIP3    H245816   5.615   5.269   3.483  0.5096  0.5355 -1.5610
 8109TIP3   OH245817   0.673   1.960  13.371  0.3239  0.7975 -0.1605
 8109TIP3    H145818   0.636   1.881  13.410 -0.4782  0.9916 -0.5053
 8109TIP3    H245819   0.597   2.011  13.342  0.8094  1.8896  0.4166
 8110TIP3   OH245820   2.834   4.875  13.737  0.2831 -0.5096  0.0690
 8110TIP3    H145821   2.908   4.920  13.697  0.1231 -0.8829 -0.6658
 8110TIP3    H245822   2.771   4.944  13.758 -1.4203 -0.5511 -4.0486
 8111TIP3   OH245823   5.528   6.234   1.884 -0.2239  0.2811 -0.5381
 8111TIP3    H145824   5.524   6.152   1.935 -0.2027  0.6791  0.1147
 8111TIP3    H245825   5.474   6.295   1.933  1.2354  1.2015 -0.0166
 8112TIP3   OH245826   0.347   1.056   3.360  0.7608  0.2808 -0.0671
 8112TIP3    H145827   0.303   1.099   3.287  0.7617  2.3639  1.0627
 8112TIP3    H245828   0.399   0.987   3.320  0.3073  0.9666 -1.9470
 8113TIP3   OH245829   1.784   3.948   4.513  0.4693  0.5361 -0.1576
 8113TIP3    H145830   1.807   3.907   4.597  3.7496  1.2121 -0.5740
 8113TIP3    H245831   1.749   3.877   4.460  0.6506 -0.4459  1.0014
 8114TIP3   OH245832   4.465   4.701  11.357 -0.5001  0.0636 -0.0499
 8114TIP3    H145833   4.390   4.666  11.310 -1.2020 -0.3704  1.3350
 8114TIP3    H245834   4.429   4.733  11.440  0.7929  0.1667  0.4970
 8115TIP3   OH245835   1.187   2.260   4.276  0.7564  0.3067 -0.3515
 8115TIP3    H145836   1.265   2.312   4.257  0.7514  0.0012 -1.2792
 8115TIP3    H245837   1.134   2.317   4.332  1.6363  0.5141  0.3011
 8116TIP3   OH245838   1.590   2.730  11.325 -0.1756  0.1305 -0.1562
 8116TIP3    H145839   1.595   2.658  11.263 -1.5430  1.1629 -1.5184
 8116TIP3    H245840   1.674   2.729  11.371  1.5453  0.3009 -3.1148
 8117TIP3   OH245841   6.281   2.805   1.018 -0.1171  0.1448 -0.1715
 8117TIP3    H145842   6.194   2.764   1.012 -0.5891  0.8546  1.4985
 8117TIP3    H245843   6.341   2.731   1.025 -0.5846 -0.3479 -1.0829
 8118TIP3   OH245844   2.894   4.837   3.718 -0.1753  0.0132  0.2186
 8118TIP3    H145845   2.827   4.860   3.654  0.8273 -0.9024 -1.2234
 8118TIP3    H245846   2.977   4.844   3.669  0.5411 -1.6243  1.1322
 8119TIP3   OH245847   4.553   0.970   3.893 -0.0700 -0.0032 -0.4208
 8119TIP3    H145848   4.460   0.950   3.888 -0.1719  0.6066 -1.0627
 8119TIP3    H245849   4.573   1.015   3.811  0.6096  0.5934  0.0550
 8120TIP3   OH245850   4.834   5.953  11.568 -0.5611 -0.1803 -0.1664
 8120TIP3    H145851   4.851   5.972  11.475 -0.6740  2.0722  0.2327
 8120TIP3    H245852   4.920   5.959  11.609 -0.5441 -0.9875 -0.0501
 8121TIP3   OH245853   0.332   3.987  12.587 -0.4687 -0.2053  0.3235
 8121TIP3    H145854   0.382   4.069  12.587  0.5862 -0.8105  1.9580
 8121TIP3    H245855   0.318   3.968  12.494 -0.0126  1.3861 -0.1023
 8122TIP3   OH245856   6.525   6.647   5.778  0.3563 -0.1067 -0.0141
 8122TIP3    H145857   6.621   6.646   5.785  0.4250 -2.3673 -0.3990
 8122TIP3    H245858   6.494   6.640   5.868  0.6340 -1.5031 -0.0024
 8123TIP3   OH245859   1.261   4.142  16.907  0.1955 -0.3820 -0.3820
 8123TIP3    H145860   1.174   4.116  16.876 -0.4858 -0.2325  1.3079
 8123TIP3    H245861   1.319   4.120  16.835 -1.0840 -1.5918 -1.0985
 8124TIP3   OH245862   1.443   4.469  11.091 -0.1840  0.0427 -1.1251
 8124TIP3    H145863   1.405   4.381  11.089 -1.5281  0.5958 -0.8937
 8124TIP3    H245864   1.517   4.464  11.030  0.2976 -1.4662 -0.4645
 8125TIP3   OH245865   2.460   3.281   2.179 -0.4058  0.6725  0.0745
 8125TIP3    H145866   2.539   3.327   2.207  0.4008 -1.0133  0.7052
 8125TIP3    H245867   2.491   3.213   2.119 -0.8700 -2.0455  2.6537
 8126TIP3   OH245868   6.272   6.150   1.337 -0.2880  0.0584 -0.0100
 8126TIP3    H145869   6.271   6.088   1.263  0.3313 -1.3441  1.1072
 8126TIP3    H245870   6.183   6.186   1.339  0.0087  1.0855 -2.1738
 8127TIP3   OH245871   0.661   2.309  16.789 -0.2184  0.1556 -0.0456
 8127TIP3    H145872   0.754   2.331  16.787 -0.3898  1.0030  0.4922
 8127TIP3    H245873   0.628   2.339  16.705  0.0192 -0.2459 -0.2813
 8128TIP3   OH245874   5.080   6.205  13.407  0.3321  0.1524  0.0061
 8128TIP3    H145875   5.147   6.263  13.371  0.5962  0.0083  0.2604
 8128TIP3    H245876   5.002   6.225  13.356  0.5055  0.4923 -0.1356
 8129TIP3   OH245877   0.261   0.287  11.726  0.6797 -0.2030  0.8672
 8129TIP3    H145878   0.292   0.356  11.667 -0.7639  0.8460  1.2580
 8129TIP3    H245879   0.331   0.222  11.726 -0.2059 -1.6084 -4.0496
 8130TIP3   OH245880   0.332   6.634  14.117 -0.3982  0.4447 -0.3383
 8130TIP3    H145881   0.328   6.673  14.030  1.1208 -3.0462 -2.1757
 8130TIP3    H245882   0.246   6.595  14.130 -0.3408  0.1927 -0.7003
 8131TIP3   OH245883   2.563   4.260  11.842  0.4970 -0.4858  0.0882
 8131TIP3    H145884   2.521   4.176  11.858  0.4059 -0.6544 -0.9374
 8131TIP3    H245885   2.637   4.263  11.902 -0.7887 -0.3061  1.7318
 8132TIP3   OH245886   2.653   0.018  14.616  0.2772 -0.1856  0.1083
 8132TIP3    H145887   2.572   0.068  14.630  0.4049 -0.0074  0.2039
 8132TIP3    H245888   2.666   0.019  14.521 -1.5206 -2.8324 -0.2993
 8133TIP3   OH245889   3.551   6.346   1.116 -0.1775 -0.0664  0.1850
 8133TIP3    H145890   3.476   6.334   1.058 -1.8163 -0.2394  2.2231
 8133TIP3    H245891   3.564   6.441   1.119  0.6198 -0.1107 -1.2622
 8134TIP3   OH245892   2.066   3.200   0.622 -0.2366 -1.0472 -0.0230
 8134TIP3    H145893   2.068   3.225   0.530  1.7217  0.3407  0.3354
 8134TIP3    H245894   2.140   3.141   0.634  1.1371  0.7862  1.1086
 8135TIP3   OH245895   5.565   0.408  14.196  0.0639  0.1217  0.7692
 8135TIP3    H145896   5.611   0.473  14.143 -0.7871 -0.0276 -0.1806
 8135TIP3    H245897   5.535   0.456  14.273 -0.7014  0.9048  0.0019
 8136TIP3   OH245898   0.961   5.625  16.035 -0.7532  0.4990  0.9207
 8136TIP3    H145899   0.886   5.616  16.094 -1.2165 -0.0702  0.2627
 8136TIP3    H245900   0.952   5.714  15.999 -1.9131 -0.0291 -0.1847
 8137TIP3   OH245901   3.890   2.832   2.849 -0.0583  0.3091 -0.5337
 8137TIP3    H145902   3.795   2.838   2.840 -0.5239 -0.9690  2.5036
 8137TIP3    H245903   3.912   2.744   2.820 -0.2823 -0.4683  1.5085
 8138TIP3   OH245904   0.922   1.301   3.658 -0.2978 -0.0290  0.4579
 8138TIP3    H145905   0.860   1.309   3.585  1.0706 -1.0405 -0.8684
 8138TIP3    H245906   1.006   1.328   3.621  0.3893 -0.3227  1.7538
 8139TIP3   OH245907   2.049   3.874  12.629  0.0713  0.1659  0.3139
 8139TIP3    H145908   2.024   3.799  12.683  0.2659 -0.0195  0.1471
 8139TIP3    H245909   2.096   3.932  12.689  2.5205 -1.1687 -0.1593
 8140TIP3   OH245910   3.530   4.105  11.511 -0.7722  0.0910 -0.0322
 8140TIP3    H145911   3.470   4.057  11.454 -0.4926 -0.2985 -0.0026
 8140TIP3    H245912   3.474   4.166  11.559 -1.4054 -1.3897  1.1899
 8141TIP3   OH245913   3.984   1.428  16.348 -0.1636  0.3079  0.2525
 8141TIP3    H145914   3.966   1.474  16.430 -0.8495  1.0130 -0.2792
 8141TIP3    H245915   3.906   1.442  16.295 -0.6992 -2.0322  0.2898
 8142TIP3   OH245916   4.837   0.263   5.456 -0.3215  0.3440 -0.0496
 8142TIP3    H145917   4.912   0.222   5.501  0.4786  0.8375 -0.8915
 8142TIP3    H245918   4.869   0.280   5.368 -0.9343  1.9222 -0.0021
 8143TIP3   OH245919   3.860   6.250  15.657  0.2732 -0.5554 -0.1910
 8143TIP3    H145920   3.772   6.216  15.672  0.6235 -1.0351  0.9074
 8143TIP3    H245921   3.916   6.195  15.712  1.0334  0.8611  0.4969
 8144TIP3   OH245922   6.658   1.635  11.632  0.1551  0.2360 -0.1471
 8144TIP3    H145923   6.714   1.670  11.563  0.2675  0.7253  0.1831
 8144TIP3    H245924   6.612   1.712  11.667  2.2670  0.5483  2.2901
 8145TIP3   OH245925   4.181   0.197   3.541  0.2115 -0.2455 -0.0605
 8145TIP3    H145926   4.150   0.288   3.548  0.9177  0.1660 -1.6955
 8145TIP3    H245927   4.109   0.145   3.576 -2.0454  0.7144 -2.8680
 8146TIP3   OH245928   4.544   3.868  12.481  0.4474 -0.0813 -0.3290
 8146TIP3    H145929   4.618   3.807  12.486 -0.1204 -0.7012  1.7707
 8146TIP3    H245930   4.499   3.846  12.400  1.2549 -1.2787 -0.4756
 8147TIP3   OH245931   6.129   0.846  13.342 -0.1764  0.0247 -0.6779
 8147TIP3    H145932   6.115   0.878  13.432 -3.7089 -0.3776 -0.9408
 8147TIP3    H245933   6.164   0.921  13.295 -1.1697  1.2020  0.3856
 8148TIP3   OH245934   1.981   6.485  11.381 -0.3540  0.6055  0.3326
 8148TIP3    H145935   1.955   6.547  11.313  0.7255  0.5118 -0.1875
 8148TIP3    H245936   2.060   6.443  11.347 -1.1623 -1.2229  0.5791
 8149TIP3   OH245937   6.352   1.575  12.124 -0.1171 -0.4575 -0.2216
 8149TIP3    H145938   6.346   1.543  12.034  0.0866  0.1671 -0.4650
 8149TIP3    H245939   6.265   1.563  12.160 -0.6535  0.8168 -1.0383
 8150TIP3   OH245940   4.005   4.981   0.122  0.5726 -0.3480 -0.0168
 8150TIP3    H145941   4.058   5.052   0.158  2.8039 -0.4857 -2.6532
 8150TIP3    H245942   3.979   5.013   0.035 -2.8767 -0.7588  0.7022
 8151TIP3   OH245943   6.257   0.071   2.384 -0.2333  0.3282 -0.9395
 8151TIP3    H145944   6.307  -0.003   2.419 -1.7025 -0.2938 -0.0471
 8151TIP3    H245945   6.219   0.037   2.303 -1.1304 -0.0254 -0.3918
 8152TIP3   OH245946   5.803   1.914  14.924 -0.1830  0.4874 -0.0146
 8152TIP3    H145947   5.808   1.996  14.973  0.8371  1.3463 -1.4866
 8152TIP3    H245948   5.869   1.923  14.856 -0.9693 -1.0252 -1.0180
 8153TIP3   OH245949   0.953   0.926   4.487 -0.7352 -0.4226  0.2404
 8153TIP3    H145950   0.962   0.831   4.479  0.4214 -0.3197  0.1044
 8153TIP3    H245951   0.885   0.939   4.553  0.6078 -1.3623  1.8517
 8154TIP3   OH245952   4.002   6.588   1.040 -0.9052 -0.2533  0.2673
 8154TIP3    H145953   3.969   6.519   0.983  1.1112 -1.4746  0.4651
 8154TIP3    H245954   4.097   6.583   1.031 -0.6033  0.9144  2.1309
 8155TIP3   OH245955   6.048   2.936   1.313  0.6586 -0.6980 -0.4215
 8155TIP3    H145956   6.005   3.001   1.258  1.6494  1.7217  1.5144
 8155TIP3    H245957   5.977   2.880   1.343 -0.6685  1.1218 -0.0285
 8156TIP3   OH245958   2.070   3.866   0.556  0.7648  0.3440  0.5231
 8156TIP3    H145959   2.055   3.911   0.640  0.7755  0.7702  0.3005
 8156TIP3    H245960   2.158   3.828   0.565  0.6905  0.2257  0.7746
 8157TIP3   OH245961   4.294   5.013  15.710  0.2014  0.1627 -0.1139
 8157TIP3    H145962   4.297   5.011  15.806 -0.3380 -0.8533 -0.1031
 8157TIP3    H245963   4.203   5.030  15.689 -0.1402 -1.8002 -0.4230
 8158TIP3   OH245964   3.318   6.009   4.620 -0.1977 -0.1755  0.5450
 8158TIP3    H145965   3.337   6.059   4.699 -0.3345  2.2124 -0.8283
 8158TIP3    H245966   3.253   6.062   4.573 -0.2439 -1.5904 -1.0971
 8159TIP3   OH245967   1.637   0.994   0.991  0.0295 -0.3472 -0.2439
 8159TIP3    H145968   1.602   1.063   1.048  1.1370 -0.0581  0.1124
 8159TIP3    H245969   1.642   0.917   1.047  0.5984 -0.2080 -0.0990
 8160TIP3   OH245970   1.394   1.085   5.689 -0.0635 -0.0574 -0.7197
 8160TIP3    H145971   1.325   1.148   5.707 -0.4030  0.0264 -2.1438
 8160TIP3    H245972   1.475   1.129   5.714 -0.4980 -0.1050  0.8443
 8161TIP3   OH245973   5.428   0.139   4.301 -0.3909 -0.3088  0.2523
 8161TIP3    H145974   5.359   0.092   4.255  1.0005 -3.0988  0.8196
 8161TIP3    H245975   5.421   0.109   4.392  0.8843  0.1721  0.5258
 8162TIP3   OH245976   5.376   6.505   0.225  0.2989 -0.7402 -0.3826
 8162TIP3    H145977   5.346   6.416   0.243  1.4018 -1.2060 -0.7730
 8162TIP3    H245978   5.449   6.494   0.165  0.7220  0.4102 -0.1075
 8163TIP3   OH245979   6.816   2.065  13.262 -0.1011 -0.1385 -0.2836
 8163TIP3    H145980   6.878   2.133  13.236 -0.0136 -0.3002 -0.4975
 8163TIP3    H245981   6.821   2.064  13.358 -0.3258  0.3650 -0.2642
 8164TIP3   OH245982   6.716   5.000  16.545 -0.7238 -0.2525  0.1967
 8164TIP3    H145983   6.699   5.058  16.619  1.5879 -0.9556  1.4135
 8164TIP3    H245984   6.649   4.932  16.551 -1.3395  0.4076  0.8722
 8165TIP3   OH245985   4.199   5.844  12.574  0.5678  0.0791 -0.3876
 8165TIP3    H145986   4.262   5.850  12.646 -1.0803 -1.0793  1.2287
 8165TIP3    H245987   4.188   5.934  12.545 -1.7345  1.3496  3.6033
 8166TIP3   OH245988   5.130   6.013  16.387  0.1831  0.1386  0.5082
 8166TIP3    H145989   5.090   6.095  16.416 -1.1009 -0.8266  1.5607
 8166TIP3    H245990   5.189   6.040  16.316 -1.9837  1.6923 -0.8437
 8167TIP3   OH245991   2.887   0.687  10.732 -0.2520 -0.1728 -0.3169
 8167TIP3    H145992   2.974   0.683  10.694 -0.9690 -0.5680 -1.9943
 8167TIP3    H245993   2.848   0.601  10.713  0.1649 -1.4192  3.4850
 8168TIP3   OH245994   6.605   5.546  12.057  0.0612  0.2474 -0.7145
 8168TIP3    H145995   6.690   5.552  12.100 -0.1677 -0.5004 -0.1250
 8168TIP3    H245996   6.614   5.475  11.994 -0.1568  0.0786 -0.5587
 8169TIP3   OH245997   0.108   5.122  11.806 -0.2995  0.4846  0.2847
 8169TIP3    H145998   0.124   5.117  11.712 -0.4745  1.3009  0.2093
 8169TIP3    H245999   0.195   5.124  11.845 -0.2170  1.3029  0.0730
 8170TIP3   OH246000   3.918   3.959  13.988  0.0448  0.0676 -0.8913
 8170TIP3    H146001   3.956   3.876  14.018  0.2922  0.4625 -0.0835
 8170TIP3    H246002   3.824   3.942  13.982 -0.1096  0.1462  0.7780
 8171TIP3   OH246003   2.483   0.617   2.438 -0.4517  0.2381  0.0353
 8171TIP3    H146004   2.448   0.576   2.517  1.3881 -3.2540 -0.7638
 8171TIP3    H246005   2.421   0.592   2.369 -0.5780  0.8927 -0.0931
 8172TIP3   OH246006   0.196   4.160  13.126  0.2834  0.9044  0.0008
 8172TIP3    H146007   0.268   4.146  13.064  0.7438 -2.0136  1.0125
 8172TIP3    H246008   0.225   4.230  13.183  1.2544  1.4195 -1.0966
 8173TIP3   OH246009   1.665   2.315   4.066  0.1167  0.2198 -0.0392
 8173TIP3    H146010   1.663   2.264   3.985 -1.2191 -0.3485  0.3224
 8173TIP3    H246011   1.643   2.252   4.135 -1.3364  1.2032  0.4439
 8174TIP3   OH246012   5.141   1.535   1.753 -0.0560 -0.1317  0.0419
 8174TIP3    H146013   5.125   1.441   1.746 -1.1243  0.1187 -1.4449
 8174TIP3    H246014   5.212   1.551   1.691  1.9913 -0.3072  2.2066
 8175TIP3   OH246015   3.042   6.172  13.684 -0.0244  0.0601  0.6384
 8175TIP3    H146016   3.061   6.266  13.680  2.3401 -0.2609  2.0485
 8175TIP3    H246017   2.989   6.161  13.763 -0.8188  0.2422  0.1448
 8176TIP3   OH246018   2.616   5.243   6.276  0.2667 -0.4711  0.5847
 8176TIP3    H146019   2.580   5.331   6.269 -1.9539 -1.2868  0.9853
 8176TIP3    H246020   2.697   5.246   6.224 -0.2720  1.5058 -0.2318
 8177TIP3   OH246021   4.744   2.155   0.213  0.0544 -0.4640  0.4945
 8177TIP3    H146022   4.686   2.227   0.192 -2.5832 -2.7374 -0.5841
 8177TIP3    H246023   4.732   2.140   0.307 -0.8401 -0.6588  0.3556
 8178TIP3   OH246024   5.140   4.483  13.738  0.3723  0.4074  0.8704
 8178TIP3    H146025   5.161   4.391  13.757 -0.7271  0.1966  1.1418
 8178TIP3    H246026   5.220   4.518  13.698  0.6012 -0.8282  0.1890
 8179TIP3   OH246027   1.729   5.121  13.926  0.6017  0.5636 -0.3198
 8179TIP3    H146028   1.683   5.037  13.923  2.5149 -0.5455 -0.4371
 8179TIP3    H246029   1.660   5.187  13.934 -1.0077 -0.9414 -1.3036
 8180TIP3   OH246030   0.946   6.548   0.509  0.0741 -0.4202 -0.7919
 8180TIP3    H146031   1.016   6.490   0.478 -0.4625 -1.3705 -0.2512
 8180TIP3    H246032   0.915   6.508   0.590 -1.8198 -0.6191 -1.5565
 8181TIP3   OH246033   3.815   5.412  15.304 -0.7068  0.2003  0.8739
 8181TIP3    H146034   3.827   5.351  15.232  0.8844  0.3885  0.9266
 8181TIP3    H246035   3.802   5.497  15.261 -0.1139  0.2556  0.7935
 8182TIP3   OH246036   0.536   5.905  13.104 -0.2213 -0.4529  0.6335
 8182TIP3    H146037   0.612   5.858  13.070 -0.2573 -1.3711  1.7884
 8182TIP3    H246038   0.479   5.915  13.028  0.5448 -0.7647  0.0042
 8183TIP3   OH246039   2.947   2.778  15.380  0.1738  0.4645 -0.6160
 8183TIP3    H146040   2.959   2.686  15.354  0.5412 -0.1517  1.5560
 8183TIP3    H246041   3.031   2.804  15.418 -0.9263  0.5457  1.9625
 8184TIP3   OH246042   5.494   6.530  16.253 -0.2499 -0.2901 -0.1513
 8184TIP3    H146043   5.448   6.447  16.266 -0.7239 -0.1412 -0.8307
 8184TIP3    H246044   5.581   6.504  16.222 -0.8132 -0.5363 -1.6473
 8185TIP3   OH246045   5.304   2.271   5.595  0.0365  0.0905  0.3671
 8185TIP3    H146046   5.213   2.242   5.595  0.1137 -0.1755 -0.7976
 8185TIP3    H246047   5.329   2.268   5.687 -0.6235 -1.4196  0.5313
 8186TIP3   OH246048   2.354   2.366   4.777  0.3566  0.5100 -0.0816
 8186TIP3    H146049   2.383   2.314   4.852  0.8257 -0.9959 -1.2537
 8186TIP3    H246050   2.259   2.368   4.785  0.2177 -1.6019 -0.6295
 8187TIP3   OH246051   6.867   0.553  16.692 -0.2290  0.3960 -0.7000
 8187TIP3    H146052   6.930   0.580  16.625  1.2224 -0.5439  0.2236
 8187TIP3    H246053   6.900   0.592  16.773 -0.5880 -0.4823 -0.1171
 8188TIP3   OH246054   4.181   4.083   2.825  0.2051 -0.2636 -0.1677
 8188TIP3    H146055   4.180   4.070   2.919  2.1143 -3.7360 -0.4934
 8188TIP3    H246056   4.101   4.040   2.794 -0.4857  0.9835 -0.1847
 8189TIP3   OH246057   3.528   5.646   6.240  0.4993 -0.2098 -0.1057
 8189TIP3    H146058   3.515   5.565   6.291  0.0043  0.6190  1.1206
 8189TIP3    H246059   3.511   5.716   6.302  2.6517  0.8960 -0.6803
 8190TIP3   OH246060   5.717   3.106  13.140 -0.4138  0.1757 -0.0511
 8190TIP3    H146061   5.733   3.017  13.171 -0.1760  0.0431 -0.5501
 8190TIP3    H246062   5.798   3.153  13.160 -0.4089  0.1925 -0.1106
 8191TIP3   OH246063   1.833   2.261  14.487 -0.0348 -0.0286 -0.3201
 8191TIP3    H146064   1.897   2.226  14.549 -0.2717 -0.9049 -0.5659
 8191TIP3    H246065   1.777   2.187  14.464 -1.8785  0.9740  0.7472
 8192TIP3   OH246066   1.031   2.903   2.381 -0.4221  0.3826 -0.4040
 8192TIP3    H146067   1.087   2.895   2.304 -1.1940  0.1607 -0.9534
 8192TIP3    H246068   1.092   2.902   2.455  0.2774 -0.1264 -0.9723
 8193TIP3   OH246069   5.760   1.595  13.271  0.0086 -0.6399 -0.2441
 8193TIP3    H146070   5.833   1.576  13.211  0.1461 -1.6617  0.2132
 8193TIP3    H246071   5.775   1.536  13.346 -1.4600 -1.1110 -0.2865
 8194TIP3   OH246072   3.546   3.199   3.917 -0.0079 -0.2034  0.7482
 8194TIP3    H146073   3.621   3.240   3.872 -1.3823 -0.4903 -2.0291
 8194TIP3    H246074   3.508   3.271   3.968 -2.0968  2.2476 -3.6468
 8195TIP3   OH246075   1.934   5.894   6.773 -0.4654  0.4049 -0.2032
 8195TIP3    H146076   1.857   5.907   6.718 -1.7184  2.8433  1.9798
 8195TIP3    H246077   2.002   5.947   6.731 -0.9382  0.9600 -0.2681
 8196TIP3   OH246078   2.605   5.619  15.165  0.3000  0.3813 -0.3844
 8196TIP3    H146079   2.650   5.676  15.226  1.5828  1.8698 -2.6002
 8196TIP3    H246080   2.561   5.678  15.103 -0.2700 -1.0210 -1.3928
 8197TIP3   OH246081   1.723   5.583   3.458  0.3180  0.1742  0.0977
 8197TIP3    H146082   1.741   5.490   3.446  0.5112  0.0383  1.3723
 8197TIP3    H246083   1.776   5.625   3.390  2.6928 -0.4722  1.4215
 8198TIP3   OH246084   2.611   0.409  13.746  0.3019 -0.1636  0.0379
 8198TIP3    H146085   2.523   0.413  13.784  0.4871 -2.4373  0.8187
 8198TIP3    H246086   2.652   0.333  13.786  2.1739  0.0452 -1.3243
 8199TIP3   OH246087   2.606   6.310   1.491 -0.0518 -0.3097  0.8379
 8199TIP3    H146088   2.573   6.349   1.410  3.7138  0.9474 -0.3124
 8199TIP3    H246089   2.560   6.357   1.561 -0.3408  1.6783 -0.5976
 8200TIP3   OH246090   3.338   0.890   4.765 -0.6570  0.1548 -0.2398
 8200TIP3    H146091   3.389   0.819   4.726 -1.8170 -0.3437 -0.8841
 8200TIP3    H246092   3.352   0.881   4.859 -0.2029 -0.4656 -0.3607
 8201TIP3   OH246093   6.667   2.752  12.751 -0.0151 -0.3498  0.2508
 8201TIP3    H146094   6.596   2.807  12.783  0.9326  1.2640 -0.2880
 8201TIP3    H246095   6.634   2.663  12.758 -2.6455  0.4126 -1.3699
 8202TIP3   OH246096   1.437   4.240  14.165  0.3967  0.4548  0.2317
 8202TIP3    H146097   1.390   4.257  14.083  0.1215 -3.5255 -0.6433
 8202TIP3    H246098   1.370   4.249  14.233 -0.2277  0.4544 -0.3758
 8203TIP3   OH246099   1.465   5.971  11.819  0.1466  0.6352  0.3068
 8203TIP3    H146100   1.490   6.046  11.873 -0.5216  0.0322  1.4883
 8203TIP3    H246101   1.542   5.914  11.819  0.7687  1.4339 -0.8503
 8204TIP3   OH246102   2.646   0.290  14.395  0.5266 -0.9185  0.6278
 8204TIP3    H146103   2.688   0.306  14.479  0.1595 -1.9516  1.0231
 8204TIP3    H246104   2.677   0.203  14.369  0.3790 -0.7505 -0.1464
 8205TIP3   OH246105   6.037   1.591  14.539 -0.1575 -0.5262 -0.4601
 8205TIP3    H146106   6.099   1.664  14.536  0.1145 -0.7220  0.3661
 8205TIP3    H246107   5.961   1.624  14.490  0.4908 -0.2010 -1.2833
 8206TIP3   OH246108   3.835   1.302   1.471  0.0177 -0.2819  0.1938
 8206TIP3    H146109   3.811   1.324   1.562 -3.8624  1.6650 -1.0442
 8206TIP3    H246110   3.808   1.211   1.461 -1.9508  0.2140  0.4370
 8207TIP3   OH246111   3.105   6.410  16.733 -0.4019  0.1722  0.2729
 8207TIP3    H146112   3.081   6.344  16.668  0.7595 -0.8511  0.8469
 8207TIP3    H246113   3.116   6.491  16.683 -2.9606  0.2593 -0.2930
 8208TIP3   OH246114   3.494   2.054   2.082  0.0418 -0.3426  0.1681
 8208TIP3    H146115   3.584   2.058   2.048 -0.4780  2.6175 -1.1871
 8208TIP3    H246116   3.502   2.081   2.173  0.5520 -0.1932  0.0846
 8209TIP3   OH246117   1.680   3.831   5.712 -0.4974  0.4367 -0.0863
 8209TIP3    H146118   1.598   3.784   5.697 -0.6452  0.9523 -1.0169
 8209TIP3    H246119   1.682   3.847   5.806 -1.0073 -0.4026  0.0704
 8210TIP3   OH246120   5.962   3.315  16.267  0.0112 -0.6156 -0.0498
 8210TIP3    H146121   6.031   3.317  16.334 -1.1296 -1.5366  1.2187
 8210TIP3    H246122   5.920   3.230  16.279 -1.3052 -0.1039 -0.8410
 8211TIP3   OH246123   5.674   0.846  12.037  0.0471 -0.0019 -0.2068
 8211TIP3    H146124   5.767   0.847  12.060 -0.4039  0.1526  1.8106
 8211TIP3    H246125   5.637   0.917  12.089 -1.2413 -0.2203 -0.8070
 8212TIP3   OH246126   1.015   2.178  14.357 -0.0954 -0.2165 -0.0477
 8212TIP3    H146127   0.990   2.089  14.382  0.7437 -0.1784  1.0139
 8212TIP3    H246128   0.946   2.234  14.393 -0.1337 -0.3646  0.1085
 8213TIP3   OH246129   0.150   0.970  12.471 -0.2497 -0.2287  0.4662
 8213TIP3    H146130   0.233   0.932  12.443 -1.1774 -2.9317  1.0727
 8213TIP3    H246131   0.167   1.003  12.560  0.6017  0.9052 -0.1005
 8214TIP3   OH246132   2.511   3.701  15.550 -0.6716  0.4433  0.1911
 8214TIP3    H146133   2.419   3.687  15.529 -0.4621  2.3978 -2.5616
 8214TIP3    H246134   2.550   3.732  15.469  2.7768 -1.6212  0.8606
 8215TIP3   OH246135   4.149   2.184  11.889 -0.4718  0.6826  0.5202
 8215TIP3    H146136   4.240   2.156  11.892 -0.9107 -0.7438  2.5130
 8215TIP3    H246137   4.131   2.221  11.975 -1.6249  1.5353 -0.0446
 8216TIP3   OH246138   3.562   1.110   3.477  0.0033  0.2672  0.4317
 8216TIP3    H146139   3.527   1.067   3.555 -2.0546 -1.1766 -1.1740
 8216TIP3    H246140   3.500   1.181   3.459  1.3310  1.6160  0.9279
 8217TIP3   OH246141   2.117   5.202   5.085  0.9969 -0.1900 -0.3192
 8217TIP3    H146142   2.157   5.202   5.172  0.5665  0.6860 -0.1068
 8217TIP3    H246143   2.129   5.113   5.053  1.5509 -0.4045  0.4570
 8218TIP3   OH246144   4.833   1.670  15.625 -0.0446  0.2305 -0.5855
 8218TIP3    H146145   4.884   1.625  15.558  0.8619  2.6992 -1.6666
 8218TIP3    H246146   4.890   1.670  15.702  0.1000 -0.1148 -0.6888
 8219TIP3   OH246147   3.614   4.332  15.077 -0.3614 -0.6329 -0.3722
 8219TIP3    H146148   3.664   4.364  15.002 -0.8803 -0.8993 -0.8336
 8219TIP3    H246149   3.652   4.378  15.152 -0.9057  0.8781 -0.9812
 8220TIP3   OH246150   6.377   0.352   0.646 -0.3390 -0.0743 -0.0035
 8220TIP3    H146151   6.357   0.404   0.724  0.4084  0.5057 -0.1835
 8220TIP3    H246152   6.471   0.365   0.632  0.3758 -3.0837  1.1268
 8221TIP3   OH246153   5.550   4.413  13.265 -0.4294  0.1536 -0.6827
 8221TIP3    H146154   5.534   4.344  13.201 -0.5336 -0.0296 -0.4591
 8221TIP3    H246155   5.585   4.486  13.214 -0.0760 -0.1548 -0.8814
 8222TIP3   OH246156   0.865   1.138   3.058 -0.9690 -0.0035 -0.3580
 8222TIP3    H146157   0.888   1.175   3.144  1.8033 -1.8016 -0.1911
 8222TIP3    H246158   0.903   1.199   2.995 -1.1124  0.1841 -0.2672
 8223TIP3   OH246159   5.792   1.354  15.573  0.8637  0.2080 -0.0320
 8223TIP3    H146160   5.735   1.431  15.572  2.4000  1.3848 -0.4662
 8223TIP3    H246161   5.879   1.388  15.553  1.5817 -1.6627 -0.3151
 8224TIP3   OH246162   6.120   3.795  16.252 -0.0351  0.2100  0.2788
 8224TIP3    H146163   6.156   3.883  16.261  1.0189 -0.1801  0.0115
 8224TIP3    H246164   6.180   3.750  16.192 -0.4227 -0.7604  0.5984
 8225TIP3   OH246165   0.268   4.348   4.732 -0.2375  0.1105 -0.1862
 8225TIP3    H146166   0.221   4.276   4.689  0.6228 -0.2350 -0.5678
 8225TIP3    H246167   0.300   4.401   4.659  0.1778  0.2043  0.0672
 8226TIP3   OH246168   5.630   4.116  16.776  0.0305  0.2425 -0.3771
 8226TIP3    H146169   5.719   4.086  16.794 -0.1579 -0.9296 -1.3230
 8226TIP3    H246170   5.642   4.199  16.729  0.7195 -0.9539 -2.4552
 8227TIP3   OH246171   1.246   1.757   0.518  0.0196  1.0258  0.4325
 8227TIP3    H146172   1.233   1.663   0.511 -0.3022  1.0741  0.3508
 8227TIP3    H246173   1.158   1.794   0.506 -0.3081  1.2244  2.8125
 8228TIP3   OH246174   0.553   6.339  12.767 -0.0860  0.0459  0.1705
 8228TIP3    H146175   0.586   6.406  12.827 -1.9472  1.0876  0.1384
 8228TIP3    H246176   0.547   6.384  12.683 -1.2204 -0.1674  0.1138
 8229TIP3   OH246177   2.405   3.706  14.324 -0.1139 -0.2016 -0.3978
 8229TIP3    H146178   2.331   3.676  14.377  0.5259  0.2715  0.7925
 8229TIP3    H246179   2.437   3.627  14.281 -0.9685 -0.5060 -0.4968
 8230TIP3   OH246180   1.378   0.165  11.265  0.3307 -0.1292 -0.3379
 8230TIP3    H146181   1.322   0.088  11.274 -0.8739  0.8966  1.8437
 8230TIP3    H246182   1.383   0.180  11.170 -1.0566 -1.7066 -0.7182
 8231TIP3   OH246183   5.662   5.127  16.340  0.2448 -0.2478  0.5061
 8231TIP3    H146184   5.569   5.144  16.356  0.0891 -1.7677  1.3933
 8231TIP3    H246185   5.663   5.077  16.258  0.4056  0.8633 -0.1875
 8232TIP3   OH246186   5.359   3.597   4.031  0.8320  0.4572  0.1087
 8232TIP3    H146187   5.397   3.636   3.953  0.5079 -1.0370 -0.8347
 8232TIP3    H246188   5.268   3.627   4.030  1.1249  1.4345  0.6232
 8233TIP3   OH246189   6.150   3.220   0.216 -0.5183 -0.2888 -0.2337
 8233TIP3    H146190   6.065   3.236   0.257 -0.5343  0.5597 -0.5836
 8233TIP3    H246191   6.150   3.275   0.137  0.2856 -0.4114 -0.3299
 8234TIP3   OH246192   5.578   1.237  15.827 -0.0037  0.1821  0.2347
 8234TIP3    H146193   5.641   1.305  15.803  0.0444  0.3671  0.8615
 8234TIP3    H246194   5.576   1.178  15.752 -0.8436  1.4507 -0.7962
 8235TIP3   OH246195   3.569   1.972  15.021  0.0475  0.0553 -0.2800
 8235TIP3    H146196   3.658   1.984  15.053 -0.2343 -1.1875  1.0867
 8235TIP3    H246197   3.524   2.053  15.042  1.4414  1.7974 -3.3621
 8236TIP3   OH246198   0.849   4.366  12.580  0.1641 -0.2040 -0.0151
 8236TIP3    H146199   0.883   4.413  12.504  1.2913  0.2670  0.7634
 8236TIP3    H246200   0.890   4.280  12.576  0.1482 -0.2130  0.0179
 8237TIP3   OH246201   0.360   6.727   3.966  0.7444  0.2617  0.2680
 8237TIP3    H146202   0.275   6.700   4.001  1.6810 -0.4344  2.2269
 8237TIP3    H246203   0.359   6.822   3.972 -0.1764  0.3129 -0.4794
 8238TIP3   OH246204   4.117   5.923  11.546 -0.0830  0.0019  0.0732
 8238TIP3    H146205   4.207   5.919  11.514  0.4701  1.9632  1.1795
 8238TIP3    H246206   4.072   5.850  11.504  1.7138 -0.2627 -1.4886
 8239TIP3   OH246207   6.346   3.861   3.549  0.1660 -0.1228  0.4312
 8239TIP3    H146208   6.416   3.927   3.549 -0.1111  0.1764  0.2257
 8239TIP3    H246209   6.265   3.913   3.547 -0.1118 -0.4052  2.2589
 8240TIP3   OH246210   1.975   1.149  15.525  0.1900  0.2867  0.6180
 8240TIP3    H146211   2.057   1.146  15.574  0.1777  0.4502  0.6502
 8240TIP3    H246212   1.921   1.213  15.572 -0.2220 -0.3262  1.0074
 8241TIP3   OH246213   2.083   1.676  11.108 -0.6081  0.3480 -0.6717
 8241TIP3    H146214   2.122   1.754  11.067 -1.9426  0.5883 -1.5505
 8241TIP3    H246215   2.127   1.670  11.193  1.2752  0.6172 -1.5699
 8242TIP3   OH246216   1.194   1.905  14.213  0.2696  0.4103 -0.2476
 8242TIP3    H146217   1.220   1.814  14.203  0.5905  0.4091  0.5595
 8242TIP3    H246218   1.197   1.922  14.307 -1.7472  0.6947 -0.1843
 8243TIP3   OH246219   2.002   6.599   4.150  0.7867 -0.1030 -0.7673
 8243TIP3    H146220   2.078   6.622   4.203 -1.0371  0.4106  1.8251
 8243TIP3    H246221   2.039   6.556   4.073  3.6817  0.3514  0.2248
 8244TIP3   OH246222   4.759   5.414   4.639 -0.3519 -0.2187 -0.0060
 8244TIP3    H146223   4.748   5.448   4.551 -0.9332  1.0658  0.5304
 8244TIP3    H246224   4.854   5.401   4.649 -0.3559 -1.1577 -1.0726
 8245TIP3   OH246225   4.965   0.307   3.351  0.3593  0.1488 -0.0935
 8245TIP3    H146226   4.994   0.373   3.288 -0.8639 -2.2389 -3.4754
 8245TIP3    H246227   5.028   0.235   3.341 -0.8602 -0.9771  0.0477
 8246TIP3   OH246228   1.966   3.656   4.179  0.2949  0.4166 -0.6444
 8246TIP3    H146229   2.017   3.607   4.243  0.7201  0.3174 -1.0596
 8246TIP3    H246230   2.011   3.642   4.096 -0.0874  0.7868 -0.9174
 8247TIP3   OH246231   2.635   4.001  14.567 -0.1119  0.3080  0.3369
 8247TIP3    H146232   2.601   3.913  14.580 -0.2113  0.7168  4.2778
 8247TIP3    H246233   2.729   3.993  14.584  0.1899  0.7080 -1.0472
 8248TIP3   OH246234   4.555   5.952  10.638 -0.4983 -0.5506  0.0209
 8248TIP3    H146235   4.603   5.956  10.555 -0.3669 -1.4565  0.0455
 8248TIP3    H246236   4.463   5.947  10.612 -0.4004 -2.0111 -0.1161
 8249TIP3   OH246237   3.151   2.360  15.626  0.1053 -0.1301 -0.3493
 8249TIP3    H146238   3.209   2.336  15.555 -0.4919  0.7250 -1.1386
 8249TIP3    H246239   3.189   2.439  15.664 -1.5893  1.6705 -2.2076
 8250TIP3   OH246240   4.083   3.834   3.014  0.0315 -0.5346 -0.4604
 8250TIP3    H146241   4.125   3.910   3.055 -0.4344 -1.4693  1.9308
 8250TIP3    H246242   4.013   3.870   2.961 -0.6646  0.7045  1.2310
 8251TIP3   OH246243   0.657   4.360  16.925  0.2836 -0.3850 -0.7117
 8251TIP3    H146244   0.601   4.326  16.994 -0.4406  0.2968 -0.9470
 8251TIP3    H246245   0.703   4.283  16.891  1.1890 -0.6289  0.9828
 8252TIP3   OH246246   4.901   0.015   5.656 -0.0183  0.1523  0.3084
 8252TIP3    H146247   4.952  -0.056   5.697 -0.8347 -0.8172 -0.2935
 8252TIP3    H246248   4.924   0.011   5.564  1.0576  1.6856  0.4767
 8253TIP3   OH246249   2.432   5.896   5.177  0.5791 -0.1203  0.6450
 8253TIP3    H146250   2.478   5.850   5.246  0.6645 -0.7541  0.1769
 8253TIP3    H246251   2.424   5.986   5.208  0.1385 -0.5194  1.7091
 8254TIP3   OH246252   6.099   6.841  11.978  0.1928  0.5702  0.2939
 8254TIP3    H146253   6.178   6.849  12.032 -0.3223  0.4697  1.0913
 8254TIP3    H246254   6.131   6.813  11.892  1.0188  0.5178  0.6073
 8255TIP3   OH246255   4.594   4.769   4.019 -0.1974  0.8704 -0.3248
 8255TIP3    H146256   4.655   4.822   4.070  0.0266  0.2754  0.0373
 8255TIP3    H246257   4.516   4.762   4.074  0.1643 -0.0384  0.0783
 8256TIP3   OH246258   4.087   4.123   4.345 -0.0603 -0.0697 -0.2377
 8256TIP3    H146259   4.111   4.207   4.383 -0.1276  0.7861 -1.9997
 8256TIP3    H246260   4.021   4.144   4.279 -1.0761 -1.6706  0.2172
 8257TIP3   OH246261   1.300   1.949   6.174  0.4774 -0.3354 -0.5377
 8257TIP3    H146262   1.228   1.969   6.234  1.5767 -0.0755  0.7643
 8257TIP3    H246263   1.288   1.858   6.150  0.2063 -0.5501  0.3846
 8258TIP3   OH246264   0.546   3.595   2.689 -0.0352  0.0421  0.0765
 8258TIP3    H146265   0.532   3.503   2.668 -0.2483 -0.3494  1.7732
 8258TIP3    H246266   0.639   3.610   2.674 -0.1750 -0.1649 -1.1288
 8259TIP3   OH246267   6.172   1.786  16.616 -0.7846 -0.3036 -0.2002
 8259TIP3    H146268   6.124   1.753  16.692 -1.9613 -0.4493 -0.9807
 8259TIP3    H246269   6.203   1.873  16.644  2.9655 -2.1480  2.1297
 8260TIP3   OH246270   3.482   4.985  11.249  0.1369 -0.6497  0.5057
 8260TIP3    H146271   3.402   5.015  11.206  0.6740  0.0537 -0.0425
 8260TIP3    H246272   3.456   4.907  11.297 -1.2889  0.6317  1.9016
 8261TIP3   OH246273   6.130   5.893   3.514 -0.7061  0.6724  0.5931
 8261TIP3    H146274   6.108   5.968   3.458 -0.3285  0.3807  0.0501
 8261TIP3    H246275   6.189   5.930   3.580 -1.4265  1.0901  1.0201
 8262TIP3   OH246276   2.665   5.803  14.205 -0.3617 -0.4287  0.2098
 8262TIP3    H146277   2.736   5.801  14.270 -0.9913 -0.8673  0.9031
 8262TIP3    H246278   2.603   5.737  14.235 -1.8885  1.0978  0.5740
 8263TIP3   OH246279   2.041   0.539  12.131  0.0558 -0.4492  0.2322
 8263TIP3    H146280   2.131   0.567  12.112  0.3041 -1.5510 -0.3064
 8263TIP3    H246281   2.047   0.497  12.217  0.4842 -2.2771 -0.6419
 8264TIP3   OH246282   4.667   2.291  11.811 -0.8309 -0.0187  0.3445
 8264TIP3    H146283   4.617   2.237  11.750 -0.8966 -1.3381  1.5148
 8264TIP3    H246284   4.752   2.303  11.768 -0.9376 -0.7747 -0.0902
 8265TIP3   OH246285   2.783   2.727   1.330 -0.0438 -0.4261  0.0118
 8265TIP3    H146286   2.759   2.807   1.284  1.6324 -0.7074 -1.4486
 8265TIP3    H246287   2.799   2.756   1.420  0.7639  0.9469 -0.5379
 8266TIP3   OH246288   1.669   5.483  15.767 -0.0465  0.2975  0.0095
 8266TIP3    H146289   1.707   5.436  15.842 -0.4105  2.1128  1.4003
 8266TIP3    H246290   1.736   5.546  15.742  0.7702 -1.3821 -2.3733
 8267TIP3   OH246291   2.265   0.611  12.639  0.2669  0.4252  0.1963
 8267TIP3    H146292   2.208   0.683  12.664  1.0959  1.4339 -0.7382
 8267TIP3    H246293   2.238   0.538  12.696 -0.2943  1.5698  1.4374
 8268TIP3   OH246294   4.092   0.935   1.611  0.8617 -0.6929 -0.4424
 8268TIP3    H146295   4.009   0.907   1.650  1.5999 -1.6006  0.5321
 8268TIP3    H246296   4.093   1.030   1.621  0.8437 -0.8617  1.4378
 8269TIP3   OH246297   1.961   2.023   3.792 -0.0495 -0.1853  0.2295
 8269TIP3    H146298   1.943   2.019   3.698  0.9362 -1.1666  0.0559
 8269TIP3    H246299   1.978   2.115   3.810  1.5936 -0.2144 -0.9451
 8270TIP3   OH246300   1.614   4.573  14.491 -0.3951  0.2497  0.0551
 8270TIP3    H146301   1.560   4.629  14.547 -0.2057  0.8092 -0.3119
 8270TIP3    H246302   1.675   4.633  14.449  1.2355 -0.4813  1.2507
 8271TIP3   OH246303   2.876   5.918  12.655 -0.3133  0.2928  0.0806
 8271TIP3    H146304   2.792   5.959  12.637 -0.4585 -0.5698 -1.3377
 8271TIP3    H246305   2.915   5.903  12.569  1.9283  1.9046  0.7353
 8272TIP3   OH246306   1.372   0.933   3.279  0.5646 -0.2662 -0.6084
 8272TIP3    H146307   1.286   0.953   3.315  0.2203 -0.5856 -1.2334
 8272TIP3    H246308   1.389   0.843   3.306  0.7138 -0.1948 -0.4640
 8273TIP3   OH246309   3.412   3.794  14.208  0.0352 -0.2077 -0.5104
 8273TIP3    H146310   3.470   3.726  14.173  0.1118 -0.4833  0.1430
 8273TIP3    H246311   3.324   3.760  14.195  0.0648 -0.3277 -0.3926
 8274TIP3   OH246312   0.040   4.649   5.603 -0.0881 -0.4812  0.2186
 8274TIP3    H146313  -0.050   4.681   5.596  0.4635  1.3750  1.0299
 8274TIP3    H246314   0.058   4.608   5.519 -1.6690 -0.8428  0.0278
 8275TIP3   OH246315   6.705   0.093  14.350  0.0365 -0.2102  0.5923
 8275TIP3    H146316   6.637   0.138  14.401 -2.0317 -2.2713 -0.1383
 8275TIP3    H246317   6.759   0.049  14.415 -1.2645 -1.0518  1.1617
 8276TIP3   OH246318   0.431   1.031   0.679  0.1433 -0.2568  0.2855
 8276TIP3    H146319   0.463   0.941   0.679 -0.7383 -0.6135 -1.3447
 8276TIP3    H246320   0.496   1.080   0.630 -0.5063 -0.4934 -0.8541
 8277TIP3   OH246321   3.791   5.855  11.451 -1.0806  0.0407 -0.2903
 8277TIP3    H146322   3.861   5.900  11.403 -1.8071  0.5637 -0.8889
 8277TIP3    H246323   3.824   5.766  11.463 -0.7595 -0.0284 -1.5381
 8278TIP3   OH246324   6.624   4.452  16.426  0.1702 -0.9970 -0.0298
 8278TIP3    H146325   6.559   4.383  16.411 -1.0655  0.4470 -1.6714
 8278TIP3    H246326   6.584   4.508  16.492 -2.2759  2.0949 -3.7433
 8279TIP3   OH246327   4.523   2.959  11.440 -0.5775 -0.1453  0.1183
 8279TIP3    H146328   4.562   2.872  11.440 -2.1062 -0.8800  0.5810
 8279TIP3    H246329   4.521   2.985  11.348  0.0499 -0.5125 -0.0063
 8280TIP3   OH246330   2.198   4.554   2.525 -0.3724  0.2187 -0.1824
 8280TIP3    H146331   2.148   4.475   2.547  0.4683 -0.1589  0.4593
 8280TIP3    H246332   2.289   4.531   2.546 -0.0795  1.2653 -0.2509
 8281TIP3   OH246333   5.614   1.294  12.256 -0.1374  0.0116  0.1417
 8281TIP3    H146334   5.611   1.379  12.211  1.2963  0.9064  1.5956
 8281TIP3    H246335   5.523   1.272  12.272 -0.5442  1.5485  0.1523
 8282TIP3   OH246336   6.789   3.023  14.618  0.0211 -0.2328 -0.0544
 8282TIP3    H146337   6.809   3.101  14.668  2.3367 -0.9554  0.2817
 8282TIP3    H246338   6.737   2.968  14.677 -0.7945  0.6255  0.0416
 8283TIP3   OH246339   2.814   3.281  11.530 -0.3449 -0.1596  1.0530
 8283TIP3    H146340   2.869   3.342  11.581  0.4953  1.0302 -1.1507
 8283TIP3    H246341   2.869   3.255  11.457 -1.6968 -1.4154  0.4362
 8284TIP3   OH246342   0.003   3.189  12.451 -0.3447  0.2298 -0.1021
 8284TIP3    H146343   0.042   3.276  12.458  0.1902  0.0091 -0.2776
 8284TIP3    H246344   0.003   3.155  12.541  2.3947 -0.8349 -0.4070
 8285TIP3   OH246345   3.982   6.434  13.603 -0.2169 -0.4665  0.3566
 8285TIP3    H146346   3.953   6.414  13.514 -0.1310  0.3454  0.1377
 8285TIP3    H246347   4.078   6.433  13.598 -0.1973  0.8949  0.1139
 8286TIP3   OH246348   4.445   4.392   0.330 -0.0550 -0.2510 -0.2535
 8286TIP3    H146349   4.537   4.376   0.351 -0.1140 -0.9489 -0.5121
 8286TIP3    H246350   4.405   4.306   0.330 -0.7021  0.0461 -0.2019
 8287TIP3   OH246351   5.806   2.296  11.114 -0.2071  0.0928 -0.5781
 8287TIP3    H146352   5.759   2.238  11.053  0.9742  0.7268 -2.1492
 8287TIP3    H246353   5.806   2.381  11.071  1.5265  0.3296 -0.1767
 8288TIP3   OH246354   5.464   5.222   1.114  0.2630 -0.0139  0.0967
 8288TIP3    H146355   5.430   5.133   1.103  1.1055 -0.5285  1.4372
 8288TIP3    H246356   5.551   5.210   1.152  0.2707  1.3925  0.5821
 8289TIP3   OH246357   0.298   3.997  16.577  0.2151 -0.0661  0.5675
 8289TIP3    H146358   0.297   4.037  16.664 -0.9020  0.7419  0.2061
 8289TIP3    H246359   0.291   4.071  16.517 -0.0108 -0.6853 -0.1806
 8290TIP3   OH246360   3.698   1.131   4.431  0.4013  0.0461 -0.4685
 8290TIP3    H146361   3.608   1.116   4.400  0.6418  0.2083 -1.2725
 8290TIP3    H246362   3.703   1.225   4.444 -0.1615 -0.1710  1.5767
 8291TIP3   OH246363   4.576   1.037  11.020  0.1323 -1.0246  0.0684
 8291TIP3    H146364   4.651   0.990  11.056 -0.3891 -1.0628  1.1160
 8291TIP3    H246365   4.512   0.969  11.002  0.0089 -0.8911  0.0017
 8292TIP3   OH246366   4.535   5.167  12.021 -0.1840 -0.1041 -0.0231
 8292TIP3    H146367   4.553   5.096  11.960 -2.3411 -1.1104  0.4187
 8292TIP3    H246368   4.553   5.247  11.972  2.3119 -0.8822 -0.5252
 8293TIP3   OH246369   4.863   3.333  10.947 -0.0130  0.1232 -0.1953
 8293TIP3    H146370   4.859   3.401  11.014 -0.0361 -0.0881  0.0196
 8293TIP3    H246371   4.954   3.302  10.951  0.0698  0.3277 -0.4790
 8294TIP3   OH246372   0.826   2.412   6.097  0.2884 -0.4805 -0.1006
 8294TIP3    H146373   0.798   2.381   6.183  0.6375 -0.2759  0.0890
 8294TIP3    H246374   0.864   2.498   6.113  1.5841 -1.0072 -0.2544
 8295TIP3   OH246375   5.702   3.379  14.517 -0.1043  0.1838  0.2754
 8295TIP3    H146376   5.615   3.338  14.510 -0.0323  0.1061 -0.1866
 8295TIP3    H246377   5.689   3.468  14.486 -0.1112  0.3080  0.6291
 8296TIP3   OH246378   6.184   1.289   1.481  0.3365  0.2414 -0.3425
 8296TIP3    H146379   6.179   1.220   1.548  0.2125 -0.3011 -0.9014
 8296TIP3    H246380   6.240   1.252   1.413 -0.0280  0.5508 -0.8170
 8297TIP3   OH246381   4.327   5.334  15.746  0.2573  0.1078  0.7363
 8297TIP3    H146382   4.259   5.339  15.812  0.4227 -0.7177  0.9793
 8297TIP3    H246383   4.282   5.304  15.667  0.1921  0.3961  0.6605
 8298TIP3   OH246384   0.489   6.370  11.938 -0.6264  0.8968 -0.1649
 8298TIP3    H146385   0.470   6.381  11.845 -0.7272  3.5120  0.0916
 8298TIP3    H246386   0.484   6.459  11.974 -2.5410 -0.2484  2.7190
 8299TIP3   OH246387   5.138   1.210  16.138  0.2504  0.4943 -0.7336
 8299TIP3    H146388   5.188   1.234  16.060  2.2908 -0.5038  0.1977
 8299TIP3    H246389   5.122   1.117  16.129 -0.9136  0.6726 -0.6899
 8300TIP3   OH246390   6.577   4.352  15.476  0.1353 -0.7901  0.4539
 8300TIP3    H146391   6.535   4.398  15.403 -1.5394  0.9329  2.3948
 8300TIP3    H246392   6.528   4.271  15.485  0.3378 -1.0034 -0.2915
 8301TIP3   OH246393   2.054   5.449  12.440  0.5186 -0.0979  0.6922
 8301TIP3    H146394   2.113   5.513  12.399 -0.8318  0.6542 -0.1535
 8301TIP3    H246395   1.989   5.502  12.486 -0.9358 -0.7964 -0.4531
 8302TIP3   OH246396   4.479   4.435   5.059  0.7166 -0.4936  0.4558
 8302TIP3    H146397   4.519   4.522   5.051 -1.5028  0.5307 -0.5294
 8302TIP3    H246398   4.496   4.394   4.974 -1.0616  0.3640 -0.3861
 8303TIP3   OH246399   3.223   5.045   5.998  0.7876 -0.3575 -0.1703
 8303TIP3    H146400   3.205   5.044   6.092 -0.7813 -0.2601 -0.4537
 8303TIP3    H246401   3.315   5.019   5.992  0.6624 -1.3012  1.3344
 8304TIP3   OH246402   5.606   1.125   1.599  0.0765  0.4280  0.1075
 8304TIP3    H146403   5.513   1.143   1.614 -0.3347  0.4163 -2.1666
 8304TIP3    H246404   5.641   1.208   1.567  0.6944  0.2383  0.2969
 8305TIP3   OH246405   6.273   2.884  10.571 -0.1011  0.4464 -0.0813
 8305TIP3    H146406   6.368   2.896  10.565 -0.2059  1.1333 -0.6429
 8305TIP3    H246407   6.253   2.814  10.508  0.1862 -0.6943  1.0719
 8306TIP3   OH246408   4.790   2.963  12.018 -0.2207  0.0779 -0.3941
 8306TIP3    H146409   4.834   2.954  11.934  2.6032  0.8349  0.8791
 8306TIP3    H246410   4.710   3.013  11.999 -0.0740 -0.4694 -2.6853
 8307TIP3   OH246411   0.093   1.124  16.231  0.2572  0.2170 -0.3040
 8307TIP3    H146412   0.090   1.124  16.326 -1.5333 -1.9486 -0.2718
 8307TIP3    H246413   0.132   1.039  16.208 -3.0604 -1.1407 -1.4185
 8308TIP3   OH246414   5.521   2.120   2.868  0.0787  0.2581  0.1498
 8308TIP3    H146415   5.473   2.098   2.947  2.2246 -0.4326  1.3466
 8308TIP3    H246416   5.498   2.050   2.806  0.3466 -0.6776  1.0688
 8309TIP3   OH246417   2.547   3.724  15.968 -0.4018 -0.7352  0.3549
 8309TIP3    H146418   2.603   3.647  15.964  0.8062  0.1670 -0.6542
 8309TIP3    H246419   2.463   3.695  15.931 -0.7219 -2.1449  2.0636
 8310TIP3   OH246420   2.630   4.986   1.625 -0.8760 -0.2158  0.5615
 8310TIP3    H146421   2.612   4.898   1.657 -1.1324 -0.2228  0.4037
 8310TIP3    H246422   2.544   5.021   1.601 -0.6056 -0.5909 -1.0847
 8311TIP3   OH246423   1.092   1.016   3.171  0.2586 -0.2021 -0.5571
 8311TIP3    H146424   1.113   1.105   3.199  1.4188 -0.3745 -0.8226
 8311TIP3    H246425   1.025   1.028   3.103 -1.2265  0.3120  0.9410
 8312TIP3   OH246426   4.005   2.676   6.075  0.9717  0.1974 -0.6900
 8312TIP3    H146427   3.921   2.635   6.056  0.5784  0.0940  1.0910
 8312TIP3    H246428   3.998   2.764   6.040  0.7116 -0.2948 -1.9175
 8313TIP3   OH246429   5.495   0.859   5.943  0.2033  0.0512 -0.4344
 8313TIP3    H146430   5.486   0.808   6.024  0.1931 -0.4684 -0.7534
 8313TIP3    H246431   5.582   0.836   5.911 -0.6625 -1.5635 -1.7732
 8314TIP3   OH246432   3.412   0.366   4.085 -0.4866 -0.0177 -0.7020
 8314TIP3    H146433   3.388   0.289   4.137  0.7264  1.1268  1.7467
 8314TIP3    H246434   3.397   0.340   3.994 -1.1001 -2.7588  0.0947
 8315TIP3   OH246435   2.307   5.338  16.296 -0.6324  0.0177 -0.0676
 8315TIP3    H146436   2.348   5.416  16.334 -1.0816  0.1258  0.2079
 8315TIP3    H246437   2.298   5.277  16.369  0.6505 -0.7157 -0.4788
 8316TIP3   OH246438   3.651   3.858  10.819  0.3832  0.1299  0.2931
 8316TIP3    H146439   3.729   3.811  10.847  1.0950  1.2275  0.2061
 8316TIP3    H246440   3.659   3.944  10.861 -1.7108 -0.3288  1.8269
 8317TIP3   OH246441   1.390   3.513  11.221 -0.1471 -0.0987 -0.0799
 8317TIP3    H146442   1.468   3.560  11.251 -1.0521  2.0871 -0.9155
 8317TIP3    H246443   1.388   3.434  11.274  1.8305  0.4803  0.9807
 8318TIP3   OH246444   0.282   0.559  11.931 -0.2061 -0.4978  0.2733
 8318TIP3    H146445   0.194   0.565  11.893 -1.3068 -1.2406  2.5114
 8318TIP3    H246446   0.336   0.525  11.860 -1.5460  0.6777 -1.3877
 8319TIP3   OH246447   2.905   2.373   1.332  0.0572  0.1847 -0.5744
 8319TIP3    H146448   2.938   2.416   1.411  0.2357 -1.2409  0.1712
 8319TIP3    H246449   2.815   2.348   1.354  0.3610 -0.9128 -0.4969
 8320TIP3   OH246450   3.044   1.227   3.177 -0.0810 -0.3365 -0.4479
 8320TIP3    H146451   3.084   1.311   3.201  0.4439 -1.1731  1.7476
 8320TIP3    H246452   2.976   1.251   3.114 -0.8246  1.9036  1.0960
 8321TIP3   OH246453   3.506   2.230  16.344 -0.3095 -0.2631 -0.1270
 8321TIP3    H146454   3.504   2.134  16.341  0.3902 -0.2826 -0.0726
 8321TIP3    H246455   3.599   2.252  16.351 -0.5330  0.3784  1.1538
 8322TIP3   OH246456   4.583   3.374  13.026 -0.2863 -0.1084 -0.4053
 8322TIP3    H146457   4.616   3.318  12.955 -2.2053  0.0173 -1.4730
 8322TIP3    H246458   4.612   3.462  13.002  1.3738 -0.3911  0.4365
 8323TIP3   OH246459   2.853   1.152  10.830  0.7117  0.7043  0.3752
 8323TIP3    H146460   2.935   1.156  10.781  0.5752 -0.6849 -0.0057
 8323TIP3    H246461   2.814   1.068  10.805  0.0566  0.5048  1.9385
 8324TIP3   OH246462   1.901   1.605   5.044  0.0531 -0.0410  0.0911
 8324TIP3    H146463   1.890   1.510   5.042 -1.4487  0.1079 -1.2480
 8324TIP3    H246464   1.912   1.626   5.136 -0.6188 -1.4244  0.5149
 8325TIP3   OH246465   5.468   6.675  14.785 -0.1473  0.1553 -0.0361
 8325TIP3    H146466   5.422   6.738  14.730 -0.2395 -0.9164 -1.1970
 8325TIP3    H246467   5.468   6.716  14.872 -0.6255  1.5363 -0.6562
 8326TIP3   OH246468   3.768   0.970   2.258 -0.2514 -0.2465  0.0838
 8326TIP3    H146469   3.716   0.995   2.335  1.5102  1.5385  0.7995
 8326TIP3    H246470   3.859   0.982   2.286  0.4444  1.0041 -2.4176
 8327TIP3   OH246471   0.476   3.197  11.596  0.1929  0.1697  1.0544
 8327TIP3    H146472   0.382   3.192  11.577  0.6531 -2.3202 -1.0467
 8327TIP3    H246473   0.485   3.157  11.683 -0.4402 -2.8861 -0.1548
 8328TIP3   OH246474   3.257   3.695  12.329 -0.0898  0.6716  0.0090
 8328TIP3    H146475   3.340   3.715  12.370  1.1257  1.3329 -2.5490
 8328TIP3    H246476   3.215   3.633  12.388  3.8540 -2.6846 -0.2256
 8329TIP3   OH246477   5.997   1.730   2.440  0.2235 -0.4066 -0.4784
 8329TIP3    H146478   5.939   1.665   2.400 -1.5706  0.8896 -0.0698
 8329TIP3    H246479   6.080   1.683   2.450 -0.1477 -1.7413 -2.8001
 8330TIP3   OH246480   2.070   4.484   5.182 -0.6263  0.4678  0.1766
 8330TIP3    H146481   2.000   4.443   5.131 -0.6327 -0.2728  0.7636
 8330TIP3    H246482   2.077   4.573   5.146 -1.1458  0.2064 -0.5925
 8331TIP3   OH246483   4.581   3.830  14.862  0.0737 -0.7106  0.1723
 8331TIP3    H146484   4.515   3.864  14.802  0.0593  1.4826  1.3302
 8331TIP3    H246485   4.537   3.825  14.947  1.4451  1.2872  1.0747
 8332TIP3   OH246486   4.401   6.542  13.791 -0.2482 -0.3979 -0.6629
 8332TIP3    H146487   4.325   6.551  13.849  0.0953  1.2020 -0.4248
 8332TIP3    H246488   4.363   6.538  13.703 -0.6350 -0.1201 -0.5132
 8333TIP3   OH246489   4.083   4.691  13.544  0.7660  0.5185 -0.3429
 8333TIP3    H146490   4.073   4.621  13.480  0.0479  0.0056  0.3063
 8333TIP3    H246491   4.067   4.771  13.495 -0.5725  0.0870 -0.6537
 8334TIP3   OH246492   0.411   0.098   4.506  0.0071  0.6156  0.0902
 8334TIP3    H146493   0.457   0.182   4.500  1.8431 -0.3392  0.2305
 8334TIP3    H246494   0.418   0.061   4.418  0.3292  0.0424  0.3564
 8335TIP3   OH246495   4.153   3.193  12.653  0.2754 -0.1657 -0.4665
 8335TIP3    H146496   4.175   3.151  12.570  1.0262 -0.6433 -0.0418
 8335TIP3    H246497   4.235   3.235  12.681 -0.0969  0.3829 -0.1941
 8336TIP3   OH246498   4.658   2.219  16.107 -0.3025  0.0897 -0.5609
 8336TIP3    H146499   4.645   2.303  16.063  1.5600  0.0489 -1.2964
 8336TIP3    H246500   4.678   2.243  16.198  0.2886  0.4636 -0.7820
 8337TIP3   OH246501   4.244   3.751   4.787  0.6420  0.0357 -0.2889
 8337TIP3    H146502   4.332   3.723   4.812 -0.1939 -2.5994 -0.0291
 8337TIP3    H246503   4.206   3.785   4.868  1.0726  0.2034 -0.1572
 8338TIP3   OH246504   5.456   1.850   1.824  0.4007  0.0233  0.2820
 8338TIP3    H146505   5.439   1.930   1.874 -0.8846  2.0683 -3.1026
 8338TIP3    H246506   5.379   1.795   1.837 -0.6386  1.2268 -0.5993
 8339TIP3   OH246507   5.345   6.217   5.432 -0.3294  0.4448  0.1265
 8339TIP3    H146508   5.271   6.161   5.456  0.7707 -1.0741  0.1062
 8339TIP3    H246509   5.339   6.226   5.337 -0.7652  0.7591  0.1794
 8340TIP3   OH246510   3.395   6.048   5.538  0.3153  0.4989  0.1618
 8340TIP3    H146511   3.454   5.972   5.539  0.0635  0.2316 -1.6048
 8340TIP3    H246512   3.437   6.112   5.595  1.4897 -0.2873  0.2209
 8341TIP3   OH246513   0.230   2.026  11.614  0.2600  0.2785 -1.1328
 8341TIP3    H146514   0.184   1.954  11.571 -0.4987 -0.0993  0.2303
 8341TIP3    H246515   0.193   2.028  11.702  1.3639  1.3638 -0.6641
 8342TIP3   OH246516   3.433   1.570   4.382 -0.4456  0.4783  0.1165
 8342TIP3    H146517   3.471   1.595   4.298  2.2819 -0.1058  1.0793
 8342TIP3    H246518   3.444   1.647   4.437  0.1476  0.0035  0.6677
 8343TIP3   OH246519   5.378   4.711   4.063  0.3110 -0.0526  0.2390
 8343TIP3    H146520   5.328   4.739   3.986  0.4429 -0.4428  0.0078
 8343TIP3    H246521   5.327   4.741   4.138  1.3333  2.5100  0.0397
 8344TIP3   OH246522   1.678   3.346  11.099  0.2192  0.3133 -0.2648
 8344TIP3    H146523   1.760   3.381  11.134  0.9647 -1.1776 -0.4587
 8344TIP3    H246524   1.683   3.252  11.114 -0.5583 -0.0689 -2.1044
 8345TIP3   OH246525   1.176   0.059  12.014 -0.6104  0.1450 -0.0584
 8345TIP3    H146526   1.210   0.133  11.964 -1.5292  0.0549 -0.8474
 8345TIP3    H246527   1.177   0.089  12.105  0.0410  0.7225 -0.2503
 8346TIP3   OH246528   0.754   3.446   4.295  0.1237  0.1910  0.2045
 8346TIP3    H146529   0.811   3.472   4.368 -0.3125  1.3264  0.1586
 8346TIP3    H246530   0.691   3.386   4.335 -0.2311  0.9482  0.8291
 8347TIP3   OH246531   0.130   2.832  14.527 -0.1938 -0.2592 -0.0628
 8347TIP3    H146532   0.106   2.819  14.436  0.1620  0.2921 -0.2452
 8347TIP3    H246533   0.049   2.822  14.576 -0.4425 -0.2543 -0.4736
 8348TIP3   OH246534   3.338   1.748   5.600  0.2871 -0.0818  0.2386
 8348TIP3    H146535   3.360   1.833   5.560  1.5652 -0.4816  0.0496
 8348TIP3    H246536   3.375   1.752   5.687  1.3130 -0.8510 -0.1523
 8349TIP3   OH246537   4.618   2.397   1.259  0.5377 -0.1633  0.5874
 8349TIP3    H146538   4.527   2.390   1.228 -0.0001  2.5248  1.2930
 8349TIP3    H246539   4.669   2.414   1.180 -0.3465  3.1906  0.5806
 8350TIP3   OH246540   6.494   3.872   8.113 -0.7757  0.0115  0.2143
 8350TIP3    H146541   6.570   3.847   8.060 -0.9453 -0.4104  0.1684
 8350TIP3    H246542   6.446   3.790   8.127 -0.4851  0.0413  1.4204
 8351TIP3   OH246543   3.932   2.659  11.777  0.2695 -0.2342  0.1170
 8351TIP3    H146544   4.012   2.712  11.774  0.1134  0.0635  0.9626
 8351TIP3    H246545   3.910   2.655  11.870  0.2492 -1.7398  0.0797
 8352TIP3   OH246546   4.013   2.324  15.060 -0.5890  0.1473 -0.1040
 8352TIP3    H146547   4.022   2.363  14.973  0.1302 -0.5886 -0.3699
 8352TIP3    H246548   3.919   2.319  15.074 -0.7040  1.3203 -0.3549
 8353TIP3   OH246549   5.164   3.847   1.298 -0.4049  0.4978  0.0189
 8353TIP3    H146550   5.187   3.809   1.383 -0.0969  1.7348  0.5058
 8353TIP3    H246551   5.097   3.912   1.318  0.8049  1.9527 -0.4446
 8354TIP3   OH246552   3.279   0.215  10.632 -0.5514  0.4401 -0.1985
 8354TIP3    H146553   3.367   0.180  10.623 -1.2501 -1.6139  0.4358
 8354TIP3    H246554   3.287   0.307  10.607  1.3409 -0.1873 -2.1906
 8355TIP3   OH246555   3.102   6.803  11.531 -0.1320  0.4671 -0.3594
 8355TIP3    H146556   3.085   6.863  11.458 -1.1821  0.5071 -0.0872
 8355TIP3    H246557   3.017   6.789  11.572 -0.0206 -1.6546 -0.7384
 8356TIP3   OH246558   1.223   4.438   2.565 -0.0037 -0.0315  0.6177
 8356TIP3    H146559   1.150   4.382   2.540 -0.0573  0.0729  0.5431
 8356TIP3    H246560   1.186   4.503   2.625 -0.1680  0.6167 -0.1733
 8357TIP3   OH246561   1.528   3.440   5.719  0.5195 -0.4266 -0.2985
 8357TIP3    H146562   1.577   3.477   5.793  0.5374  0.6017 -0.8105
 8357TIP3    H246563   1.439   3.428   5.753  1.0008 -1.8829  0.4979
 8358TIP3   OH246564   5.688   5.062  13.998  0.3663 -0.0814  0.6028
 8358TIP3    H146565   5.735   5.005  14.058  0.9474 -0.1839  0.0622
 8358TIP3    H246566   5.713   5.030  13.911  0.7270  1.0202  0.2914
 8359TIP3   OH246567   6.091   4.775   5.611 -0.2848  0.1377  0.2455
 8359TIP3    H146568   6.128   4.851   5.657  0.4717  1.4030 -2.2849
 8359TIP3    H246569   6.153   4.704   5.629  0.8971  1.0436 -0.1542
 8360TIP3   OH246570   5.176   2.348   0.428 -0.0263  0.1951 -0.1872
 8360TIP3    H146571   5.096   2.368   0.379 -0.3887 -0.0782  0.2836
 8360TIP3    H246572   5.237   2.419   0.405 -0.2484  0.1581 -0.8941
 8361TIP3   OH246573   5.002   3.265   1.630  0.6829 -0.2335  0.0334
 8361TIP3    H146574   5.081   3.283   1.578 -0.0549  0.0229 -1.0265
 8361TIP3    H246575   5.036   3.238   1.715  1.9209  1.1845  0.0508
 8362TIP3   OH246576   1.207   4.550   0.825 -0.0852  0.4235 -0.5324
 8362TIP3    H146577   1.151   4.598   0.764 -1.6477 -0.9020 -0.1914
 8362TIP3    H246578   1.147   4.512   0.889  1.2254 -0.7650  0.0423
 8363TIP3   OH246579   0.619   1.863   5.509 -0.0461 -1.2158  1.3162
 8363TIP3    H146580   0.670   1.894   5.434  0.1523 -3.7165  0.3346
 8363TIP3    H246581   0.541   1.824   5.470 -1.2251 -0.2567  2.6230
 8364TIP3   OH246582   1.321   3.444  12.077  0.2254 -0.2479  0.1366
 8364TIP3    H146583   1.387   3.494  12.029 -0.0823  1.1182  1.0670
 8364TIP3    H246584   1.282   3.386  12.012  1.6812 -0.4089 -0.6313
 8365TIP3   OH246585   4.434   4.919  14.381 -0.1287 -0.0362 -0.4402
 8365TIP3    H146586   4.401   4.919  14.471  0.2932  0.0263 -0.2814
 8365TIP3    H246587   4.467   4.831  14.367 -1.7649 -0.5838 -1.1388
 8366TIP3   OH246588   2.368   0.080   4.884  0.2947  0.1704 -0.5344
 8366TIP3    H146589   2.401   0.118   4.966 -1.7242  0.6777  0.1027
 8366TIP3    H246590   2.422   0.120   4.816  0.5852  1.4307  0.3976
 8367TIP3   OH246591   5.326   2.581  13.675 -0.3823  0.2438  0.5851
 8367TIP3    H146592   5.362   2.589  13.587 -1.6151  0.7487  0.1004
 8367TIP3    H246593   5.268   2.505  13.670  2.9351 -2.6954  2.2337
 8368TIP3   OH246594   0.033   1.754  12.060 -0.3737  0.7519  0.0345
 8368TIP3    H146595   0.025   1.683  12.123 -0.3601  0.8802  0.1811
 8368TIP3    H246596  -0.006   1.719  11.980  2.6840 -0.6820 -0.9589
 8369TIP3   OH246597   1.783   6.211   5.152 -0.1635  0.3875  0.3378
 8369TIP3    H146598   1.842   6.146   5.191  0.3785  0.3499 -0.5247
 8369TIP3    H246599   1.786   6.285   5.213  0.3734  0.1812  0.5715
 8370TIP3   OH246600   0.385   0.516  11.060  0.3180  0.1097 -0.4180
 8370TIP3    H146601   0.471   0.549  11.035  0.8328  0.1092  1.2035
 8370TIP3    H246602   0.368   0.443  11.000  1.7232 -0.2614 -0.4076
 8371TIP3   OH246603   3.352   6.847  13.837  0.0693  0.5364 -0.2419
 8371TIP3    H146604   3.332   6.906  13.910 -0.0862  0.3486 -0.1302
 8371TIP3    H246605   3.320   6.762  13.866 -0.0356  0.4695 -0.5487
 8372TIP3   OH246606   3.936   3.556   4.993 -0.6301  0.0338 -0.0002
 8372TIP3    H146607   3.965   3.535   4.904  0.5206 -2.9615  0.9552
 8372TIP3    H246608   3.987   3.633   5.017 -0.3052  0.3623 -1.5841
 8373TIP3   OH246609   2.502   3.068   1.007 -0.2159 -0.2312  0.1924
 8373TIP3    H146610   2.407   3.063   1.021 -0.1837 -2.9520 -0.0849
 8373TIP3    H246611   2.511   3.065   0.911  0.1790 -0.9987  0.2534
 8374TIP3   OH246612   1.080   1.261  14.652  0.0157 -0.1871  0.6998
 8374TIP3    H146613   1.128   1.186  14.686  1.8643  1.0910  1.1214
 8374TIP3    H246614   0.994   1.227  14.628  0.9738 -2.5224  0.3352
 8375TIP3   OH246615   3.728   5.726   6.566  0.0770  0.1896  0.3029
 8375TIP3    H146616   3.768   5.808   6.597 -1.0307 -0.1632  2.9044
 8375TIP3    H246617   3.643   5.754   6.530  1.4904  0.6408 -3.0555
 8376TIP3   OH246618   1.745   1.377   5.377  0.6841 -0.5355 -0.2378
 8376TIP3    H146619   1.666   1.332   5.408  0.8591 -0.9561 -0.3875
 8376TIP3    H246620   1.749   1.358   5.283  1.2472 -0.9706 -0.1352
 8377TIP3   OH246621   2.620   0.756  15.091 -0.3002  0.1718 -0.4479
 8377TIP3    H146622   2.702   0.708  15.105 -0.5758 -0.4047 -0.7777
 8377TIP3    H246623   2.552   0.699  15.127 -0.6931  0.0404 -1.3642
 8378TIP3   OH246624   6.329   4.626  12.003 -0.2226  0.0471 -0.9249
 8378TIP3    H146625   6.348   4.696  11.941  0.3525  0.1970 -0.5836
 8378TIP3    H246626   6.407   4.569  12.000  0.3835  0.7394  0.5840
 8379TIP3   OH246627   4.819   0.626   2.696 -0.1841  0.3783  0.2095
 8379TIP3    H146628   4.797   0.702   2.642  1.7267  0.5536 -0.4306
 8379TIP3    H246629   4.786   0.551   2.647 -2.5308  0.7464  1.0842
 8380TIP3   OH246630   5.185   0.521  10.455  0.1363 -0.1581  0.9768
 8380TIP3    H146631   5.103   0.486  10.487  0.9895 -0.9117  2.4274
 8380TIP3    H246632   5.253   0.474  10.504  1.4172  0.8622  0.2654
 8381TIP3   OH246633   0.359   5.160   0.347 -0.5480  0.2143 -0.4096
 8381TIP3    H146634   0.289   5.193   0.402  0.0291  0.4654  0.1839
 8381TIP3    H246635   0.341   5.066   0.339 -0.3843  0.0838  0.6035
 8382TIP3   OH246636   4.120   0.386   0.504 -0.2583  0.3703 -0.0683
 8382TIP3    H146637   4.074   0.446   0.563 -0.2235 -1.0397  1.4703
 8382TIP3    H246638   4.141   0.310   0.559  3.9514  0.9152 -0.6390
 8383TIP3   OH246639   5.024   4.047  11.563 -0.2974  0.3374 -0.1192
 8383TIP3    H146640   4.962   3.981  11.594 -0.7088  0.8914  0.2701
 8383TIP3    H246641   5.066   4.080  11.643 -1.7204  2.1344 -0.0399
 8384TIP3   OH246642   3.433   2.339  14.199  0.0830  0.1852 -0.0181
 8384TIP3    H146643   3.413   2.246  14.205  1.5612 -0.1601 -0.0281
 8384TIP3    H246644   3.414   2.362  14.108  3.0776 -1.0168 -1.0856
 8385TIP3   OH246645   1.300   1.975   3.569 -0.7986  0.2648 -0.2010
 8385TIP3    H146646   1.261   1.994   3.484 -2.2312 -1.0346  0.1138
 8385TIP3    H246647   1.234   2.003   3.632  1.0532  3.1738  0.6857
 8386TIP3   OH246648   2.462   4.102   0.644  0.4558 -0.3846  0.5955
 8386TIP3    H146649   2.383   4.127   0.595  0.6936  0.2903  0.5468
 8386TIP3    H246650   2.479   4.176   0.702 -0.5243 -1.6667  2.6302
 8387TIP3   OH246651   1.620   2.859   0.823 -0.3696  0.0759  0.3079
 8387TIP3    H146652   1.632   2.769   0.793  0.7889 -0.0872  1.1989
 8387TIP3    H246653   1.625   2.912   0.743  1.9497 -0.3953  0.0768
 8388TIP3   OH246654   0.599   5.012   6.101  0.0976 -0.0912  0.0113
 8388TIP3    H146655   0.530   5.069   6.135 -0.0932  0.8650 -1.8303
 8388TIP3    H246656   0.636   5.060   6.027  0.0804 -2.2446 -1.4963
 8389TIP3   OH246657   0.227   5.787  13.143  0.0663  0.1606  0.1607
 8389TIP3    H146658   0.173   5.830  13.077 -0.0829  0.5835  0.5520
 8389TIP3    H246659   0.317   5.805  13.117  0.1525 -2.3903 -1.7541
 8390TIP3   OH246660   3.304   1.001   5.860  0.1858 -0.0228  0.0294
 8390TIP3    H146661   3.340   1.090   5.858  0.5051 -0.1569 -1.1877
 8390TIP3    H246662   3.212   1.013   5.883  0.5957  0.4693  1.5083
 8391TIP3   OH246663   4.742   2.643   4.321  0.6018 -0.5075 -0.0216
 8391TIP3    H146664   4.657   2.683   4.342  0.8773  0.5577 -0.8698
 8391TIP3    H246665   4.766   2.596   4.401 -0.6745 -0.6213  0.3133
 8392TIP3   OH246666   2.343   4.037  15.244  0.3776 -0.1210 -0.3985
 8392TIP3    H146667   2.310   4.084  15.167 -0.7200 -1.7088 -0.9560
 8392TIP3    H246668   2.288   4.068  15.316  0.4738  0.3360 -0.5182
 8393TIP3   OH246669   2.757   5.912  11.972 -0.0895 -0.5191 -0.4448
 8393TIP3    H146670   2.813   5.835  11.962  0.4592 -0.4948  1.8965
 8393TIP3    H246671   2.814   5.986  11.953  0.4296 -0.5494  0.8852
 8394TIP3   OH246672   5.324   4.666  15.657  0.1177 -0.0904 -0.6229
 8394TIP3    H146673   5.307   4.575  15.633 -0.8012 -0.1686  0.2324
 8394TIP3    H246674   5.339   4.663  15.751  1.8892  0.4257 -0.8552
 8395TIP3   OH246675   0.776   5.985   2.453  0.0053 -0.2539 -0.4638
 8395TIP3    H146676   0.853   5.976   2.510 -1.0445  0.6046  1.1464
 8395TIP3    H246677   0.783   5.910   2.394  3.0255  0.7437 -1.5871
 8396TIP3   OH246678   2.714   0.187   4.194  0.0748 -0.1483  0.0645
 8396TIP3    H146679   2.723   0.092   4.195  0.2105 -0.1718 -1.4599
 8396TIP3    H246680   2.787   0.219   4.247  1.1596 -0.8287 -0.9767
 8397TIP3   OH246681   2.511   6.777   0.226  0.0158 -0.2759 -0.0549
 8397TIP3    H146682   2.534   6.691   0.190  0.6211  0.3715 -1.2864
 8397TIP3    H246683   2.422   6.767   0.259  0.0186 -1.3210 -0.3323
 8398TIP3   OH246684   6.571   1.070   2.581  0.0836  0.1225  0.0173
 8398TIP3    H146685   6.535   1.139   2.637 -0.8074 -1.0332  0.9311
 8398TIP3    H246686   6.650   1.041   2.627  1.2060  1.4076 -1.0474
 8399TIP3   OH246687   6.254   1.997   4.155 -0.0481 -0.5631  0.1709
 8399TIP3    H146688   6.349   1.982   4.157  0.0146 -0.1259  1.1278
 8399TIP3    H246689   6.222   1.951   4.233 -0.4778  0.1630  0.4309
 8400TIP3   OH246690   6.496   0.819  16.445 -0.4369  0.3814 -0.2130
 8400TIP3    H146691   6.551   0.849  16.373 -0.6325  0.2780 -0.4028
 8400TIP3    H246692   6.556   0.811  16.519 -0.4516  1.7082 -0.0264
 8401TIP3   OH246693   0.985   2.370  11.264  0.6956  0.1330  0.5854
 8401TIP3    H146694   0.959   2.462  11.267  1.9973  0.5034  0.8091
 8401TIP3    H246695   0.913   2.323  11.307 -0.4384  0.9212 -0.3773
 8402TIP3   OH246696   0.607   3.249   3.478  0.1110 -0.0262 -0.2603
 8402TIP3    H146697   0.672   3.301   3.431 -1.9168  2.7489 -0.2196
 8402TIP3    H246698   0.540   3.228   3.413 -0.7446  0.3430  0.4767
 8403TIP3   OH246699   1.792   0.652   1.893  0.3808 -0.1595  0.5088
 8403TIP3    H146700   1.847   0.599   1.836  0.0814  0.4568 -0.3605
 8403TIP3    H246701   1.835   0.737   1.897 -0.0635  0.0699  0.4964
 8404TIP3   OH246702   2.336   1.360   4.998  0.0321 -0.5609 -0.0199
 8404TIP3    H146703   2.253   1.341   4.953 -0.0982 -1.2309  0.5002
 8404TIP3    H246704   2.310   1.381   5.088  0.6456 -4.6911  1.3227
 8405TIP3   OH246705   6.227   6.144   3.670 -0.3382 -0.4129 -0.0895
 8405TIP3    H146706   6.201   6.230   3.639  0.2088 -0.3615 -0.4211
 8405TIP3    H246707   6.205   6.144   3.764 -2.0843 -0.5967 -0.4527
 8406TIP3   OH246708   1.274   6.747   3.437 -0.4299 -0.0141 -0.1693
 8406TIP3    H146709   1.256   6.782   3.524  0.1448  0.7883 -0.3625
 8406TIP3    H246710   1.322   6.817   3.392 -0.7110 -0.4163 -1.1276
 8407TIP3   OH246711   3.976   1.529  15.374 -0.3413  0.8670  0.2643
 8407TIP3    H146712   3.907   1.596  15.368 -0.8208  0.2559 -1.7305
 8407TIP3    H246713   3.985   1.496  15.285  0.9955 -0.6342  0.9133
 8408TIP3   OH246714   4.904   4.926  15.872  0.5858  0.1566 -0.3690
 8408TIP3    H146715   4.899   4.962  15.784 -0.3055  1.2368  0.1095
 8408TIP3    H246716   4.837   4.972  15.921  1.7277  0.3003  1.1354
 8409TIP3   OH246717   6.247   1.234  13.795 -0.2015  0.0316  0.2425
 8409TIP3    H146718   6.291   1.314  13.766  0.6032 -0.8161 -0.9651
 8409TIP3    H246719   6.310   1.164  13.777 -1.5099 -1.0733 -0.2388
 8410TIP3   OH246720   2.189   2.533   2.591  0.4026  0.2635 -0.3157
 8410TIP3    H146721   2.121   2.575   2.539 -0.5906 -0.7193  0.1490
 8410TIP3    H246722   2.158   2.443   2.602  0.8158  0.3176  1.5543
 8411TIP3   OH246723   3.734   5.151  13.037 -0.0911  0.3399  0.7190
 8411TIP3    H146724   3.694   5.128  13.121 -1.1333  0.9906  0.4291
 8411TIP3    H246725   3.707   5.081  12.977 -0.1102  0.3498  0.7166
 8412TIP3   OH246726   6.579   2.079   0.241 -0.3257  0.1709  0.2054
 8412TIP3    H146727   6.523   2.047   0.170 -0.8159 -0.4134  0.8335
 8412TIP3    H246728   6.523   2.137   0.292 -0.2436 -0.1001  0.6106
 8413TIP3   OH246729   6.522   4.839  14.212 -0.2907  0.9253 -0.3678
 8413TIP3    H146730   6.482   4.794  14.137 -0.2686  1.4158 -0.6770
 8413TIP3    H246731   6.606   4.794  14.225 -0.6100  0.3722 -0.1806
 8414TIP3   OH246732   5.492   2.838  13.017 -0.3661 -0.0098  0.3317
 8414TIP3    H146733   5.519   2.747  13.027 -0.1424  0.0384  0.1776
 8414TIP3    H246734   5.510   2.878  13.102  1.1133  0.2926 -0.1002
 8415TIP3   OH246735   3.034   2.091   5.458 -0.0928 -0.5306 -0.0583
 8415TIP3    H146736   3.069   2.002   5.457 -0.0857 -0.5212 -1.4145
 8415TIP3    H246737   3.047   2.124   5.369  0.1712  0.9387  0.4987
 8416TIP3   OH246738   6.861   0.832   4.167 -0.6787 -0.4039  0.4726
 8416TIP3    H146739   6.890   0.886   4.094  0.2370 -1.4758  0.0147
 8416TIP3    H246740   6.897   0.874   4.245 -0.4641 -0.0322  0.1725
 8417TIP3   OH246741   1.931   6.261   2.401  0.1203 -0.3634  0.0380
 8417TIP3    H146742   1.922   6.294   2.312  0.3204  1.8216  0.7618
 8417TIP3    H246743   1.843   6.267   2.438  0.4556  1.0119  0.6807
 8418TIP3   OH246744   0.802   4.400  15.275  0.5447  0.4414 -0.1194
 8418TIP3    H146745   0.756   4.458  15.336 -1.0738 -0.8475 -0.0686
 8418TIP3    H246746   0.882   4.448  15.253 -0.1492  2.1431  0.8674
 8419TIP3   OH246747   4.321   1.926  15.103 -0.5598  0.0048 -0.2639
 8419TIP3    H146748   4.260   1.871  15.152 -0.5413 -1.3570 -1.6855
 8419TIP3    H246749   4.399   1.931  15.160 -0.7721 -0.9827  0.1360
 8420TIP3   OH246750   6.116   0.529   1.540  0.3492  0.7250  0.0502
 8420TIP3    H146751   6.123   0.437   1.514 -1.7939  0.8372 -1.1555
 8420TIP3    H246752   6.203   0.565   1.524  0.8461 -0.7816 -0.8144
 8421TIP3   OH246753   1.450   1.920  11.878 -0.3860 -0.0362 -0.1183
 8421TIP3    H146754   1.359   1.947  11.862 -1.1314 -1.9428  0.6790
 8421TIP3    H246755   1.491   1.921  11.792 -0.3991  3.2312 -0.2169
 8422TIP3   OH246756   0.041   4.317   2.982 -0.1651 -0.2154 -0.4350
 8422TIP3    H146757  -0.003   4.332   2.899 -1.9946 -3.2348 -0.1562
 8422TIP3    H246758  -0.008   4.370   3.045  0.8100  1.5525 -1.0894
 8423TIP3   OH246759   0.382   2.138   0.899  0.9281 -0.1786 -0.5304
 8423TIP3    H146760   0.334   2.185   0.967  0.3784 -0.2410 -0.8668
 8423TIP3    H246761   0.413   2.059   0.942  0.5028 -0.2640 -0.3714
 8424TIP3   OH246762   2.632   5.142   5.420 -0.7359 -0.3678 -0.3698
 8424TIP3    H146763   2.720   5.178   5.425 -0.8740  0.2075 -1.6132
 8424TIP3    H246764   2.587   5.176   5.497  0.6968 -2.4270  1.5194
 8425TIP3   OH246765   0.098   0.717   6.410 -0.6744  0.6334  0.3002
 8425TIP3    H146766   0.160   0.677   6.349  0.1853  0.4069  1.2964
 8425TIP3    H246767   0.055   0.786   6.358 -0.8427 -0.3388 -0.8934
 8426TIP3   OH246768   0.622   1.822  12.311  0.5403  0.3280  0.0893
 8426TIP3    H146769   0.579   1.737  12.320  1.5298 -0.5597 -2.5427
 8426TIP3    H246770   0.551   1.886  12.320 -0.7233 -0.9158 -0.6374
 8427TIP3   OH246771   0.770   2.644  10.713  0.1814  0.0523  0.1398
 8427TIP3    H146772   0.760   2.658  10.807  2.0457 -0.7742  0.5067
 8427TIP3    H246773   0.864   2.633  10.700 -0.1219 -0.8338 -1.6846
 8428TIP3   OH246774   1.086   3.552  15.903 -0.3244  0.4509  0.6114
 8428TIP3    H146775   1.097   3.577  15.995 -0.3079 -0.2669  0.8114
 8428TIP3    H246776   1.021   3.614  15.869 -1.2767 -0.0566  1.4485
 8429TIP3   OH246777   1.109   1.535   3.299  0.0122  0.1715  0.3376
 8429TIP3    H146778   1.133   1.490   3.218 -0.9482  0.2728 -0.0252
 8429TIP3    H246779   1.134   1.626   3.284  2.6662 -0.2936  1.3659
 8430TIP3   OH246780   5.439   2.213  15.952  0.1062 -0.0160 -0.0084
 8430TIP3    H146781   5.378   2.282  15.976 -0.7807 -0.7992  0.0545
 8430TIP3    H246782   5.426   2.200  15.858  1.3216  0.8865 -0.3266
 8431TIP3   OH246783   4.976   5.547  13.792 -0.7266 -0.2563  0.2253
 8431TIP3    H146784   5.051   5.489  13.799 -0.6521 -0.1831  0.0254
 8431TIP3    H246785   4.907   5.494  13.753 -0.6748 -0.2244  0.0927
 8432TIP3   OH246786   1.529   5.929   5.697  0.2625 -0.3581 -0.1984
 8432TIP3    H146787   1.517   5.883   5.780 -0.4590  1.7470  0.9394
 8432TIP3    H246788   1.516   5.862   5.630  1.4123 -2.2456  1.3543
 8433TIP3   OH246789   6.864   0.924  15.529  0.4478 -0.4103  0.0468
 8433TIP3    H146790   6.876   0.990  15.461 -2.4655  1.4587  1.1522
 8433TIP3    H246791   6.807   0.859  15.490 -1.6103  0.9004  0.7095
 8434TIP3   OH246792   0.949   6.834  16.510  0.1833 -0.3664 -0.6627
 8434TIP3    H146793   0.936   6.761  16.570  0.8182 -0.8654 -1.1256
 8434TIP3    H246794   1.043   6.834  16.492 -0.0557 -0.5134 -2.0180
 8435TIP3   OH246795   6.843   1.125   1.448  0.1235  0.3190  0.6002
 8435TIP3    H146796   6.809   1.080   1.370  0.3379 -0.2707  0.8453
 8435TIP3    H246797   6.822   1.066   1.520  2.4404 -0.5220  0.6819
 8436TIP3   OH246798   0.326   6.378   0.622 -0.4760  0.6397 -0.1592
 8436TIP3    H146799   0.317   6.453   0.563 -0.0941  1.3948  0.7211
 8436TIP3    H246800   0.239   6.338   0.623 -0.5907  0.8608 -0.9133
 8437TIP3   OH246801   0.032   1.292   0.845  0.6455 -0.0632 -0.5944
 8437TIP3    H146802   0.089   1.216   0.834 -1.9860 -2.5932  1.4119
 8437TIP3    H246803  -0.025   1.291   0.768  2.3767  1.7615 -2.0111
 8438TIP3   OH246804   4.060   6.832  12.071 -0.5077 -0.0659  0.2591
 8438TIP3    H146805   3.986   6.883  12.037 -0.2378  0.5395  0.5833
 8438TIP3    H246806   4.044   6.826  12.165 -1.3731 -1.9372  0.0500
 8439TIP3   OH246807   3.964   6.068   4.312 -0.2896 -0.1216 -0.1784
 8439TIP3    H146808   3.901   6.012   4.267 -1.1730  0.0311  0.8390
 8439TIP3    H246809   3.997   6.014   4.384  0.6514 -0.1553 -0.6261
 8440TIP3   OH246810   2.081   2.420   0.795  0.7040 -0.0200 -0.3012
 8440TIP3    H146811   2.048   2.509   0.806  0.0812 -0.2362 -0.3466
 8440TIP3    H246812   2.022   2.366   0.847  0.1638 -0.5750 -1.4395
 8441TIP3   OH246813   0.186   0.827   5.339  0.1296  0.1952 -0.2842
 8441TIP3    H146814   0.149   0.885   5.405  0.7216  0.0306  0.1969
 8441TIP3    H246815   0.269   0.797   5.376 -0.3102 -1.2177 -0.3688
 8442TIP3   OH246816   1.725   4.245  10.435 -0.3379  0.0766  0.4685
 8442TIP3    H146817   1.701   4.189  10.508 -2.4858 -0.1287 -0.3325
 8442TIP3    H246818   1.674   4.325  10.448  0.4389  0.6624  0.0095
 8443TIP3   OH246819   1.329   5.034   5.109  0.3148 -0.1303 -0.1746
 8443TIP3    H146820   1.402   5.093   5.089 -0.2647  1.1237  1.2868
 8443TIP3    H246821   1.334   4.967   5.040  2.9777 -0.2327 -0.0033
 8444TIP3   OH246822   1.391   2.135   3.841 -0.1727 -0.2943 -0.8073
 8444TIP3    H146823   1.303   2.174   3.838  0.5023  1.3274 -0.4130
 8444TIP3    H246824   1.449   2.205   3.810  1.0355 -1.1794 -0.5902
 8445TIP3   OH246825   1.404   1.249   4.079 -0.2766 -0.0845 -0.4470
 8445TIP3    H146826   1.480   1.305   4.095 -0.3457 -0.3399  0.9073
 8445TIP3    H246827   1.368   1.232   4.166 -1.2821 -0.8077 -0.9839
 8446TIP3   OH246828   5.151   4.550   2.793 -0.1244  0.2696  0.1674
 8446TIP3    H146829   5.191   4.477   2.747 -0.9866 -0.5570  0.6731
 8446TIP3    H246830   5.221   4.588   2.845  0.4894  0.2209 -0.6243
 8447TIP3   OH246831   0.683   1.028  10.656  0.1284  0.5694 -0.0510
 8447TIP3    H146832   0.647   1.116  10.646 -1.0130  0.0253 -1.0290
 8447TIP3    H246833   0.710   1.023  10.748  1.4134  2.3550 -0.2791
 8448TIP3   OH246834   1.899   1.205   5.786  0.3279 -0.1399 -0.1912
 8448TIP3    H146835   1.951   1.263   5.731 -0.9887 -0.3865 -1.7842
 8448TIP3    H246836   1.870   1.260   5.859  1.3865  0.4332 -0.1822
 8449TIP3   OH246837   5.198   3.229   2.132  0.2207  0.4579 -0.0179
 8449TIP3    H146838   5.173   3.158   2.190  2.4530 -0.3001  0.1165
 8449TIP3    H246839   5.210   3.305   2.189  1.1914  0.0373  0.3454
 8450TIP3   OH246840   5.330   5.900  12.401 -0.0108  0.5500  0.0273
 8450TIP3    H146841   5.377   5.926  12.481  0.6648  2.6457 -0.9663
 8450TIP3    H246842   5.392   5.917  12.330 -0.6071 -1.2389 -0.9759
 8451TIP3   OH246843   0.410   5.730  12.285  0.2698  0.2123  0.5073
 8451TIP3    H146844   0.410   5.810  12.338  0.5670  0.6119 -0.0884
 8451TIP3    H246845   0.501   5.700  12.287  0.5034  0.8023 -0.6168
 8452TIP3   OH246846   6.097   2.561   2.645  0.2623 -0.2968 -0.7059
 8452TIP3    H146847   6.041   2.568   2.568  0.5857 -0.3495 -0.9494
 8452TIP3    H246848   6.099   2.467   2.665  0.5477 -0.3344 -0.9106
 8453TIP3   OH246849   2.776   1.319   2.709 -0.1645  0.5496  0.0109
 8453TIP3    H146850   2.817   1.362   2.784  2.4103  2.0241 -2.0884
 8453TIP3    H246851   2.792   1.226   2.724 -2.9503  0.3573  2.9811
 8454TIP3   OH246852   1.287   4.621  11.853  0.1405 -0.4843 -0.4199
 8454TIP3    H146853   1.376   4.608  11.819  1.1232 -0.5024  1.9747
 8454TIP3    H246854   1.294   4.697  11.909 -2.1949  1.6143 -2.7053
 8455TIP3   OH246855   3.557   4.675   2.619 -0.2935  0.1007 -0.5938
 8455TIP3    H146856   3.631   4.656   2.678  0.7116 -1.0557 -2.1310
 8455TIP3    H246857   3.484   4.627   2.657 -0.4533  1.6463  1.2254
 8456TIP3   OH246858   1.147   1.161   3.937  0.9963  0.5665  0.7558
 8456TIP3    H146859   1.220   1.166   3.998  2.6608  1.8060 -1.2267
 8456TIP3    H246860   1.147   1.070   3.907  0.0337 -0.1151  2.6237
 8457TIP3   OH246861   2.368   0.969   3.836  0.5431 -0.2248  0.4962
 8457TIP3    H146862   2.396   0.909   3.767  1.4337  0.7925 -0.0490
 8457TIP3    H246863   2.435   0.961   3.904 -0.5317 -1.5164  1.4691
 8458TIP3   OH246864   6.639   6.042   3.448  0.1499 -0.4348 -0.5219
 8458TIP3    H146865   6.625   6.089   3.366  0.2890  1.8597  0.6667
 8458TIP3    H246866   6.715   5.986   3.432  1.1476  1.1337 -1.5457
 8459TIP3   OH246867   5.959   1.901  16.242  0.2183  0.4732  0.3784
 8459TIP3    H146868   5.929   1.834  16.181 -1.2422  0.3159  1.2362
 8459TIP3    H246869   5.990   1.853  16.318  0.1645  0.7388  0.5700
 8460TIP3   OH246870   6.617   2.330  14.308  0.6367  0.1840 -0.8461
 8460TIP3    H146871   6.527   2.312  14.282  0.8204 -1.4179 -0.4667
 8460TIP3    H246872   6.670   2.274  14.253  1.2105 -0.9500  0.7742
 8461TIP3   OH246873   5.173   4.171  15.947  0.9130  0.7113 -0.3780
 8461TIP3    H146874   5.186   4.104  15.880 -0.1283  0.7135 -0.5894
 8461TIP3    H246875   5.137   4.246  15.901 -1.4691  0.1340  0.3858
 8462TIP3   OH246876   6.233   1.166  16.018 -0.6213  0.1742 -0.0526
 8462TIP3    H146877   6.221   1.214  16.100  1.7285 -1.2243  1.2236
 8462TIP3    H246878   6.302   1.214  15.972 -0.4264 -0.2539 -0.2064
 8463TIP3   OH246879   5.888   6.619  15.157 -0.1870 -0.7878  0.1204
 8463TIP3    H146880   5.949   6.590  15.225 -0.2539 -0.2503  0.4180
 8463TIP3    H246881   5.945   6.649  15.086  0.0204  1.9221  1.2948
 8464TIP3   OH246882   6.010   2.565  14.905 -0.2854  0.0334  0.4159
 8464TIP3    H146883   6.069   2.495  14.933 -0.8371 -0.6271 -0.0561
 8464TIP3    H246884   5.988   2.611  14.986 -0.8218 -1.0427  0.8942
 8465TIP3   OH246885   1.678   6.589  10.946  0.0057  0.0961 -0.1674
 8465TIP3    H146886   1.710   6.548  10.865 -0.4435 -0.8070  0.1040
 8465TIP3    H246887   1.696   6.525  11.014 -0.4192  0.4796  0.3120
 8466TIP3   OH246888   4.442   2.435  13.076  0.2169 -0.6558  0.2815
 8466TIP3    H146889   4.395   2.461  13.155  0.4270  0.0612  0.1782
 8466TIP3    H246890   4.484   2.516  13.046  0.3691 -0.9881 -0.4034
 8467TIP3   OH246891   3.511   4.727  16.664 -0.0196  0.2626  0.0673
 8467TIP3    H146892   3.529   4.641  16.626  0.7125  0.2520  0.4272
 8467TIP3    H246893   3.515   4.713  16.759  1.2071  0.9044  0.1331
 8468TIP3   OH246894   0.035   4.733  14.744 -0.3323 -0.2265 -0.4893
 8468TIP3    H146895  -0.021   4.711  14.669 -1.3024  0.7967 -0.0811
 8468TIP3    H246896   0.107   4.670  14.738 -1.1230 -1.0930 -1.4617
 8469TIP3   OH246897   5.082   5.847  12.192  0.3159 -0.3452 -0.5385
 8469TIP3    H146898   5.099   5.809  12.278  1.1431  0.3873 -0.3644
 8469TIP3    H246899   4.995   5.887  12.200 -0.3590 -1.7342 -0.5826
 8470TIP3   OH246900   3.748   2.925   3.840 -1.0449  0.4052  0.1420
 8470TIP3    H146901   3.783   3.011   3.864 -1.2667 -0.0358  2.3157
 8470TIP3    H246902   3.668   2.917   3.891 -2.6071  0.0403 -2.2379
 8471TIP3   OH246903   5.012   1.217   5.432 -0.4219  0.8910  0.4769
 8471TIP3    H146904   5.004   1.203   5.338 -0.0853 -2.2499  0.8004
 8471TIP3    H246905   4.923   1.233   5.462 -0.9581 -0.8415 -0.0780
 8472TIP3   OH246906   2.423   5.299   0.704 -0.3792 -0.2965 -0.0616
 8472TIP3    H146907   2.502   5.348   0.685 -0.7369  0.3058 -0.0042
 8472TIP3    H246908   2.361   5.364   0.738 -0.8650 -0.7761 -0.0073
 8473TIP3   OH246909   0.136   0.861   5.076  0.0145 -0.0371  0.1389
 8473TIP3    H146910   0.160   0.773   5.046  0.5186  0.2842 -0.4349
 8473TIP3    H246911   0.121   0.851   5.170 -0.2477 -0.7981  0.0281
 8474TIP3   OH246912   2.573   5.263   1.491  0.2601 -0.4873 -0.4858
 8474TIP3    H146913   2.539   5.342   1.448  3.2023  0.8145 -0.7132
 8474TIP3    H246914   2.637   5.229   1.429  2.2513 -0.4482  1.4191
 8475TIP3   OH246915   0.316   0.823   1.012 -0.1077 -0.3869  0.0246
 8475TIP3    H146916   0.311   0.879   1.089 -0.8264 -0.0537 -0.2545
 8475TIP3    H246917   0.313   0.734   1.047 -0.4777 -0.2392  0.3748
 8476TIP3   OH246918   1.185   2.509   0.121 -0.3734 -0.1944  0.7403
 8476TIP3    H146919   1.218   2.450   0.053 -1.2420 -0.0421  0.1657
 8476TIP3    H246920   1.161   2.451   0.194 -0.5664 -0.4836  0.4506
 8477TIP3   OH246921   1.482   6.431  12.100 -0.2657  0.0140 -0.4917
 8477TIP3    H146922   1.432   6.512  12.098 -1.5718 -0.7224  0.5033
 8477TIP3    H246923   1.418   6.364  12.125  1.1403 -1.0300  0.5108
 8478TIP3   OH246924   3.358   0.676  13.013 -0.0102 -0.6039  0.3922
 8478TIP3    H146925   3.440   0.626  13.015 -0.3764 -1.2519 -0.3240
 8478TIP3    H246926   3.357   0.724  13.096  1.0891 -0.5939  0.4166
 8479TIP3   OH246927   6.589   4.272  12.936 -0.0702  1.0843 -0.1594
 8479TIP3    H146928   6.670   4.317  12.910  0.1978  0.1390 -1.0308
 8479TIP3    H246929   6.595   4.186  12.894  0.7171 -0.9093  3.5574
 8480TIP3   OH246930   4.431   5.806  14.047 -0.4070 -0.2036  0.5084
 8480TIP3    H146931   4.473   5.817  14.131 -1.2583 -0.6613  1.0135
 8480TIP3    H246932   4.456   5.718  14.019  1.1481  0.5134 -0.4773
 8481TIP3   OH246933   3.197   6.867  10.494 -0.3345 -0.5919  0.0403
 8481TIP3    H146934   3.206   6.956  10.529  1.9404 -1.1757  1.1469
 8481TIP3    H246935   3.266   6.817  10.538 -0.6092 -2.5823 -1.6375
 8482TIP3   OH246936   1.050   4.633   4.589 -0.1162 -0.3926 -0.6200
 8482TIP3    H146937   0.995   4.576   4.536 -1.0522  0.2902 -0.4093
 8482TIP3    H246938   1.125   4.654   4.533  0.8929 -2.7709 -0.2872
 8483TIP3   OH246939   1.756   3.255   4.447 -0.0375 -0.1622 -0.8480
 8483TIP3    H146940   1.833   3.241   4.392  0.0361  0.1117 -0.8181
 8483TIP3    H246941   1.767   3.344   4.481  0.2770 -0.5890  0.1897
 8484TIP3   OH246942   4.325   4.234  14.658 -0.0774 -0.1076  0.1582
 8484TIP3    H146943   4.251   4.277  14.616 -0.8435 -0.5681  1.0105
 8484TIP3    H246944   4.286   4.166  14.713  1.1217 -2.1450 -1.3665
 8485TIP3   OH246945   0.391   4.510   0.981  0.8333  0.1053  0.0423
 8485TIP3    H146946   0.366   4.557   1.060  1.3560  0.1960  0.1555
 8485TIP3    H246947   0.334   4.433   0.981 -0.1476  0.8228 -0.2440
 8486TIP3   OH246948   5.597   4.644  11.724  0.3133 -0.3783 -0.4681
 8486TIP3    H146949   5.604   4.589  11.802 -0.5561 -1.2009 -0.9454
 8486TIP3    H246950   5.671   4.704  11.730 -0.0426 -0.0624  1.2684
 8487TIP3   OH246951   2.240   3.163   2.360  0.0842  0.4366 -0.0608
 8487TIP3    H146952   2.164   3.167   2.303 -0.2030  1.7183  0.3701
 8487TIP3    H246953   2.310   3.206   2.309  0.4528 -0.4471 -0.3271
 8488TIP3   OH246954   5.580   5.825   2.788 -0.7453 -0.4635  0.0414
 8488TIP3    H146955   5.626   5.773   2.722  1.2604 -0.0143  0.9983
 8488TIP3    H246956   5.506   5.770   2.815 -0.8859 -1.1642 -1.6610
 8489TIP3   OH246957   4.052   3.580   3.625  0.3439 -0.1205  0.5341
 8489TIP3    H146958   4.136   3.592   3.581  1.0399 -1.3813  1.4235
 8489TIP3    H246959   4.076   3.544   3.711 -1.0538  0.5441  1.2318
 8490TIP3   OH246960   3.219   5.083  13.453 -0.0517 -0.2900  0.0069
 8490TIP3    H146961   3.275   5.135  13.395  0.4315 -1.0280 -0.1943
 8490TIP3    H246962   3.172   5.024  13.394 -0.0312 -0.6105  0.3094
 8491TIP3   OH246963   4.396   3.540  12.101  0.2509  0.1010 -0.3539
 8491TIP3    H146964   4.300   3.535  12.097  0.2317 -0.3300  0.5143
 8491TIP3    H246965   4.420   3.592  12.024 -0.7341  1.0337 -0.0480
 8492TIP3   OH246966   6.561   3.567  14.995 -0.2086 -0.1690  0.3405
 8492TIP3    H146967   6.600   3.646  14.959 -0.6321  0.6743  1.6235
 8492TIP3    H246968   6.627   3.500  14.985  0.1418  0.3320 -0.8229
 8493TIP3   OH246969   2.821   1.160   1.887  0.3495  0.4804 -0.3535
 8493TIP3    H146970   2.857   1.240   1.848  0.1705  0.3503 -0.7884
 8493TIP3    H246971   2.763   1.124   1.820 -0.4169  0.5610  0.2431
 8494TIP3   OH246972   2.445   3.646   4.330 -0.5138 -0.3375 -0.0823
 8494TIP3    H146973   2.476   3.692   4.408  1.0029  1.0347 -1.4201
 8494TIP3    H246974   2.367   3.695   4.303 -0.9112 -0.6800  0.4228
 8495TIP3   OH246975   0.653   0.369   1.810  0.3260  0.4450 -0.2454
 8495TIP3    H146976   0.655   0.465   1.821  0.1959  0.4547 -0.3100
 8495TIP3    H246977   0.575   0.342   1.858 -0.2401  0.4825 -1.1212
 8496TIP3   OH246978   6.576   5.337   2.021 -0.3673  0.1618  0.6722
 8496TIP3    H146979   6.651   5.395   2.013 -0.0107 -0.4026 -0.2193
 8496TIP3    H246980   6.508   5.390   2.064 -0.6458  1.8002 -1.5934
 8497TIP3   OH246981   6.792   0.311  16.132  0.2850 -0.5991 -0.3295
 8497TIP3    H146982   6.715   0.358  16.167  1.6043  0.3617  1.4444
 8497TIP3    H246983   6.781   0.221  16.163 -0.0890 -0.4541 -0.0271
 8498TIP3   OH246984   5.109   0.167  13.533  0.4573 -0.2424  0.2098
 8498TIP3    H146985   5.158   0.135  13.457 -1.4425 -1.0353 -0.7347
 8498TIP3    H246986   5.152   0.126  13.608  0.4881 -1.9328 -0.6842
 8499TIP3   OH246987   3.538   2.706   1.039 -0.2413  0.1289 -0.3431
 8499TIP3    H146988   3.446   2.704   1.065 -0.0313 -0.1434  0.3860
 8499TIP3    H246989   3.536   2.693   0.944 -0.9713  0.4213 -0.3759
 8500TIP3   OH246990   4.707   6.415   0.961  0.2284 -0.2047 -0.1391
 8500TIP3    H146991   4.665   6.496   0.989 -0.8070  0.0283 -2.1689
 8500TIP3    H246992   4.648   6.346   0.990 -1.8526  0.1284 -3.1496
 8501TIP3   OH246993   1.179   3.737   0.763 -0.3667 -1.0286 -0.3612
 8501TIP3    H146994   1.265   3.779   0.755 -1.0463  0.7093  0.9227
 8501TIP3    H246995   1.135   3.756   0.681 -0.0272 -0.6953 -0.4700
 8502TIP3   OH246996   5.930   1.585   1.652  0.1701  0.1977  1.1883
 8502TIP3    H146997   5.857   1.591   1.713 -0.8016 -0.7030  0.1608
 8502TIP3    H246998   5.952   1.676   1.632 -0.8178  0.4825  1.3348
 8503TIP3   OH246999   5.143   0.826  16.750  0.2749 -0.4855  0.3256
 8503TIP3    H147000   5.196   0.856  16.825 -1.9053  0.9607  1.4006
 8503TIP3    H247001   5.095   0.904  16.723 -1.0001 -1.6490 -0.8490
 8504TIP3   OH247002   2.339   3.789  13.049  0.3480 -0.1845  0.2592
 8504TIP3    H147003   2.363   3.715  13.104  0.1415 -1.3968 -1.2149
 8504TIP3    H247004   2.398   3.782  12.973 -0.6910  0.2575 -0.6129
 8505TIP3   OH247005   4.444   5.040   3.971 -0.3490 -0.0346  0.5669
 8505TIP3    H147006   4.492   5.038   4.054  0.5227  1.2407  0.1272
 8505TIP3    H247007   4.484   4.970   3.919 -0.6047 -0.5508  1.0532
 8506TIP3   OH247008   0.799   6.305   2.139 -0.5283  0.6196 -0.0377
 8506TIP3    H147009   0.714   6.338   2.167  0.3503  2.2024  0.9041
 8506TIP3    H247010   0.856   6.381   2.140  1.2819 -0.6697  0.8832
 8507TIP3   OH247011   5.102   1.242   2.101  0.3724  1.0448 -0.7581
 8507TIP3    H147012   5.062   1.311   2.048 -1.0740  0.0650 -1.0082
 8507TIP3    H247013   5.028   1.194   2.137  1.1458 -2.3741 -3.1488
 8508TIP3   OH247014   0.909   5.487  14.955  0.1781  0.4000 -0.2478
 8508TIP3    H147015   0.869   5.418  15.008 -0.1038 -0.0897 -1.0849
 8508TIP3    H247016   0.998   5.495  14.990  0.2270 -0.4185 -0.1725
 8509TIP3   OH247017   2.472   4.712  15.150  0.3663 -0.1582  0.3650
 8509TIP3    H147018   2.551   4.763  15.170 -0.1257  0.8249 -0.1138
 8509TIP3    H247019   2.418   4.719  15.229  0.2191  0.2452  0.2352
 8510TIP3   OH247020   0.690   0.867  16.018 -0.0018  0.2119  0.0303
 8510TIP3    H147021   0.761   0.842  15.959 -0.1071  0.9235 -0.4072
 8510TIP3    H247022   0.728   0.937  16.072  0.1576 -0.5734  0.9468
 8511TIP3   OH247023   5.923   3.672  15.566 -0.1210 -0.3397 -0.4684
 8511TIP3    H147024   5.875   3.739  15.516 -1.6628 -1.3501 -0.4231
 8511TIP3    H247025   5.969   3.621  15.500  0.3787  0.2348 -0.5733
 8512TIP3   OH247026   1.491   5.774  11.586  0.1276  0.3386 -0.2697
 8512TIP3    H147027   1.464   5.830  11.658  1.4959  1.3376 -0.4914
 8512TIP3    H247028   1.429   5.792  11.516 -0.4159  0.3499  0.2124
 8513TIP3   OH247029   2.406   6.728   0.552  0.3569  0.4678 -0.3882
 8513TIP3    H147030   2.466   6.654   0.559  1.0877  1.0519 -0.3633
 8513TIP3    H247031   2.460   6.800   0.520 -0.2010  1.1698  0.1996
 8514TIP3   OH247032   0.478   2.322  11.506 -0.3317  0.2904  0.0166
 8514TIP3    H147033   0.466   2.230  11.529 -1.5963  0.5644  0.5591
 8514TIP3    H247034   0.506   2.364  11.587 -2.9879  0.9263  0.7229
 8515TIP3   OH247035   2.700   3.493   5.202 -0.0286 -0.4878 -0.1775
 8515TIP3    H147036   2.624   3.551   5.194  0.0455 -0.4954 -1.0463
 8515TIP3    H247037   2.668   3.418   5.252 -0.3582 -0.1073  0.1963
 8516TIP3   OH247038   3.172   3.890   1.668 -0.1370 -0.1601  0.5676
 8516TIP3    H147039   3.119   3.870   1.591  0.5082  0.2669 -0.0059
 8516TIP3    H247040   3.128   3.964   1.710  2.1966  3.2482 -2.3463
 8517TIP3   OH247041   3.774   2.163  12.036  0.3714 -0.1276  0.4396
 8517TIP3    H147042   3.705   2.128  11.980  2.6455 -0.4873 -2.4113
 8517TIP3    H247043   3.817   2.086  12.073  0.3757 -0.0108  0.6757
 8518TIP3   OH247044   4.611   1.681   4.063 -0.5625 -0.2364 -0.7252
 8518TIP3    H147045   4.668   1.664   3.988  0.2755 -1.2559  0.1173
 8518TIP3    H247046   4.667   1.670   4.139 -1.7885 -0.9464  0.1165
 8519TIP3   OH247047   0.874   1.637   3.467 -0.1193  0.1339  0.3413
 8519TIP3    H147048   0.932   1.577   3.421 -0.0448 -0.6186  1.3765
 8519TIP3    H247049   0.931   1.681   3.531 -0.7548 -0.9897  1.7242
 8520TIP3   OH247050   0.883   3.889   6.358 -0.3308 -0.6347 -0.1854
 8520TIP3    H147051   0.927   3.974   6.356 -1.4519 -0.0524 -1.2806
 8520TIP3    H247052   0.888   3.862   6.450  0.9956  0.0883 -0.0166
 8521TIP3   OH247053   5.199   4.199  13.754 -1.1051  0.0724  0.0065
 8521TIP3    H147054   5.239   4.131  13.808 -0.2050  0.4548 -0.1587
 8521TIP3    H247055   5.140   4.152  13.694 -1.6587 -0.4065  0.9112
 8522TIP3   OH247056   2.955   3.333  11.937  0.6664  0.0377  0.7096
 8522TIP3    H147057   3.038   3.314  11.980  0.2973 -2.5879  0.3964
 8522TIP3    H247058   2.907   3.388  11.999  1.5595 -0.6817  2.0748
 8523TIP3   OH247059   1.067   2.524  15.164 -0.4964  0.3020 -0.0604
 8523TIP3    H147060   1.088   2.521  15.070 -0.8048  0.9496 -0.1522
 8523TIP3    H247061   1.079   2.434  15.193 -1.6144 -0.1684 -0.9934
 8524TIP3   OH247062   5.348   4.552   0.618  0.2781 -0.0713 -0.3326
 8524TIP3    H147063   5.305   4.637   0.609  0.1977 -0.0293  0.3989
 8524TIP3    H247064   5.428   4.560   0.567  1.5595  1.3397  1.7701
 8525TIP3   OH247065   0.721   2.473  11.855 -0.1040  0.3390 -0.0805
 8525TIP3    H147066   0.655   2.425  11.804  1.3284 -0.9431 -0.8217
 8525TIP3    H247067   0.708   2.564  11.832  0.0724 -0.1493 -2.2903
 8526TIP3   OH247068   5.483   4.178   4.526 -0.0128  0.0396 -0.1003
 8526TIP3    H147069   5.517   4.091   4.507 -2.2640 -0.9593  0.1355
 8526TIP3    H247070   5.520   4.200   4.612  1.4486 -0.1671 -0.6535
 8527TIP3   OH247071   5.663   6.508  14.560 -0.0189  0.5675 -0.7278
 8527TIP3    H147072   5.716   6.553  14.495  0.5557  0.4618 -0.3424
 8527TIP3    H247073   5.727   6.462  14.615 -0.6273 -1.7103 -1.8167
 8528TIP3   OH247074   0.457   1.563   0.439 -0.2445  0.6447 -0.6739
 8528TIP3    H147075   0.492   1.525   0.359  2.6722  0.8296  0.3803
 8528TIP3    H247076   0.426   1.650   0.413  1.2691  0.9636 -1.5623
 8529TIP3   OH247077   4.603   4.654   0.392 -0.0120 -0.4371 -0.3708
 8529TIP3    H147078   4.581   4.689   0.478  1.7382  0.7325 -0.3412
 8529TIP3    H247079   4.540   4.695   0.333 -0.7849 -0.7106  0.2571
 8530TIP3   OH247080   2.142   0.161  13.327 -0.2858  0.2451 -0.6105
 8530TIP3    H147081   2.197   0.171  13.405  0.7230  0.0305 -1.2714
 8530TIP3    H247082   2.092   0.242  13.322 -2.9652 -1.0260  2.1670
 8531TIP3   OH247083   4.112   5.485  16.321  0.0727 -0.4334  0.2428
 8531TIP3    H147084   4.082   5.505  16.410  0.0244 -0.2221  0.1795
 8531TIP3    H247085   4.206   5.502  16.323  0.1974 -1.1433  0.4511
 8532TIP3   OH247086   5.431   4.292  16.405 -0.0801 -0.2007 -0.4857
 8532TIP3    H147087   5.429   4.198  16.424 -0.0353 -0.0862  0.1015
 8532TIP3    H247088   5.388   4.300  16.320 -0.6722 -0.6770 -0.2392
 8533TIP3   OH247089   0.972   0.960  14.688  0.2627 -0.0526 -0.0268
 8533TIP3    H147090   0.915   1.021  14.640 -0.2985  0.3222  1.0891
 8533TIP3    H247091   1.010   0.904  14.620  0.9168  1.6208 -1.1158
 8534TIP3   OH247092   2.293   2.759  12.972  0.6385 -0.1391 -0.1829
 8534TIP3    H147093   2.285   2.688  13.037  0.3899  2.0995  2.4212
 8534TIP3    H247094   2.203   2.780  12.948  0.5678  0.6169  0.6715
 8535TIP3   OH247095   1.728   4.796   6.022  0.6720  0.0695  0.0848
 8535TIP3    H147096   1.645   4.825   5.985  1.4042  2.2410 -0.0143
 8535TIP3    H247097   1.782   4.875   6.024  3.4816 -1.6293 -1.7454
 8536TIP3   OH247098   1.047   2.749   0.211  0.2216 -0.1013  0.3341
 8536TIP3    H147099   1.039   2.658   0.185  0.6606 -0.3489  1.0514
 8536TIP3    H247100   1.127   2.780   0.169  0.9859 -0.5299  1.4450
 8537TIP3   OH247101   1.069   1.163   2.385 -0.0671  0.4071 -0.3506
 8537TIP3    H147102   1.080   1.097   2.453 -0.3342  0.0483 -0.6480
 8537TIP3    H247103   0.976   1.157   2.360 -0.1456  1.0345 -0.2376
 8538TIP3   OH247104   2.666   5.999  12.511 -0.0329  0.3348 -0.0045
 8538TIP3    H147105   2.671   5.975  12.418  2.7911 -0.0900  0.1680
 8538TIP3    H247106   2.593   6.062  12.515  0.1674  0.8659 -2.6212
 8539TIP3   OH247107   2.570   3.600   0.316  0.0032 -0.0661  0.0125
 8539TIP3    H147108   2.621   3.571   0.392  0.9688  1.9528  0.2251
 8539TIP3    H247109   2.592   3.537   0.247  0.4603 -0.9435  0.9264
 8540TIP3   OH247110   6.537   3.763   2.711 -0.5587  0.5993  0.5664
 8540TIP3    H147111   6.465   3.703   2.732 -0.1830  0.0517  0.3135
 8540TIP3    H247112   6.615   3.718   2.744  0.1586 -0.5602 -2.4129
 8541TIP3   OH247113   4.929   2.298  10.429  1.0664 -0.1140  0.2800
 8541TIP3    H147114   5.024   2.300  10.443  0.9729 -0.5848  1.0395
 8541TIP3    H247115   4.918   2.249  10.347  1.4850  0.0750  0.1076
 8542TIP3   OH247116   0.344   5.116  10.750 -0.4377  0.2694 -0.3417
 8542TIP3    H147117   0.359   5.028  10.784  0.1601  1.0335  1.4815
 8542TIP3    H247118   0.255   5.137  10.776  0.5058  1.4447  2.3613
 8543TIP3   OH247119   4.667   3.899  15.832  0.5296 -0.4883  0.5088
 8543TIP3    H147120   4.723   3.973  15.810  0.1293 -0.4956 -0.5619
 8543TIP3    H247121   4.678   3.838  15.760 -0.7860 -0.5282  0.3250
 8544TIP3   OH247122   5.882   2.552   5.678 -0.7173  0.1741  0.7443
 8544TIP3    H147123   5.869   2.634   5.726  2.2588  0.7519  0.7809
 8544TIP3    H247124   5.953   2.508   5.726  2.2667  0.6453 -2.7546
 8545TIP3   OH247125   6.665   0.620   0.453 -0.1847 -0.2506 -0.1125
 8545TIP3    H147126   6.664   0.655   0.542 -0.0088 -0.4393 -0.0350
 8545TIP3    H247127   6.687   0.528   0.464 -1.1992 -0.5227 -0.2774
 8546TIP3   OH247128   3.918   0.420   2.935  0.0122 -0.2807  0.4533
 8546TIP3    H147129   3.941   0.473   3.012 -2.1765 -0.5136  1.3355
 8546TIP3    H247130   3.895   0.335   2.971 -0.6544 -0.5157 -0.5016
 8547TIP3   OH247131   4.037   6.875  12.732  0.1302  0.0453 -0.3166
 8547TIP3    H147132   3.984   6.840  12.660 -0.1370 -0.7515  0.2642
 8547TIP3    H247133   4.126   6.877  12.697 -0.0472 -0.0191 -0.7811
 8548TIP3   OH247134   3.636   6.224  15.984  0.6770  0.0362  0.4536
 8548TIP3    H147135   3.727   6.235  16.011  0.6390 -0.1158  0.6427
 8548TIP3    H247136   3.584   6.250  16.060  0.5872 -1.6317  1.0167
 8549TIP3   OH247137   4.369   5.094   4.418  0.0854  0.0311  0.2613
 8549TIP3    H147138   4.331   5.170   4.461  0.3442  0.3356 -0.0447
 8549TIP3    H247139   4.449   5.126   4.377 -0.5390 -0.0682 -1.0930
 8550TIP3   OH247140   1.746   3.202  15.309 -0.1357  0.4478 -0.0492
 8550TIP3    H147141   1.811   3.136  15.333 -0.4177  0.5040  0.9406
 8550TIP3    H247142   1.715   3.175  15.223  0.6839  0.0254 -0.2242
 8551TIP3   OH247143   3.479   0.960   3.678 -0.0628 -0.6679 -0.1764
 8551TIP3    H147144   3.434   0.896   3.623  0.0439 -0.8715 -0.0255
 8551TIP3    H247145   3.423   0.970   3.755 -1.5240  1.4759 -1.4027
 8552TIP3   OH247146   5.691   2.486  11.578  0.9414  0.0456  0.2173
 8552TIP3    H147147   5.610   2.489  11.629 -0.0230  2.4900 -1.2825
 8552TIP3    H247148   5.690   2.567  11.527  4.0171 -0.1966 -0.3881
 8553TIP3   OH247149   2.921   3.285  15.711  0.1626 -0.0351  0.2729
 8553TIP3    H147150   2.995   3.345  15.705  0.6003 -0.5310  0.6695
 8553TIP3    H247151   2.877   3.310  15.793  0.5346 -0.4655  0.6073
 8554TIP3   OH247152   5.418   3.072   1.645  0.1117 -0.4113 -0.4664
 8554TIP3    H147153   5.492   3.017   1.619 -0.4257 -1.2212 -0.3313
 8554TIP3    H247154   5.378   3.100   1.563  1.8486  1.9024 -0.6340
 8555TIP3   OH247155   2.874   2.076  15.708  0.2405 -0.6915 -0.9507
 8555TIP3    H147156   2.954   2.043  15.669  0.8460  0.9651 -1.1548
 8555TIP3    H247157   2.813   2.002  15.703  1.6375 -1.8769 -1.0606
 8556TIP3   OH247158   0.019   3.453   2.975 -0.1378 -0.0934 -0.3994
 8556TIP3    H147159  -0.023   3.401   3.044  0.2873 -2.9504 -2.1050
 8556TIP3    H247160  -0.054   3.488   2.924 -0.5455 -2.1536 -1.3324
 8557TIP3   OH247161   5.512   3.385  12.361 -0.7927  0.1932 -0.2850
 8557TIP3    H147162   5.547   3.470  12.384  1.6327 -0.6334 -0.6118
 8557TIP3    H247163   5.475   3.351  12.442  1.8067 -0.0202  0.9109
 8558TIP3   OH247164   3.185   1.263  15.454  0.1482  0.0035 -0.0293
 8558TIP3    H147165   3.140   1.262  15.370 -0.4364 -0.3088  0.2847
 8558TIP3    H247166   3.135   1.203  15.510  2.3050 -2.3332 -0.3751
 8559TIP3   OH247167   5.310   5.586  11.626 -0.3543 -0.4085 -0.0216
 8559TIP3    H147168   5.270   5.530  11.694 -0.6828 -1.0617 -0.7402
 8559TIP3    H247169   5.401   5.596  11.655 -0.3424 -1.1492  0.2394
 8560TIP3   OH247170   6.097   1.353  11.612  0.3892 -0.3647  0.5949
 8560TIP3    H147171   6.035   1.280  11.607 -0.0301  0.0446 -3.5954
 8560TIP3    H247172   6.042   1.431  11.608  0.9843  0.0121 -1.5938
 8561TIP3   OH247173   0.898   2.082  10.983  0.0742  0.5621  0.9888
 8561TIP3    H147174   0.889   2.175  11.004 -0.1651  0.2626  2.2993
 8561TIP3    H247175   0.820   2.060  10.933 -0.6252  0.7340  1.9822
 8562TIP3   OH247176   0.194   3.184   4.969  0.3998  0.8987  0.4178
 8562TIP3    H147177   0.105   3.204   4.941  0.3128  0.5795  0.4682
 8562TIP3    H247178   0.235   3.270   4.979  0.5738  1.0205 -1.1136
 8563TIP3   OH247179   6.788   5.183   2.079  0.6298 -0.3534  0.7307
 8563TIP3    H147180   6.778   5.115   2.012  1.5140 -0.2343  0.4598
 8563TIP3    H247181   6.707   5.233   2.075  0.3811 -0.7835  0.2439
 8564TIP3   OH247182   3.342   5.829  15.694 -0.2241  0.5052  0.3853
 8564TIP3    H147183   3.434   5.806  15.684  0.0087  0.9356  1.4403
 8564TIP3    H247184   3.298   5.745  15.707 -0.2134  0.1512 -1.6006
 8565TIP3   OH247185   0.119   5.628   3.878 -0.3318 -0.1614 -0.0131
 8565TIP3    H147186   0.138   5.543   3.839  0.7300 -0.0911  0.3205
 8565TIP3    H247187   0.117   5.689   3.804  0.2272 -0.2637 -0.1145
 8566TIP3   OH247188   0.268   4.870   3.518  0.2032  0.0393  0.2887
 8566TIP3    H147189   0.180   4.905   3.519 -0.0218 -0.5086  0.2046
 8566TIP3    H247190   0.271   4.810   3.593 -0.2853 -1.7916 -1.0908
 8567TIP3   OH247191   2.655   0.948   0.458 -0.3274  0.4075  0.2401
 8567TIP3    H147192   2.699   0.886   0.400 -0.0531  0.4515  0.3973
 8567TIP3    H247193   2.562   0.925   0.453 -0.3548  0.6683 -0.5237
 8568TIP3   OH247194   4.426   1.463  14.699 -0.0829  0.5010 -0.2110
 8568TIP3    H147195   4.345   1.414  14.688 -0.8015  1.4587  0.5664
 8568TIP3    H247196   4.487   1.423  14.638 -0.5606 -1.4916  0.5257
 8569TIP3   OH247197   0.915   0.025  13.491 -0.5214 -0.6485  0.1819
 8569TIP3    H147198   0.970  -0.050  13.467 -1.8613 -1.3476 -0.8549
 8569TIP3    H247199   0.826  -0.002  13.466 -1.2701  0.6493  1.3069
 8570TIP3   OH247200   4.488   6.482   2.377  0.3926  0.0213 -0.2157
 8570TIP3    H147201   4.550   6.533   2.429 -1.2010  2.0166 -0.1190
 8570TIP3    H247202   4.459   6.542   2.309 -0.8239 -1.1112 -0.7419
 8571TIP3   OH247203   5.680   2.688   5.521  0.1824  0.4014 -0.4006
 8571TIP3    H147204   5.648   2.615   5.468 -0.9501  1.1513 -0.8019
 8571TIP3    H247205   5.754   2.652   5.570  0.5300 -0.6174 -1.6333
 8572TIP3   OH247206   6.578   4.280  12.257 -0.0572 -0.9275  0.3729
 8572TIP3    H147207   6.631   4.222  12.313 -2.1272 -0.6731  2.7653
 8572TIP3    H247208   6.567   4.359  12.309  1.3303  1.0895 -2.1713
 8573TIP3   OH247209   1.753   4.377   3.263 -0.5047  0.0481 -0.3933
 8573TIP3    H147210   1.801   4.379   3.345  0.1140  0.3760 -0.7554
 8573TIP3    H247211   1.720   4.287   3.256 -1.3518  0.2662  0.6491
 8574TIP3   OH247212   6.817   3.630   3.322  0.3404 -0.4903  0.0937
 8574TIP3    H147213   6.764   3.647   3.399 -1.6000 -1.4829 -0.9537
 8574TIP3    H247214   6.883   3.700   3.322 -1.5726  1.4120  0.9119
 8575TIP3   OH247215   3.247   2.275   2.208 -0.0032 -0.2950  0.0371
 8575TIP3    H147216   3.200   2.297   2.127 -2.1570  1.0949  1.5464
 8575TIP3    H247217   3.335   2.309   2.194 -1.0180  2.2354 -0.8196
 8576TIP3   OH247218   4.515   2.185   1.433  0.4433  0.0188  0.1218
 8576TIP3    H147219   4.575   2.116   1.405  0.8173  0.7955 -1.0990
 8576TIP3    H247220   4.541   2.262   1.381 -0.4084  0.8819  0.9285
 8577TIP3   OH247221   3.411   2.584  15.870 -0.1962 -0.3351 -0.1668
 8577TIP3    H147222   3.500   2.613  15.887 -0.5345  1.9795 -1.8190
 8577TIP3    H247223   3.420   2.492  15.843  1.8901  0.2004 -1.5498
 8578TIP3   OH247224   3.247   4.352  13.728  0.1316 -0.9965  0.5063
 8578TIP3    H147225   3.262   4.423  13.791  0.7761 -0.3506 -0.3415
 8578TIP3    H247226   3.154   4.357  13.709  0.5125  1.2233 -1.3015
 8579TIP3   OH247227   1.397   0.867   2.025 -0.2549  0.2760  0.0688
 8579TIP3    H147228   1.320   0.836   2.074 -0.9261  1.1904 -0.3733
 8579TIP3    H247229   1.467   0.807   2.050 -0.8791 -0.0087  1.2138
 8580TIP3   OH247230   6.213   1.585   4.426 -0.0422 -0.0425 -0.6747
 8580TIP3    H147231   6.253   1.666   4.457  1.7384 -1.5601  1.2906
 8580TIP3    H247232   6.263   1.561   4.348 -0.2499  0.4648 -0.9714
 8581TIP3   OH247233   4.444   5.787   1.042  0.1124 -0.2679  0.0096
 8581TIP3    H147234   4.364   5.832   1.017  0.7153  0.8655  0.0643
 8581TIP3    H247235   4.441   5.782   1.137 -0.0808 -0.5745 -0.0139
 8582TIP3   OH247236   5.462   5.443   2.639  0.3564 -0.4701 -0.2382
 8582TIP3    H147237   5.393   5.490   2.686  1.0135  0.3050 -0.0333
 8582TIP3    H247238   5.430   5.353   2.633 -0.7726 -0.0763 -0.3378
 8583TIP3   OH247239   2.417   2.925   5.450  0.5497  0.1268 -0.1396
 8583TIP3    H147240   2.488   2.987   5.465  0.7400 -0.0815 -0.1601
 8583TIP3    H247241   2.377   2.912   5.535 -0.5634  1.5448 -0.4138
 8584TIP3   OH247242   3.909   4.962   4.819 -0.4832 -0.2251  0.3692
 8584TIP3    H147243   3.867   4.878   4.801  0.8776 -1.1953  1.4830
 8584TIP3    H247244   3.850   5.006   4.880 -0.7485 -0.8040  0.5328
 8585TIP3   OH247245   5.225   6.135  12.193 -0.3126  0.1124  0.4507
 8585TIP3    H147246   5.229   6.040  12.188 -0.4349  0.1200  0.2199
 8585TIP3    H247247   5.312   6.164  12.166 -0.7071  0.1206 -0.8486
 8586TIP3   OH247248   6.213   3.988   3.859  0.0113 -0.3555  0.0164
 8586TIP3    H147249   6.145   3.922   3.865  0.5092 -0.8930 -0.1561
 8586TIP3    H247250   6.279   3.962   3.923 -1.9415  2.6443  3.6372
 8587TIP3   OH247251   1.499   5.450  10.590 -0.1604 -0.1766 -0.9591
 8587TIP3    H147252   1.406   5.473  10.588  0.0220  0.5839 -2.5052
 8587TIP3    H247253   1.514   5.406  10.506  1.2357  1.2933 -1.5244
 8588TIP3   OH247254   4.191   0.311   4.420  0.5000 -0.6211 -0.7682
 8588TIP3    H147255   4.279   0.273   4.416  0.0956 -1.7389  0.6361
 8588TIP3    H247256   4.191   0.363   4.500 -0.3383 -1.1591 -0.4203
 8589TIP3   OH247257   3.701   5.824  11.973  0.3887 -0.3299  0.0055
 8589TIP3    H147258   3.783   5.776  11.980  0.0701 -0.7544  1.0104
 8589TIP3    H247259   3.687   5.834  11.879  0.9539 -1.3619 -0.2039
 8590TIP3   OH247260   1.851   3.373  14.157  0.6244  0.6540  0.5710
 8590TIP3    H147261   1.858   3.459  14.115 -0.4840  0.7077  0.4835
 8590TIP3    H247262   1.780   3.329  14.111  0.8527 -0.1274  0.9455
 8591TIP3   OH247263   3.285   0.869   4.500 -0.2716 -0.6037 -0.0349
 8591TIP3    H147264   3.326   0.947   4.462 -0.4007 -0.9191 -0.8291
 8591TIP3    H247265   3.296   0.880   4.594 -0.1861  0.3249 -0.1438
 8592TIP3   OH247266   2.072   5.474   1.263 -0.3124 -0.2689  0.1933
 8592TIP3    H147267   2.095   5.383   1.244  0.1554 -0.2118  0.4983
 8592TIP3    H247268   2.023   5.469   1.345 -0.9638 -0.3284 -0.1851
 8593TIP3   OH247269   0.871   2.540   3.105 -0.3803 -0.5781  0.5900
 8593TIP3    H147270   0.853   2.628   3.073 -3.0529 -0.5321  1.9115
 8593TIP3    H247271   0.811   2.484   3.055  0.0808 -1.3975  0.9350
 8594TIP3   OH247272   6.309   4.317   1.559  0.2934  0.3384 -0.1517
 8594TIP3    H147273   6.321   4.389   1.620 -2.2692  1.0894 -0.4363
 8594TIP3    H247274   6.260   4.251   1.609 -0.3391  0.2458 -0.8779
 8595TIP3   OH247275   3.685   0.461  12.723 -0.2467 -0.2124 -0.0802
 8595TIP3    H147276   3.699   0.551  12.753  0.6882 -0.6515  0.8655
 8595TIP3    H247277   3.705   0.464  12.629 -2.9332  1.1186 -0.6976
 8596TIP3   OH247278   4.244   1.618   3.267  0.1109 -0.0339  0.3675
 8596TIP3    H147279   4.230   1.634   3.174  1.2660  1.4964  0.4300
 8596TIP3    H247280   4.155   1.615   3.304 -0.4718 -2.2989 -0.9698
 8597TIP3   OH247281   4.199   5.227  12.969  0.0441  0.3295 -0.3369
 8597TIP3    H147282   4.239   5.248  12.884 -0.2181  0.2635 -0.4796
 8597TIP3    H247283   4.221   5.301  13.025  3.0257 -1.0407  0.5347
 8598TIP3   OH247284   1.999   0.743  16.804 -0.1169  0.1502 -0.4667
 8598TIP3    H147285   1.909   0.715  16.822  1.1675 -2.6237  3.0181
 8598TIP3    H247286   2.036   0.672  16.752  0.2874  0.9517 -1.3031
 8599TIP3   OH247287   1.508   4.237   0.494 -0.2895 -0.0418  0.1159
 8599TIP3    H147288   1.549   4.238   0.407  1.6210 -1.5359  0.9174
 8599TIP3    H247289   1.536   4.318   0.536  1.9731 -1.0049  0.6280
 8600TIP3   OH247290   3.484   5.917  11.137 -0.0500 -0.8893 -0.1912
 8600TIP3    H147291   3.547   5.920  11.065 -0.2639 -1.3647 -0.4060
 8600TIP3    H247292   3.410   5.868  11.102 -0.3025 -0.8241  0.2411
 8601TIP3   OH247293   5.225   3.297  16.611 -0.0170 -0.1833 -0.4248
 8601TIP3    H147294   5.248   3.344  16.531  1.0996  1.2713  0.7032
 8601TIP3    H247295   5.267   3.346  16.681 -2.2785 -0.4844  1.2529
 8602TIP3   OH247296   0.125   2.276  14.904 -0.2262 -0.0530 -0.1186
 8602TIP3    H147297   0.076   2.333  14.964 -1.0898  0.0204 -0.8670
 8602TIP3    H247298   0.112   2.188  14.939  0.3259  0.1057  0.5066
 8603TIP3   OH247299   0.734   6.658   3.191 -0.0743 -0.0781  0.5798
 8603TIP3    H147300   0.803   6.628   3.131 -2.0465 -0.4136 -1.6748
 8603TIP3    H247301   0.747   6.752   3.197  0.6799 -0.1581  0.3577
 8604TIP3   OH247302   4.454   6.615  15.220 -0.2732  0.0723  0.1334
 8604TIP3    H147303   4.400   6.539  15.195  0.5953 -0.6910  0.5368
 8604TIP3    H247304   4.434   6.680  15.153 -2.7552  0.3455  1.0359
 8605TIP3   OH247305   1.533   3.168  15.893 -0.0155  0.3884  0.1218
 8605TIP3    H147306   1.611   3.127  15.930  0.4272  0.6425 -0.5165
 8605TIP3    H247307   1.487   3.204  15.969  1.0550  1.2139  0.4063
 8606TIP3   OH247308   6.452   2.567   5.371  0.4075 -0.0719  0.0015
 8606TIP3    H147309   6.485   2.643   5.418 -1.1369 -1.0077  2.8726
 8606TIP3    H247310   6.365   2.593   5.341 -0.3419 -0.7748  1.4439
 8607TIP3   OH247311   5.841   2.770   5.857 -0.0913 -0.0427  0.1113
 8607TIP3    H147312   5.833   2.864   5.841  0.2971  0.0737  0.6088
 8607TIP3    H247313   5.775   2.751   5.924 -0.5307 -0.2237 -0.3645
 8608TIP3   OH247314   6.073   2.170  11.072  0.1284  0.1296 -0.3147
 8608TIP3    H147315   6.077   2.190  10.978 -2.3414 -2.2907 -1.0680
 8608TIP3    H247316   5.984   2.194  11.098  0.2217 -0.8057  0.9790
 8609TIP3   OH247317   1.572   5.209  16.325 -0.1620 -0.5273  0.1385
 8609TIP3    H147318   1.573   5.281  16.388  0.9696  0.1192 -0.5778
 8609TIP3    H247319   1.540   5.134  16.374  0.1329  0.1031  1.3165
 8610TIP3   OH247320   6.073   4.930  16.863  0.0948 -0.7124  0.6041
 8610TIP3    H147321   6.104   4.955  16.776  1.4277 -1.1536  0.9344
 8610TIP3    H247322   5.990   4.976  16.872  0.7129  0.6388 -0.2624
 8611TIP3   OH247323   2.836   1.837   0.019  0.9963 -0.3565 -0.9959
 8611TIP3    H147324   2.747   1.810  -0.002  2.2480 -4.9907 -1.6366
 8611TIP3    H247325   2.847   1.814   0.112  1.6512 -0.4294 -1.0839
 8612TIP3   OH247326   3.896   3.691  11.941 -0.5144  0.1846 -0.0892
 8612TIP3    H147327   3.976   3.740  11.958  0.2785 -0.7795 -0.8969
 8612TIP3    H247328   3.826   3.746  11.976  0.5645  0.5970  1.5571
 8613TIP3   OH247329   3.040   1.226  13.255 -0.0543  0.3248 -0.2528
 8613TIP3    H147330   3.015   1.274  13.334 -0.5550  0.8341 -0.7141
 8613TIP3    H247331   3.077   1.293  13.198  1.5977 -0.2604  0.0696
 8614TIP3   OH247332   0.051   2.772  11.132  0.1672  0.0837 -0.1455
 8614TIP3    H147333   0.055   2.702  11.197 -0.2808  0.5455  0.3851
 8614TIP3    H247334   0.109   2.840  11.165  0.9731 -0.2090 -0.8959
 8615TIP3   OH247335   6.665   2.339   4.302  0.1608 -0.0526 -0.0550
 8615TIP3    H147336   6.617   2.395   4.364  1.6370  2.2905 -0.9004
 8615TIP3    H247337   6.739   2.305   4.353 -0.0858 -0.2769  0.1543
 8616TIP3   OH247338   4.987   5.740   0.896 -0.5927 -0.1355  0.0217
 8616TIP3    H147339   4.976   5.679   0.969  0.3446  0.5060  0.7250
 8616TIP3    H247340   4.979   5.827   0.936  0.8823  0.2496 -0.4268
 8617TIP3   OH247341   3.367   3.352   1.111 -0.5343 -0.1311  0.2181
 8617TIP3    H147342   3.308   3.313   1.175 -1.6018  0.5475 -0.3218
 8617TIP3    H247343   3.316   3.358   1.031  0.9988 -1.5962 -0.9275
 8618TIP3   OH247344   3.845   5.852  14.453 -0.0308  0.2735  0.0152
 8618TIP3    H147345   3.776   5.821  14.512  0.9740  0.8902  1.5859
 8618TIP3    H247346   3.881   5.772  14.416 -0.0641 -0.2129  0.9843
 8619TIP3   OH247347   2.418   3.300  16.918  0.3437  0.1507 -0.3729
 8619TIP3    H147348   2.395   3.249  16.840 -2.0071  0.6790 -0.1055
 8619TIP3    H247349   2.420   3.391  16.887  1.4313  0.2020 -0.2015
 8620TIP3   OH247350   0.670   2.886  14.075 -0.9482  0.6747 -0.5103
 8620TIP3    H147351   0.682   2.816  14.138  0.0780  0.2009 -1.1992
 8620TIP3    H247352   0.601   2.855  14.016 -0.4177  0.1792 -0.8808
 8621TIP3   OH247353   6.028   6.842  16.186  0.0157 -0.1101  0.4103
 8621TIP3    H147354   5.945   6.817  16.226  0.3946  0.0568  1.3109
 8621TIP3    H247355   6.005   6.914  16.126 -0.9177 -1.8725 -1.4682
 8622TIP3   OH247356   2.691   4.116  12.110 -0.6418 -0.7632  0.2809
 8622TIP3    H147357   2.691   4.092  12.202 -2.6351  0.6290  0.7104
 8622TIP3    H247358   2.600   4.140  12.091  0.2429  1.7832 -1.2728
 8623TIP3   OH247359   1.953   4.558   5.799  0.1265 -0.1617 -0.6381
 8623TIP3    H147360   1.918   4.471   5.779  0.3163  0.2950 -3.2275
 8623TIP3    H247361   1.903   4.618   5.743  0.1040  1.4185  0.9833
 8624TIP3   OH247362   6.058   5.770  14.955 -0.0851 -0.1669 -0.0586
 8624TIP3    H147363   6.013   5.694  14.992 -0.8879 -0.4609 -1.5643
 8624TIP3    H247364   6.094   5.816  15.031  2.2985 -3.1407  0.8292
 8625TIP3   OH247365   2.880   5.443  10.917  0.6611 -0.6884 -0.2120
 8625TIP3    H147366   2.895   5.492  10.998 -0.7231  0.6287 -0.7192
 8625TIP3    H247367   2.924   5.359  10.932  0.4238 -0.4926  1.9160
 8626TIP3   OH247368   5.521   4.159  10.878 -0.2378  0.1866 -0.3481
 8626TIP3    H147369   5.557   4.153  10.789 -0.6044 -0.4879 -0.4587
 8626TIP3    H247370   5.427   4.144  10.866 -0.3317  0.3980  0.1198
 8627TIP3   OH247371   6.213   2.583  16.631  0.0770 -0.5046 -0.5897
 8627TIP3    H147372   6.288   2.531  16.600  0.2769 -0.0614 -0.8506
 8627TIP3    H247373   6.248   2.638  16.701 -0.3403 -1.3808  0.3330
 8628TIP3   OH247374   1.613   1.030   5.923 -0.0187  0.3819 -1.3403
 8628TIP3    H147375   1.607   1.125   5.914 -0.0176  0.3540 -1.6727
 8628TIP3    H247376   1.706   1.010   5.913  0.1481  0.4487 -0.0994
 8629TIP3   OH247377   3.025   1.259  11.452 -0.0981 -0.6905 -0.2450
 8629TIP3    H147378   2.985   1.175  11.475  0.1617 -0.6239  0.4622
 8629TIP3    H247379   2.955   1.308  11.408 -0.7888 -0.6127  0.8940
 8630TIP3   OH247380   1.293   3.237  11.013  0.2622 -0.2086  0.5476
 8630TIP3    H147381   1.378   3.268  10.984  0.0002  1.0519  1.0658
 8630TIP3    H247382   1.291   3.254  11.107 -1.3963  1.9777  0.2185
 8631TIP3   OH247383   4.645   6.205  14.379  0.3768 -0.2391 -0.7436
 8631TIP3    H147384   4.553   6.202  14.404  0.4811 -1.3372 -0.4137
 8631TIP3    H247385   4.691   6.164  14.452  0.8434 -2.1560 -2.0048
 8632TIP3   OH247386   2.033   3.055  13.286  0.7376 -0.4999  0.0725
 8632TIP3    H147387   1.952   3.004  13.277 -0.3310  1.1933 -0.4459
 8632TIP3    H247388   2.045   3.095  13.200  1.6365 -0.0279  0.4126
 8633TIP3   OH247389   5.873   4.793   5.439 -0.1658  0.2327  0.4133
 8633TIP3    H147390   5.929   4.716   5.428 -0.4131  0.1297 -0.1616
 8633TIP3    H247391   5.930   4.857   5.481  0.5312  0.2719 -0.5496
 8634TIP3   OH247392   1.447   0.909  12.807 -0.5236 -0.5286 -0.1652
 8634TIP3    H147393   1.483   0.821  12.793  0.1973 -0.0340 -1.5611
 8634TIP3    H247394   1.353   0.899  12.793 -0.6201 -1.3144  0.9328
 8635TIP3   OH247395   6.112   1.095  14.380  0.2746  0.5917  0.1840
 8635TIP3    H147396   6.171   1.158  14.421  1.0483  0.1801 -0.2755
 8635TIP3    H247397   6.043   1.082  14.445 -0.1590  2.2480  0.1017
 8636TIP3   OH247398   6.864   1.231   0.257  0.1204 -0.4783 -0.2691
 8636TIP3    H147399   6.946   1.189   0.282  0.9779  0.8691 -0.6903
 8636TIP3    H247400   6.870   1.320   0.293 -1.5051 -0.5776  0.3552
 8637TIP3   OH247401   1.304   5.640   2.221  0.2613 -0.5379  0.1716
 8637TIP3    H147402   1.313   5.677   2.134  1.7597 -0.7338  0.2085
 8637TIP3    H247403   1.292   5.716   2.278 -1.8791 -0.4749 -0.2915
 8638TIP3   OH247404   0.173   0.275  13.429  0.2648 -0.1386 -0.2570
 8638TIP3    H147405   0.124   0.358  13.425 -1.0157 -0.8449  0.1811
 8638TIP3    H247406   0.162   0.245  13.519  1.0885 -0.5827 -0.2941
 8639TIP3   OH247407   6.752   1.586   3.614 -0.2612 -0.1704  0.4224
 8639TIP3    H147408   6.808   1.565   3.689  1.2599 -1.8956 -1.1009
 8639TIP3    H247409   6.769   1.679   3.598  2.3684 -0.6398 -0.0458
 8640TIP3   OH247410   6.859   4.178   3.292  0.1043  0.0210  0.0100
 8640TIP3    H147411   6.820   4.262   3.268  0.5761  0.7107  1.4818
 8640TIP3    H247412   6.948   4.181   3.256  0.2842  0.3708  0.4769
 8641TIP3   OH247413   4.362   6.596  16.653 -0.4170  0.4728  0.1675
 8641TIP3    H147414   4.378   6.666  16.590  1.2322  0.7790  0.8609
 8641TIP3    H247415   4.293   6.629  16.711 -0.0638  1.2837  0.1310
 8642TIP3   OH247416   1.499   1.560   4.573 -0.2564 -0.0088  0.3129
 8642TIP3    H147417   1.468   1.631   4.516  0.2056 -0.7421 -0.8940
 8642TIP3    H247418   1.584   1.590   4.604 -0.9037  0.7927  1.3866
 8643TIP3   OH247419   3.570   5.271   2.799  0.1705  0.1368  0.5088
 8643TIP3    H147420   3.576   5.351   2.747 -0.6844 -1.3369 -2.0818
 8643TIP3    H247421   3.478   5.266   2.824  0.4067  0.4080  1.4377
 8644TIP3   OH247422   3.647   0.736  13.560 -0.2809 -0.1951 -0.6299
 8644TIP3    H147423   3.688   0.807  13.609  0.4386  0.6739 -2.3988
 8644TIP3    H247424   3.630   0.774  13.473  0.3955 -2.2538 -1.7285
 8645TIP3   OH247425   2.336   0.171   2.135 -0.1581  0.0986  0.1174
 8645TIP3    H147426   2.241   0.178   2.125 -0.4065 -1.5090  0.9790
 8645TIP3    H247427   2.350   0.080   2.163  1.4631  0.8999  2.0824
 8646TIP3   OH247428   2.265   1.743  16.586 -0.0432 -0.2461  0.4608
 8646TIP3    H147429   2.221   1.771  16.505  1.5422  0.5603 -0.1762
 8646TIP3    H247430   2.264   1.821  16.642 -0.5441 -0.6046  0.9556
 8647TIP3   OH247431   4.788   1.535   5.600  0.1913 -0.4242 -0.5073
 8647TIP3    H147432   4.798   1.565   5.690 -0.6717 -0.1155 -0.5006
 8647TIP3    H247433   4.866   1.482   5.583  0.4348 -0.3596  0.3667
 8648TIP3   OH247434   5.945   3.083   6.108 -1.1119  0.0335  0.0717
 8648TIP3    H147435   5.911   3.040   6.187  0.6373 -0.4582  0.5942
 8648TIP3    H247436   5.901   3.168   6.107 -1.9556 -0.3647  0.9855
 8649TIP3   OH247437   5.959   1.814  10.528  0.2829 -0.1009  0.0085
 8649TIP3    H147438   5.895   1.743  10.538  0.4541 -0.1671  0.6676
 8649TIP3    H247439   6.044   1.771  10.535  0.3971  0.0434 -0.4815
 8650TIP3   OH247440   6.391   0.287  12.019 -0.5372  0.5668 -0.8088
 8650TIP3    H147441   6.353   0.363  12.064  0.0127  1.4309 -1.7569
 8650TIP3    H247442   6.456   0.253  12.081 -1.2205  0.4874 -0.1216
 8651TIP3   OH247443   3.891   0.662  10.530 -0.3706  0.6037 -0.2097
 8651TIP3    H147444   3.950   0.695  10.462  3.6642 -2.2767  1.5176
 8651TIP3    H247445   3.845   0.589  10.488 -2.3183  2.3439 -1.3173
 8652TIP3   OH247446   2.218   4.269  16.038  0.1161  0.4696  0.5894
 8652TIP3    H147447   2.303   4.302  16.009 -0.3220  0.3266 -0.9408
 8652TIP3    H247448   2.185   4.219  15.964 -0.5295 -0.9927  1.8028
 8653TIP3   OH247449   3.843   5.155  11.434 -0.3892  0.1746  0.1694
 8653TIP3    H147450   3.856   5.247  11.410 -0.1295  0.1781  0.3189
 8653TIP3    H247451   3.915   5.135  11.494  0.6168 -0.6423 -1.2517
 8654TIP3   OH247452   6.270   3.172  14.476  0.3439  0.6221  0.2950
 8654TIP3    H147453   6.361   3.190  14.454  0.1687  0.2636 -0.8141
 8654TIP3    H247454   6.220   3.212  14.405 -0.3503  0.6012  0.7579
 8655TIP3   OH247455   0.947   5.029   5.626  0.1788 -0.4216  0.2123
 8655TIP3    H147456   0.867   4.985   5.657  0.1252 -1.2467 -1.0384
 8655TIP3    H247457   0.947   5.112   5.673 -1.1792 -0.5917  0.5819
 8656TIP3   OH247458   6.458   0.977  13.606  0.0166  0.1469  0.3376
 8656TIP3    H147459   6.435   1.066  13.578  0.8446  0.1742 -0.2983
 8656TIP3    H247460   6.440   0.923  13.529  0.1244 -0.1307  0.5089
 8657TIP3   OH247461   5.099   2.072   5.677 -0.2548 -0.9340  0.4871
 8657TIP3    H147462   5.053   1.988   5.678 -0.7724 -0.6673 -0.0318
 8657TIP3    H247463   5.152   2.072   5.757  0.7830 -2.3142 -0.1670
 8658TIP3   OH247464   3.412   1.992   0.148  0.0467 -0.0442 -0.3711
 8658TIP3    H147465   3.419   2.082   0.179  0.9289 -0.3101  0.2454
 8658TIP3    H247466   3.502   1.962   0.140 -0.2348 -1.2524  0.5954
 8659TIP3   OH247467   5.821   0.264   6.379 -0.1418  0.1540  0.4369
 8659TIP3    H147468   5.873   0.237   6.454  0.0139  0.0296  0.2847
 8659TIP3    H247469   5.861   0.220   6.305  0.3988  1.1465  0.1133
 8660TIP3   OH247470   2.782   6.601   5.859 -0.7352  0.0506 -0.0673
 8660TIP3    H147471   2.877   6.601   5.874 -0.3182 -0.2189 -2.3700
 8660TIP3    H247472   2.760   6.693   5.846 -0.7507  0.0962  0.2851
 8661TIP3   OH247473   2.803   6.067   1.237  0.4810 -0.0576 -0.0542
 8661TIP3    H147474   2.742   6.028   1.300 -0.9735  0.3790 -1.1617
 8661TIP3    H247475   2.754   6.073   1.155  2.0871  0.0964 -1.0582
 8662TIP3   OH247476   6.710   3.542  12.657  0.5482  0.0215  0.5237
 8662TIP3    H147477   6.780   3.480  12.637  1.1265  0.1918  1.8734
 8662TIP3    H247478   6.689   3.525  12.749 -0.7429  0.4114  0.3156
 8663TIP3   OH247479   0.639   2.726  15.902 -0.3635  0.1953  0.0533
 8663TIP3    H147480   0.686   2.758  15.825  2.3805  0.0156  1.5270
 8663TIP3    H247481   0.577   2.796  15.924  2.0717  2.3935  0.3626
 8664TIP3   OH247482   4.258   0.668  13.110 -0.1732  0.3481  0.0985
 8664TIP3    H147483   4.219   0.596  13.061  2.1841 -2.1226  1.5247
 8664TIP3    H247484   4.192   0.692  13.174 -0.7769 -1.0798  0.0591
 8665TIP3   OH247485   0.815   6.618   2.734 -0.5850 -0.1571  0.5961
 8665TIP3    H147486   0.887   6.677   2.710 -0.2278 -0.5548  0.6825
 8665TIP3    H247487   0.858   6.547   2.782 -1.3166  0.8104  2.7978
 8666TIP3   OH247488   4.936   3.924   2.516  0.0596  0.2169  0.4051
 8666TIP3    H147489   5.005   3.880   2.565 -0.4441 -0.6002  0.4151
 8666TIP3    H247490   4.919   4.004   2.565  1.0170  0.4483  0.3787
 8667TIP3   OH247491   0.640   5.794  15.311 -0.7961 -0.9387 -0.2333
 8667TIP3    H147492   0.585   5.720  15.338  0.3994 -0.9859  2.3105
 8667TIP3    H247493   0.588   5.871  15.334 -1.1725 -0.9548 -0.9819
 8668TIP3   OH247494   5.975   4.839  13.906 -0.0549 -0.1713  0.3271
 8668TIP3    H147495   5.958   4.862  13.998  0.4049  0.4259  0.2733
 8668TIP3    H247496   5.990   4.745  13.907  0.6873 -0.0591  0.9908
 8669TIP3   OH247497   3.289   0.138   4.124 -0.0591  0.3782 -0.4963
 8669TIP3    H147498   3.260   0.100   4.206  1.9506 -0.6335 -0.1704
 8669TIP3    H247499   3.238   0.093   4.056  0.0210 -0.5852  0.0739
 8670TIP3   OH247500   2.165   0.839   3.403  0.6016 -0.4805 -0.1879
 8670TIP3    H147501   2.144   0.927   3.433  1.0863 -0.6859  0.8220
 8670TIP3    H247502   2.112   0.826   3.325 -0.0634  0.4108  0.1033
 8671TIP3   OH247503   5.112   2.540  13.006  0.0102 -0.2561  0.6685
 8671TIP3    H147504   5.057   2.517  12.931  0.1340  1.1290  0.1092
 8671TIP3    H247505   5.085   2.629  13.029  2.4149  0.7465 -0.0495
 8672TIP3   OH247506   6.472   6.628  14.437 -0.5976 -0.3563  0.7387
 8672TIP3    H147507   6.480   6.667  14.350  1.7710  2.2363  1.9947
 8672TIP3    H247508   6.459   6.535  14.420  0.8913 -0.1129 -2.4095
 8673TIP3   OH247509   4.509   5.948   5.219  0.0171  0.5155  0.2965
 8673TIP3    H147510   4.467   5.909   5.296  0.2438 -1.0800 -0.3583
 8673TIP3    H247511   4.602   5.929   5.230  0.0355  0.1879 -0.4165
 8674TIP3   OH247512   4.839   2.075  15.391  0.6513  0.1851 -0.5070
 8674TIP3    H147513   4.846   2.153  15.446 -1.9147  2.9440 -3.6132
 8674TIP3    H247514   4.929   2.043  15.382  1.7079  2.2610  1.5832
 8675TIP3   OH247515   3.759   2.626  13.403 -0.2730  0.3000  0.1861
 8675TIP3    H147516   3.839   2.639  13.455  0.4512  1.5925 -1.1811
 8675TIP3    H247517   3.783   2.559  13.339 -0.3194  0.5967 -0.1428
 8676TIP3   OH247518   4.187   0.499  15.708  0.1610  0.0532  0.2963
 8676TIP3    H147519   4.109   0.513  15.654  0.6318 -2.5751 -1.2416
 8676TIP3    H247520   4.158   0.441  15.778  0.3614  0.5426  0.7920
 8677TIP3   OH247521   0.395   2.031   1.329 -0.3840  0.1086  0.0112
 8677TIP3    H147522   0.350   1.972   1.389  0.4347  0.3465  0.8999
 8677TIP3    H247523   0.339   2.035   1.252 -1.3462 -0.4045  0.6595
 8678TIP3   OH247524   5.141   4.015  16.287  0.0528  0.1398  0.1587
 8678TIP3    H147525   5.075   4.068  16.243  0.7657  1.4142  0.5523
 8678TIP3    H247526   5.131   4.037  16.380  1.7961  1.3478  0.1250
 8679TIP3   OH247527   6.560   4.336  11.467  0.1320  0.4082 -0.3607
 8679TIP3    H147528   6.471   4.371  11.468  0.2495  0.7281 -0.6749
 8679TIP3    H247529   6.550   4.243  11.486 -0.2593  0.4649 -0.2883
 8680TIP3   OH247530   2.290   1.150   5.768 -0.1117  0.3927 -0.0546
 8680TIP3    H147531   2.281   1.230   5.820 -0.3199  0.6153 -0.4265
 8680TIP3    H247532   2.274   1.079   5.830 -0.6520  0.6653  0.1282
 8681TIP3   OH247533   1.023   4.676   2.643  0.2508  0.2185 -0.3288
 8681TIP3    H147534   0.929   4.660   2.638  0.1753  0.9604 -1.4613
 8681TIP3    H247535   1.032   4.750   2.702  0.3393 -1.3818  1.8094
 8682TIP3   OH247536   1.151   4.407   6.278 -0.3258 -0.2204 -0.0573
 8682TIP3    H147537   1.183   4.497   6.274  0.0495 -0.3779 -1.1511
 8682TIP3    H247538   1.073   4.411   6.333 -2.1662  1.3933 -2.5290
 8683TIP3   OH247539   4.460   6.242   2.517 -0.1335  0.3090 -0.3578
 8683TIP3    H147540   4.464   6.181   2.444 -2.6182  0.5565 -0.7788
 8683TIP3    H247541   4.457   6.328   2.476  3.3809  0.8770  0.2296
 8684TIP3   OH247542   1.230   1.503   0.898 -0.1227  0.2934  0.2982
 8684TIP3    H147543   1.182   1.460   0.969 -1.4227  2.4892  0.8409
 8684TIP3    H247544   1.193   1.591   0.894  2.0097  1.2065 -1.1297
 8685TIP3   OH247545   4.468   1.947   6.215  0.6430  0.0648 -0.0190
 8685TIP3    H147546   4.393   2.002   6.192 -0.7687 -1.1686  1.4223
 8685TIP3    H247547   4.504   1.988   6.294  0.9539  0.1486 -0.2020
 8686TIP3   OH247548   6.458   0.326   5.191  0.5935 -0.6003 -0.4357
 8686TIP3    H147549   6.538   0.278   5.169  2.2326  1.9156 -0.3798
 8686TIP3    H247550   6.443   0.307   5.283  1.4645 -0.6902 -0.3045
 8687TIP3   OH247551   0.636   2.758  15.238 -0.1680  0.1342 -0.4152
 8687TIP3    H147552   0.709   2.817  15.225 -0.6709  1.3632  1.7777
 8687TIP3    H247553   0.587   2.760  15.156 -0.0764  2.6889 -0.4742
 8688TIP3   OH247554   0.755   4.619  13.795  0.1414 -0.1740 -0.8211
 8688TIP3    H147555   0.736   4.712  13.781 -1.9297 -0.4516 -0.1907
 8688TIP3    H247556   0.748   4.606  13.889  3.2600 -0.4693 -0.5197
 8689TIP3   OH247557   3.893   4.481   6.165 -0.4946 -0.1494  0.4686
 8689TIP3    H147558   3.916   4.545   6.232  0.8473  1.1388 -1.1217
 8689TIP3    H247559   3.917   4.396   6.203  0.3054  0.5512  1.5825
 8690TIP3   OH247560   6.112   1.463  11.039  0.1604 -0.2885 -0.2155
 8690TIP3    H147561   6.077   1.392  10.986 -0.3981  1.4910 -2.4140
 8690TIP3    H247562   6.036   1.495  11.089  0.5202 -1.4740  1.1634
 8691TIP3   OH247563   5.373   4.784  10.369 -0.3810  0.2776 -0.0268
 8691TIP3    H147564   5.308   4.724  10.333  0.5143  0.7468 -2.5663
 8691TIP3    H247565   5.435   4.727  10.415 -2.1132 -0.2283  1.8484
 8692TIP3   OH247566   5.063   5.003  12.460 -0.2463  0.1565 -0.1172
 8692TIP3    H147567   4.989   4.947  12.484 -1.2155  1.0636 -0.8794
 8692TIP3    H247568   5.136   4.968  12.510 -0.7282 -1.9562 -0.7752
 8693TIP3   OH247569   3.902   2.006   6.045 -0.3120  0.0163  0.4451
 8693TIP3    H147570   3.917   1.930   5.989 -0.3466  0.0019  0.4551
 8693TIP3    H247571   3.913   2.081   5.987 -2.2610 -0.0300 -0.0537
 8694TIP3   OH247572   5.618   0.874   2.871 -0.3308  0.6884  0.0860
 8694TIP3    H147573   5.550   0.914   2.925  1.3888  2.5239  1.0247
 8694TIP3    H247574   5.605   0.911   2.784 -1.6792 -0.4798 -0.2414
 8695TIP3   OH247575   0.136   1.991   5.698  0.1249  0.0297  0.1795
 8695TIP3    H147576   0.044   1.970   5.686 -0.3859  1.7640  0.8615
 8695TIP3    H247577   0.154   2.061   5.635  0.4813  0.9655  1.2845
 8696TIP3   OH247578   5.489   1.652   2.343  0.1289  0.1117  0.3218
 8696TIP3    H147579   5.559   1.693   2.394  0.8958 -2.0552  1.1201
 8696TIP3    H247580   5.433   1.610   2.409  0.6008 -1.9497 -0.5196
 8697TIP3   OH247581   3.710   5.695  14.651 -0.2090  0.0132  0.1202
 8697TIP3    H147582   3.729   5.739  14.735 -1.3631 -0.1133  0.4635
 8697TIP3    H247583   3.626   5.730  14.624  0.3795  0.4343 -1.2761
 8698TIP3   OH247584   5.743   2.868  13.280  0.3121 -0.6688 -0.6786
 8698TIP3    H147585   5.732   2.832  13.369  0.5636  1.9593  0.4970
 8698TIP3    H247586   5.803   2.807  13.237 -0.3525 -2.3841  0.6944
 8699TIP3   OH247587   5.940   0.180  11.917 -0.1300 -0.2361 -0.5047
 8699TIP3    H147588   5.988   0.098  11.926  0.0575 -0.0084  0.7707
 8699TIP3    H247589   5.888   0.186  11.997  0.7523  1.4529 -0.0188
 8700TIP3   OH247590   5.218   6.521  16.570  0.0132 -0.0302 -0.4341
 8700TIP3    H147591   5.314   6.515  16.566  0.0149  0.4067 -1.2675
 8700TIP3    H247592   5.199   6.610  16.539 -0.5520  0.6433  1.6665
 8701TIP3   OH247593   4.418   1.883   4.042 -0.1175 -0.1800  0.6479
 8701TIP3    H147594   4.352   1.826   4.003 -0.1893 -0.0477  0.5756
 8701TIP3    H247595   4.501   1.847   4.012 -0.2081  1.2763 -1.5510
 8702TIP3   OH247596   2.854   2.627   5.751  0.4682  0.2030 -0.2779
 8702TIP3    H147597   2.806   2.546   5.770 -3.7443  2.2931 -0.6979
 8702TIP3    H247598   2.848   2.677   5.833  2.3237  0.4605 -0.2646
 8703TIP3   OH247599   4.602   1.020  14.064 -0.7189  0.0484  0.4957
 8703TIP3    H147600   4.636   0.955  14.003 -4.0591 -0.0467 -1.4956
 8703TIP3    H247601   4.665   1.092  14.060 -0.5732 -0.1221 -2.8564
 8704TIP3   OH247602   6.424   6.014   4.382 -0.4614 -0.6605 -0.1646
 8704TIP3    H147603   6.516   6.002   4.360 -0.2889  0.0259  0.1565
 8704TIP3    H247604   6.404   5.943   4.443 -0.2342 -1.0003 -0.4850
 8705TIP3   OH247605   2.721   0.620  13.614 -0.1022 -0.3471  0.1073
 8705TIP3    H147606   2.762   0.666  13.688 -0.6956  0.0626  0.1920
 8705TIP3    H247607   2.666   0.553  13.654 -1.3162  0.6109  0.1077
 8706TIP3   OH247608   2.516   4.922   2.549  0.7014  0.5066  0.0715
 8706TIP3    H147609   2.447   4.949   2.489  2.1674  1.8303 -1.1092
 8706TIP3    H247610   2.473   4.914   2.634 -0.9141  1.1491 -0.6478
 8707TIP3   OH247611   1.714   6.656  16.960  0.1036  0.3394  0.3045
 8707TIP3    H147612   1.647   6.590  16.942  0.6376 -0.3417  0.7669
 8707TIP3    H247613   1.797   6.611  16.947  0.5040  0.3713  2.4118
 8708TIP3   OH247614   6.728   1.836  15.029 -0.6743  0.5142 -0.4824
 8708TIP3    H147615   6.744   1.856  14.937 -2.9842 -0.3251 -1.1198
 8708TIP3    H247616   6.776   1.755  15.045  0.3666  1.0623 -0.6818
 8709TIP3   OH247617   3.591   5.936  10.885  0.0916  0.3399  0.1038
 8709TIP3    H147618   3.540   5.855  10.881 -1.4752  1.3006 -0.5726
 8709TIP3    H247619   3.680   5.910  10.861  0.9116 -2.0498  4.7306
 8710TIP3   OH247620   6.051   5.348  15.660 -0.0644 -0.1295  0.1390
 8710TIP3    H147621   5.977   5.361  15.602  0.7189  1.9537 -0.4956
 8710TIP3    H247622   6.018   5.292  15.730 -2.0391  0.2265 -0.4607
 8711TIP3   OH247623   5.574   3.425   6.155 -0.2589  0.1419  0.3562
 8711TIP3    H147624   5.593   3.357   6.219 -0.9930 -1.0536 -0.6697
 8711TIP3    H247625   5.659   3.446   6.117  0.1560  0.7312  1.5641
 8712TIP3   OH247626   4.873   4.459  13.562 -0.1098 -0.2504 -0.3264
 8712TIP3    H147627   4.893   4.499  13.478 -0.5689 -2.3021 -1.4873
 8712TIP3    H247628   4.957   4.447  13.605  0.5090 -2.0416 -1.9141
 8713TIP3   OH247629   4.487   3.522  15.167 -0.1217  0.1743  0.1019
 8713TIP3    H147630   4.514   3.433  15.145 -0.6869 -0.5700  2.1553
 8713TIP3    H247631   4.396   3.528  15.136 -1.2180 -1.1682  2.7330
 8714TIP3   OH247632   5.260   1.693   2.676 -0.7789  0.6333  0.4273
 8714TIP3    H147633   5.177   1.677   2.721 -0.8471 -0.3935 -0.0385
 8714TIP3    H247634   5.266   1.623   2.611  1.1486 -0.2194  1.4375
 8715TIP3   OH247635   2.596   6.624  15.686  0.5794  0.4320 -0.6500
 8715TIP3    H147636   2.580   6.712  15.652  0.0859  1.1415  1.2768
 8715TIP3    H247637   2.647   6.638  15.766  0.1841 -1.0039 -0.1135
 8716TIP3   OH247638   4.440   2.838  15.486 -0.0478 -0.0460  0.1008
 8716TIP3    H147639   4.465   2.894  15.413  1.1345  0.1974  0.6622
 8716TIP3    H247640   4.520   2.790  15.507  0.2700  1.4213  2.5834
 8717TIP3   OH247641   5.799   2.562  11.003  0.1879 -0.1986  0.3062
 8717TIP3    H147642   5.890   2.579  11.029  0.5481 -0.5877 -0.6624
 8717TIP3    H247643   5.800   2.565  10.908 -0.8561 -0.0647  0.2853
 8718TIP3   OH247644   0.588   0.495  14.154  0.2166  0.7832 -0.4303
 8718TIP3    H147645   0.528   0.547  14.209 -0.2860  1.2937 -1.4245
 8718TIP3    H247646   0.533   0.466  14.081  0.2375 -1.9586  0.5241
 8719TIP3   OH247647   4.290   0.453   5.397 -0.4228 -0.2983 -0.4099
 8719TIP3    H147648   4.260   0.389   5.332 -0.5754 -2.3017  1.5128
 8719TIP3    H247649   4.215   0.463   5.456 -0.4766  1.8933 -0.7746
 8720TIP3   OH247650   5.323   0.053  13.101  0.3767 -0.0953 -0.4614
 8720TIP3    H147651   5.387  -0.019  13.101 -0.4284 -0.9376  1.9495
 8720TIP3    H247652   5.375   0.131  13.081  1.8099 -0.9891 -0.4106
 8721TIP3   OH247653   1.113   1.808   0.213  0.2493 -0.3873  0.4301
 8721TIP3    H147654   1.095   1.716   0.228 -0.0728 -0.6798 -1.5205
 8721TIP3    H247655   1.207   1.811   0.193  0.2236 -0.3241  0.3174
 8722TIP3   OH247656   0.732   0.211   5.085 -0.3763 -1.1846 -0.3429
 8722TIP3    H147657   0.793   0.158   5.137 -0.1379  0.1349  0.7934
 8722TIP3    H247658   0.658   0.227   5.143  1.2911  3.0623  1.0421
 8723TIP3   OH247659   1.884   5.412   0.484 -0.0983  0.2511 -0.2565
 8723TIP3    H147660   1.890   5.395   0.578 -0.4545 -2.5214 -0.6534
 8723TIP3    H247661   1.975   5.411   0.455  0.0615  1.7872  0.1213
 8724TIP3   OH247662   3.885   3.454  14.006  0.0558 -0.4987  0.2658
 8724TIP3    H147663   3.831   3.382  14.037 -1.5212 -1.1569 -3.4840
 8724TIP3    H247664   3.963   3.411  13.969  0.0977 -0.1000 -0.1136
 8725TIP3   OH247665   0.154   1.942  15.872 -0.3676 -0.6081  0.7319
 8725TIP3    H147666   0.208   1.994  15.932 -0.4433  2.2044 -1.4397
 8725TIP3    H247667   0.075   1.994  15.861 -0.6980 -1.4558 -1.1489
 8726TIP3   OH247668   1.345   5.163  11.627  0.3971 -0.1398 -0.1942
 8726TIP3    H147669   1.285   5.228  11.663  1.2820  1.1512 -0.9451
 8726TIP3    H247670   1.423   5.214  11.603  1.7489 -1.7131  0.6131
 8727TIP3   OH247671   0.838   4.011  16.066 -0.6685  0.6668  0.2477
 8727TIP3    H147672   0.907   3.953  16.034 -0.2232  2.0653 -1.5311
 8727TIP3    H247673   0.885   4.088  16.098 -1.2454  0.1242  2.5692
 8728TIP3   OH247674   3.862   3.898  15.939 -0.4376  0.1601 -0.3483
 8728TIP3    H147675   3.835   3.825  15.995 -2.3021  0.0064 -1.3764
 8728TIP3    H247676   3.934   3.940  15.987 -0.6789 -1.1268  1.2148
 8729TIP3   OH247677   5.476   3.851   4.483  0.0549 -0.3971  0.2534
 8729TIP3    H147678   5.483   3.857   4.578 -3.3047  0.5172  0.5727
 8729TIP3    H247679   5.388   3.815   4.467 -0.8584  2.5238 -2.4395
 8730TIP3   OH247680   6.779   4.110  12.072 -0.3794  0.2005 -0.8961
 8730TIP3    H147681   6.738   4.160  12.143 -0.6371  0.6405 -1.3490
 8730TIP3    H247682   6.845   4.169  12.036  0.2101 -0.2691 -0.5919
 8731TIP3   OH247683   0.049   4.756  13.267  0.6617 -0.0739  0.0759
 8731TIP3    H147684   0.111   4.779  13.198  0.6949  1.0689  0.4723
 8731TIP3    H247685   0.045   4.660  13.264  0.8377 -0.0574 -1.3430
 8732TIP3   OH247686   4.735   6.758  11.031 -0.5823 -0.2733 -0.2343
 8732TIP3    H147687   4.659   6.707  11.007 -0.5229 -0.2574 -0.4588
 8732TIP3    H247688   4.748   6.740  11.124 -0.9007 -0.2197 -0.1787
 8733TIP3   OH247689   2.604   2.524  12.544  0.2183 -0.4430  0.3748
 8733TIP3    H147690   2.512   2.549  12.535  0.7766  1.0588 -1.7967
 8733TIP3    H247691   2.644   2.597  12.590  0.8271  0.1983 -1.1395
 8734TIP3   OH247692   0.985   3.766   1.564 -0.1061 -0.1974 -0.1695
 8734TIP3    H147693   1.042   3.806   1.630  0.9384 -1.7669 -0.0653
 8734TIP3    H247694   1.044   3.711   1.512 -1.1783 -0.1901 -1.4465
 8735TIP3   OH247695   6.250   1.052   0.032  0.3220 -1.3389 -0.0322
 8735TIP3    H147696   6.221   0.972  -0.013  0.0389 -0.0977 -2.1847
 8735TIP3    H247697   6.320   1.086  -0.023  1.3943 -0.7991  1.6068
 8736TIP3   OH247698   4.885   3.712   5.242 -0.1243  0.1608 -0.2611
 8736TIP3    H147699   4.965   3.764   5.250 -0.4321  0.6602 -0.4160
 8736TIP3    H247700   4.825   3.768   5.193 -0.8216  0.0793  0.4876
 8737TIP3   OH247701   1.880   4.540   3.030  0.1101  0.1801  0.0475
 8737TIP3    H147702   1.861   4.633   3.015  0.4663  0.5587  1.7269
 8737TIP3    H247703   1.953   4.540   3.092 -1.0927 -1.1843  1.5841
 8738TIP3   OH247704   2.295   4.382   1.895 -0.0882 -0.0720 -0.1456
 8738TIP3    H147705   2.303   4.300   1.845 -0.1562 -0.5252  0.5784
 8738TIP3    H247706   2.384   4.401   1.925  0.2189  0.9595 -1.5954
 8739TIP3   OH247707   6.756   3.563  14.276 -0.2255 -0.1267  0.2500
 8739TIP3    H147708   6.716   3.625  14.337  0.1303 -1.0409  1.4486
 8739TIP3    H247709   6.784   3.490  14.331 -2.3689 -2.2930 -1.2934
 8740TIP3   OH247710   4.644   5.490  12.934  0.9628 -0.2505  0.2957
 8740TIP3    H147711   4.667   5.461  13.022  0.8750 -0.2619  0.3148
 8740TIP3    H247712   4.728   5.512  12.894  0.8911  1.1956  0.8829
 8741TIP3   OH247713   2.993   0.540   4.511  0.1652 -0.2145  0.2480
 8741TIP3    H147714   2.958   0.580   4.432 -1.1908 -2.9902 -0.6765
 8741TIP3    H247715   3.061   0.481   4.479 -0.0142 -0.9618  1.2150
 8742TIP3   OH247716   0.297   2.776   3.338  1.0866 -0.2225  0.4723
 8742TIP3    H147717   0.244   2.732   3.271  0.0915  0.3032  0.8971
 8742TIP3    H247718   0.373   2.810   3.290  0.2221  0.4465 -0.4624
 8743TIP3   OH247719   2.917   2.858  12.354 -0.2359  0.2776 -0.1131
 8743TIP3    H147720   2.917   2.788  12.419 -0.4419  0.2359 -0.1563
 8743TIP3    H247721   2.888   2.815  12.273 -1.6952  0.6880  0.1653
 8744TIP3   OH247722   0.105   6.882   2.788 -0.2675 -0.7977 -0.3389
 8744TIP3    H147723   0.025   6.870   2.840  0.2939  1.5689  1.2746
 8744TIP3    H247724   0.172   6.835   2.836  0.0326  0.4698  0.5281
 8745TIP3   OH247725   6.645   3.390  12.857 -0.3326  0.6926  0.0369
 8745TIP3    H147726   6.709   3.389  12.928 -0.0939  1.0109 -0.1705
 8745TIP3    H247727   6.635   3.299  12.832 -1.1166  0.4734  1.0979
 8746TIP3   OH247728   0.974   0.734  15.357  0.5163 -0.3654  0.2911
 8746TIP3    H147729   1.047   0.796  15.365  0.3689 -0.1242 -0.1821
 8746TIP3    H247730   0.933   0.757  15.274  0.0635 -0.6782  0.4270
 8747TIP3   OH247731   3.626   2.696  16.675  0.0364  0.5390  0.6348
 8747TIP3    H147732   3.638   2.740  16.759 -0.4085  0.8419  0.5428
 8747TIP3    H247733   3.535   2.714  16.651  0.2994  0.8689 -0.1523
 8748TIP3   OH247734   3.206   3.485  13.960  0.4237  0.1972 -0.1141
 8748TIP3    H147735   3.160   3.401  13.951 -0.2789  0.3529  1.5965
 8748TIP3    H247736   3.156   3.546  13.905 -0.6465  0.0605  0.6796
 8749TIP3   OH247737   1.205   5.394  12.036  0.2129 -0.2031  0.1085
 8749TIP3    H147738   1.269   5.384  11.965 -0.2445 -2.3620 -0.0613
 8749TIP3    H247739   1.253   5.370  12.115 -0.0941 -0.7831  0.1217
 8750TIP3   OH247740   3.957   6.031  16.507 -0.1183 -0.2053  0.6986
 8750TIP3    H147741   3.950   5.966  16.577 -1.1589  0.8757  1.6400
 8750TIP3    H247742   4.048   6.061  16.510  0.4816 -1.8308  0.0137
 8751TIP3   OH247743   3.557   6.672  13.190 -1.0425 -0.1681 -0.2429
 8751TIP3    H147744   3.507   6.744  13.151 -1.3263 -0.4994 -0.4906
 8751TIP3    H247745   3.576   6.702  13.279 -0.7529  0.4122 -0.4929
 8752TIP3   OH247746   3.043   1.702  16.447  0.1405  1.1686 -0.5285
 8752TIP3    H147747   2.954   1.726  16.421 -0.8906 -0.5479  1.1554
 8752TIP3    H247748   3.063   1.626  16.393  1.2312  2.4077 -1.9539
 8753TIP3   OH247749   3.851   0.930  13.702  0.1869  0.1283  0.3246
 8753TIP3    H147750   3.909   0.901  13.632 -1.3726 -0.3444 -0.7926
 8753TIP3    H247751   3.834   1.022  13.682 -2.4857 -0.6855 -1.5853
 8754TIP3   OH247752   3.307   0.746   5.805  0.3559 -0.0477  0.0777
 8754TIP3    H147753   3.344   0.718   5.889  0.0504  0.6716  0.4718
 8754TIP3    H247754   3.317   0.841   5.806 -1.0104  0.1266 -0.0155
 8755TIP3   OH247755   6.474   3.793  11.696 -0.3022  0.5036  0.5378
 8755TIP3    H147756   6.460   3.703  11.724 -2.8450  0.2773 -1.1432
 8755TIP3    H247757   6.527   3.832  11.766  1.6230 -2.4575  0.9019
 8756TIP3   OH247758   0.085   0.837   2.842 -0.0797 -0.5026 -0.2965
 8756TIP3    H147759   0.115   0.836   2.933 -2.6072  1.4255  0.6944
 8756TIP3    H247760   0.148   0.891   2.796  0.1204  0.2408  0.8157
 8757TIP3   OH247761   5.396   5.921   5.297 -0.0007 -0.1314  0.4105
 8757TIP3    H147762   5.406   5.922   5.392 -0.0232 -1.4212  0.4387
 8757TIP3    H247763   5.462   5.984   5.265 -1.6933  2.2738  1.3756
 8758TIP3   OH247764   5.306   0.640   6.479  0.2395 -0.5799  0.4825
 8758TIP3    H147765   5.379   0.618   6.537 -0.2805 -0.2099  1.2902
 8758TIP3    H247766   5.268   0.555   6.455 -0.6642 -0.6872  2.1620
 8759TIP3   OH247767   6.838   3.545  11.389  0.6627  0.2744 -0.3746
 8759TIP3    H147768   6.764   3.579  11.439 -0.1811 -2.5022  0.4922
 8759TIP3    H247769   6.901   3.617  11.385 -1.3039  2.1255  0.4669
 8760TIP3   OH247770   3.074   1.562   4.313  0.2387 -1.2109 -0.0543
 8760TIP3    H147771   3.053   1.486   4.259 -3.5875  1.4876 -2.8622
 8760TIP3    H247772   3.136   1.612   4.260  0.8704 -1.1902  0.6877
 8761TIP3   OH247773   6.250   1.740  10.534 -0.5621  0.4864 -0.0152
 8761TIP3    H147774   6.328   1.752  10.479 -0.1771  0.0977  0.4368
 8761TIP3    H247775   6.277   1.770  10.621 -0.4855 -0.9261  0.4604
 8762TIP3   OH247776   6.031   4.504  10.594  0.0323  0.5481 -0.1163
 8762TIP3    H147777   6.120   4.469  10.592 -0.0031  0.4583 -0.0727
 8762TIP3    H247778   6.034   4.580  10.535  0.0812  0.4154 -0.2835
 8763TIP3   OH247779   3.895   5.121   2.243  0.2245 -0.5071 -0.1880
 8763TIP3    H147780   3.947   5.149   2.168  1.2100 -0.0434  0.6476
 8763TIP3    H247781   3.943   5.154   2.320 -1.1931 -0.2320  0.6210
 8764TIP3   OH247782   3.792   6.240   2.257 -0.3281 -0.1838 -0.1928
 8764TIP3    H147783   3.823   6.228   2.167 -2.0469  1.6135 -1.1150
 8764TIP3    H247784   3.800   6.334   2.272 -0.5086 -0.3952  1.4007
 8765TIP3   OH247785   5.482   3.137  11.000 -0.2248 -0.0224 -0.0841
 8765TIP3    H147786   5.464   3.046  10.974 -1.5693 -0.0659  0.9040
 8765TIP3    H247787   5.446   3.190  10.929 -1.1022 -0.2238  0.1964
 8766TIP3   OH247788   1.478   5.076   4.751  0.0136 -0.3111 -0.3431
 8766TIP3    H147789   1.568   5.046   4.763  0.7103  1.1468 -1.6119
 8766TIP3    H247790   1.425   4.998   4.766  1.5374 -1.4453 -0.5516
 8767TIP3   OH247791   1.438   4.266  15.685  0.1892 -0.2321 -0.5036
 8767TIP3    H147792   1.479   4.235  15.604  0.2967 -1.3675 -0.0254
 8767TIP3    H247793   1.368   4.204  15.702 -0.2908  0.4106 -0.0940
 8768TIP3   OH247794   2.266   1.919  12.394 -0.5007 -0.7192 -0.2160
 8768TIP3    H147795   2.259   1.962  12.309 -1.3993  0.4861  0.4472
 8768TIP3    H247796   2.178   1.886  12.412 -1.6507  3.1575  2.3113
 8769TIP3   OH247797   2.461   3.377   3.744  0.0720 -0.1846  0.1956
 8769TIP3    H147798   2.399   3.449   3.743 -1.1507 -1.0739  2.7114
 8769TIP3    H247799   2.433   3.319   3.673 -0.7532  0.4080  0.0307
 8770TIP3   OH247800   5.309   3.763   0.601 -0.5536 -0.1289  0.7079
 8770TIP3    H147801   5.395   3.783   0.640 -0.8287  1.9615  0.3637
 8770TIP3    H247802   5.297   3.669   0.617  2.1432 -0.6772  0.0784
 8771TIP3   OH247803   5.420   6.263  15.216  0.3789 -0.2300  0.3197
 8771TIP3    H147804   5.335   6.284  15.254  0.6974  0.1352  0.8464
 8771TIP3    H247805   5.482   6.315  15.266  0.9877 -1.0039  0.3961
 8772TIP3   OH247806   5.552   0.819   5.381 -0.4183 -0.9945 -0.2763
 8772TIP3    H147807   5.465   0.855   5.362 -2.4315 -3.3899  3.1976
 8772TIP3    H247808   5.549   0.730   5.347  1.0037 -0.8675 -0.7777
 8773TIP3   OH247809   2.836   2.470  12.832 -0.4204  0.0871 -0.2098
 8773TIP3    H147810   2.815   2.420  12.910  1.4722  0.4302  0.5605
 8773TIP3    H247811   2.841   2.404  12.762 -1.2933 -0.3260  0.1024
 8774TIP3   OH247812   2.907   2.965  15.117  0.4430 -0.4970 -0.3216
 8774TIP3    H147813   2.993   3.000  15.140  0.1566 -1.1003  1.9339
 8774TIP3    H247814   2.901   2.883  15.166 -1.6488 -0.1488  0.1249
 8775TIP3   OH247815   5.117   0.406  14.711  0.2659 -0.5995  0.1837
 8775TIP3    H147816   5.055   0.363  14.651  0.8630 -1.8751  0.4595
 8775TIP3    H247817   5.118   0.350  14.788  0.5917  0.2695  0.8166
 8776TIP3   OH247818   6.049   0.140   2.695  0.1182 -0.1784 -0.2225
 8776TIP3    H147819   5.974   0.164   2.748  0.4002 -1.0580  0.5998
 8776TIP3    H247820   6.114   0.108   2.757 -0.1949 -2.9556 -1.1765
 8777TIP3   OH247821   6.000   5.462  16.331 -0.1075 -0.2087  0.1080
 8777TIP3    H147822   6.001   5.547  16.285  1.8822  0.7361  1.7245
 8777TIP3    H247823   5.950   5.479  16.411  1.4495 -0.0943  1.1108
 8778TIP3   OH247824   0.721   5.216   4.590 -0.0447 -0.3686 -0.1574
 8778TIP3    H147825   0.657   5.186   4.525  0.2460 -2.4253  0.4609
 8778TIP3    H247826   0.685   5.189   4.674  1.2048 -0.7884  0.2674
 8779TIP3   OH247827   4.369   6.792  13.557 -0.1309  0.1337 -0.0517
 8779TIP3    H147828   4.432   6.725  13.584  0.7608  0.4379 -1.2741
 8779TIP3    H247829   4.401   6.822  13.472 -1.4661  0.9139 -0.3109
 8780TIP3   OH247830   5.658   4.854  15.857 -0.1512 -0.2081 -0.6289
 8780TIP3    H147831   5.745   4.887  15.837 -0.3994  0.6964 -0.2848
 8780TIP3    H247832   5.599   4.911  15.808 -0.6513  0.6451  0.8783
 8781TIP3   OH247833   5.173   1.357   3.200 -0.1871  0.1753 -0.3749
 8781TIP3    H147834   5.156   1.264   3.186 -2.1472  0.5275 -0.5586
 8781TIP3    H247835   5.180   1.366   3.295 -0.5770 -0.0710 -0.3228
 8782TIP3   OH247836   4.463   6.204   0.639 -0.0824  0.3041  0.0258
 8782TIP3    H147837   4.379   6.249   0.638  0.5045  1.5462 -2.3955
 8782TIP3    H247838   4.521   6.260   0.587  2.4560 -0.1831  2.0703
 8783TIP3   OH247839   1.972   0.935   3.753  1.1825  0.3168 -0.1535
 8783TIP3    H147840   1.884   0.928   3.791  0.8377 -0.5069 -1.0660
 8783TIP3    H247841   1.960   0.991   3.676  1.4345  0.0780 -0.3660
 8784TIP3   OH247842   0.587   3.914  11.840 -0.0742  0.4734 -0.3809
 8784TIP3    H147843   0.671   3.888  11.802 -0.1179  1.9963 -1.6440
 8784TIP3    H247844   0.603   3.914  11.934  1.1043 -0.0485 -0.5555
 8785TIP3   OH247845   5.945   5.847   4.021 -0.3038  0.5436 -0.5779
 8785TIP3    H147846   5.885   5.778   4.047 -0.2043  0.2424 -1.1342
 8785TIP3    H247847   6.032   5.810   4.036 -0.2511  0.5698 -0.8143
 8786TIP3   OH247848   3.790   1.391  13.207  0.2979  0.1778  0.6506
 8786TIP3    H147849   3.762   1.416  13.295 -2.9566  0.3675 -0.3092
 8786TIP3    H247850   3.767   1.466  13.153 -0.1249 -0.9136 -0.7266
 8787TIP3   OH247851   2.143   2.396  13.699  0.0285 -0.5670  0.9163
 8787TIP3    H147852   2.234   2.426  13.700 -0.0850 -0.0802 -0.9644
 8787TIP3    H247853   2.150   2.301  13.687  0.2794 -0.4985  0.5167
 8788TIP3   OH247854   6.369   6.496   5.340 -0.0160 -0.4420  0.2545
 8788TIP3    H147855   6.412   6.501   5.254  0.8951 -3.3071  0.4291
 8788TIP3    H247856   6.297   6.433   5.327  0.9335 -1.9348  1.8289
 8789TIP3   OH247857   1.402   2.410   4.180  0.1140 -0.3802  0.1339
 8789TIP3    H147858   1.450   2.381   4.102 -0.1086  0.4678 -0.3314
 8789TIP3    H247859   1.465   2.464   4.228 -0.7160  1.8145 -1.1321
 8790TIP3   OH247860   5.364   4.518   0.910 -0.3744 -0.0306  0.2365
 8790TIP3    H147861   5.447   4.477   0.934 -0.7950 -0.0401  1.8023
 8790TIP3    H247862   5.364   4.519   0.815  1.6633  0.4661  0.2005
 8791TIP3   OH247863   1.974   6.202   1.369 -0.2638 -0.3752 -0.1616
 8791TIP3    H147864   2.043   6.136   1.355  0.4233  0.2430  0.2109
 8791TIP3    H247865   1.895   6.151   1.386  0.3209 -1.1181  0.4128
 8792TIP3   OH247866   5.395   5.429   4.165  0.3128 -0.1484 -1.0105
 8792TIP3    H147867   5.349   5.467   4.091  0.0285 -0.2219 -0.8759
 8792TIP3    H247868   5.398   5.499   4.230 -2.2844 -0.9899  0.1561
 8793TIP3   OH247869   3.369   0.803  12.731  0.1995 -0.3545 -0.3015
 8793TIP3    H147870   3.401   0.752  12.806  0.9944  0.3867 -0.1205
 8793TIP3    H247871   3.285   0.838  12.760  0.6510  0.1968  0.3879
 8794TIP3   OH247872   3.335   5.471   4.593 -0.0948 -0.3013  0.0005
 8794TIP3    H147873   3.315   5.563   4.611  0.5887  0.1689 -1.5146
 8794TIP3    H247874   3.367   5.437   4.676  1.8763  1.4490  0.0324
 8795TIP3   OH247875   6.809   1.547  12.232  0.2767 -1.0249  0.3753
 8795TIP3    H147876   6.743   1.602  12.275 -0.4631 -0.7582 -1.0265
 8795TIP3    H247877   6.888   1.559  12.285  0.4857  2.3287 -0.4318
 8796TIP3   OH247878   4.153   0.795   1.050  0.2910 -0.0658 -0.0228
 8796TIP3    H147879   4.086   0.807   0.983 -0.4721 -0.5555  0.6290
 8796TIP3    H247880   4.109   0.817   1.132  0.6344 -1.2733  0.5158
 8797TIP3   OH247881   4.735   2.241  13.506 -0.0540 -0.6685 -0.8062
 8797TIP3    H147882   4.776   2.162  13.542  3.4260  1.2120 -0.1767
 8797TIP3    H247883   4.709   2.292  13.583 -0.6831 -0.4523 -1.1580
 8798TIP3   OH247884   6.339   1.565   0.008  0.1767 -0.1649 -0.5386
 8798TIP3    H147885   6.426   1.550  -0.029  0.9585 -0.8391  1.4629
 8798TIP3    H247886   6.350   1.640   0.067 -0.2067 -1.1894  0.8848
 8799TIP3   OH247887   1.929   6.593  13.601  0.1204 -0.1409  0.5938
 8799TIP3    H147888   2.013   6.548  13.609 -0.5083 -1.4000  0.3534
 8799TIP3    H247889   1.868   6.525  13.573 -0.6667  1.0930 -0.7876
 8800TIP3   OH247890   2.086   4.036   3.623  0.5382  0.1225  0.0850
 8800TIP3    H147891   2.140   4.107   3.656  0.1613 -0.5916  2.4554
 8800TIP3    H247892   2.090   3.969   3.692 -1.1157 -1.1093 -0.9364
 8801TIP3   OH247893   1.490   6.177  16.533  0.0257 -0.0040  0.6345
 8801TIP3    H147894   1.416   6.156  16.477  1.0586  0.7263 -1.0683
 8801TIP3    H247895   1.469   6.263  16.569 -0.0306  0.1168  0.3131
 8802TIP3   OH247896   3.836   5.819  12.504  0.6052 -0.3192  0.1184
 8802TIP3    H147897   3.797   5.781  12.583  1.4135  0.1608  0.7739
 8802TIP3    H247898   3.777   5.890  12.480  0.9562  0.2935  0.9995
 8803TIP3   OH247899   3.318   0.060  12.414  0.3897 -0.0916 -0.2378
 8803TIP3    H147900   3.322  -0.034  12.432 -1.8751 -0.6651 -2.2377
 8803TIP3    H247901   3.324   0.102  12.500  2.2747 -1.9693  0.6292
 8804TIP3   OH247902   3.152   6.001   2.554  0.0781 -0.4420  0.7515
 8804TIP3    H147903   3.176   5.925   2.607 -0.6231 -1.1320  0.1091
 8804TIP3    H247904   3.206   6.072   2.588 -0.6408 -0.7617  2.6392
 8805TIP3   OH247905   1.628   5.345  16.094  0.0403  0.3901 -0.0100
 8805TIP3    H147906   1.584   5.429  16.082 -0.4112 -0.0732 -1.9273
 8805TIP3    H247907   1.590   5.309  16.174 -3.1798 -0.0016 -1.5705
 8806TIP3   OH247908   5.692   2.624   4.317  0.3787 -0.0972  0.3078
 8806TIP3    H147909   5.633   2.622   4.392 -1.7937 -3.1196 -1.2085
 8806TIP3    H247910   5.766   2.569   4.343 -0.0027 -0.5118  0.5400
 8807TIP3   OH247911   1.712   1.396   0.373  0.1947 -0.3099 -0.9527
 8807TIP3    H147912   1.722   1.305   0.343  1.3156 -0.2841 -0.7088
 8807TIP3    H247913   1.776   1.445   0.321  0.0823  0.2268 -0.5947
 8808TIP3   OH247914   1.773   6.726   2.318 -0.2267 -0.0594 -0.1985
 8808TIP3    H147915   1.699   6.752   2.373 -0.7143 -1.8386  0.0520
 8808TIP3    H247916   1.825   6.668   2.374 -1.0430 -2.3790 -1.7149
 8809TIP3   OH247917   3.807   6.391  13.359 -0.1612 -0.5167 -0.0279
 8809TIP3    H147918   3.832   6.419  13.271  1.3925 -0.5894  0.3674
 8809TIP3    H247919   3.827   6.298  13.362 -1.4228 -0.8075  0.0100
 8810TIP3   OH247920   0.492   0.241   5.218  0.0508 -0.7532 -0.0324
 8810TIP3    H147921   0.503   0.207   5.307  0.5531  2.6058  1.3396
 8810TIP3    H247922   0.397   0.256   5.210  0.0003 -1.0985 -0.0731
 8811TIP3   OH247923   6.303   0.097  12.271 -1.2183  0.4283  0.1635
 8811TIP3    H147924   6.381   0.140  12.235 -0.6146 -0.3807  0.4772
 8811TIP3    H247925   6.258   0.166  12.320 -0.4995  0.8174  0.2866
 8812TIP3   OH247926   4.469   2.800   3.723 -0.4872 -0.0192 -0.0874
 8812TIP3    H147927   4.556   2.820   3.756  0.0207 -0.2286 -1.2510
 8812TIP3    H247928   4.410   2.820   3.796  0.3164  2.1077  0.0434
 8813TIP3   OH247929   6.423   6.602  10.803  0.1798 -0.3160  0.2615
 8813TIP3    H147930   6.494   6.636  10.857  1.2185 -0.6837 -0.8106
 8813TIP3    H247931   6.389   6.679  10.757 -0.7872  0.0156  1.4909
 8814TIP3   OH247932   6.169   0.914   5.464  0.2564 -0.0409 -0.4733
 8814TIP3    H147933   6.119   0.988   5.500 -0.3769 -0.7334  0.1017
 8814TIP3    H247934   6.104   0.861   5.419  0.9584  0.5268 -2.2164
 8815TIP3   OH247935   3.723   6.399  10.157 -0.3640  0.7115 -0.2800
 8815TIP3    H147936   3.780   6.469  10.188  1.6921  0.3227 -2.8513
 8815TIP3    H247937   3.749   6.323  10.210  0.2648  0.9611 -0.2190
 8816TIP3   OH247938   5.131   5.355  13.886  0.0883 -0.1112 -0.1489
 8816TIP3    H147939   5.202   5.361  13.950 -0.1879  0.4181  0.1094
 8816TIP3    H247940   5.112   5.261  13.881 -0.1230 -0.1343  0.8097
 8817TIP3   OH247941   1.904   1.509  12.622 -0.2162 -0.0953 -0.0442
 8817TIP3    H147942   1.874   1.467  12.702  0.3619  0.1669  0.3225
 8817TIP3    H247943   1.981   1.459  12.596 -0.3052 -0.0790 -0.3440
 8818TIP3   OH247944   3.755   5.096  14.875  0.0063  0.4817  0.2519
 8818TIP3    H147945   3.677   5.140  14.843 -0.2387 -0.1656 -0.0509
 8818TIP3    H247946   3.725   5.008  14.900  0.2159  0.8841  2.0864
 8819TIP3   OH247947   4.913   1.978  16.506 -0.2736  0.1447 -0.3117
 8819TIP3    H147948   4.822   1.966  16.478 -0.2656 -0.5849 -0.0325
 8819TIP3    H247949   4.954   2.026  16.434 -1.3555  2.2761  0.3839
 8820TIP3   OH247950   3.581   1.943  16.703  0.2849 -0.9727  0.5268
 8820TIP3    H147951   3.629   2.015  16.662 -0.3572  1.0236  3.0457
 8820TIP3    H247952   3.496   1.981  16.727 -0.7662 -3.0942  0.4023
 8821TIP3   OH247953   5.037   5.582  15.224 -0.1182 -0.5641 -0.0874
 8821TIP3    H147954   5.100   5.511  15.215 -0.4552 -0.9057  0.2543
 8821TIP3    H247955   4.993   5.586  15.139  0.7215  0.0291 -0.5172
 8822TIP3   OH247956   4.885   5.159  11.963 -0.3821  0.2289 -0.8282
 8822TIP3    H147957   4.967   5.208  11.970 -0.4419  0.1677  0.8734
 8822TIP3    H247958   4.858   5.145  12.054 -1.6449 -0.8270 -1.3302
 8823TIP3   OH247959   1.125   1.764   5.599 -0.2091  0.2734 -0.3605
 8823TIP3    H147960   1.104   1.725   5.684  0.7389  0.1370 -0.1735
 8823TIP3    H247961   1.072   1.844   5.596  1.8929  1.8980  1.6941
 8824TIP3   OH247962   4.297   0.144  13.002  0.3591  0.5108  0.0101
 8824TIP3    H147963   4.372   0.197  12.976 -0.1225  1.7067  0.9199
 8824TIP3    H247964   4.324   0.054  12.988  1.1937  0.9863 -1.6673
 8825TIP3   OH247965   3.659   0.618  16.094  0.0404  0.2397 -0.4889
 8825TIP3    H147966   3.622   0.623  16.182  0.4514 -1.1931 -0.2219
 8825TIP3    H247967   3.750   0.594  16.107  0.6966  2.1275 -1.2309
 8826TIP3   OH247968   2.859   3.779   3.504 -0.1805  0.2596 -0.7086
 8826TIP3    H147969   2.839   3.686   3.511 -1.8519  0.6516  0.4671
 8826TIP3    H247970   2.953   3.785   3.523 -0.1897 -1.1135 -0.0523
 8827TIP3   OH247971   4.201   0.489   0.851  0.0127  0.4559  0.1102
 8827TIP3    H147972   4.208   0.404   0.806  0.7014  0.5193  0.0899
 8827TIP3    H247973   4.111   0.517   0.834  0.1385  0.2894 -0.8923
 8828TIP3   OH247974   4.541   3.665   1.214 -0.7525 -0.1488  0.1245
 8828TIP3    H147975   4.552   3.641   1.122  0.3839  0.7828 -0.0046
 8828TIP3    H247976   4.524   3.759   1.213  1.8148  0.4172  0.9547
 8829TIP3   OH247977   0.508   2.384  13.598 -0.8927 -0.2185 -0.0011
 8829TIP3    H147978   0.555   2.465  13.578 -3.7410  1.7874  0.9223
 8829TIP3    H247979   0.578   2.322  13.622  1.5108  1.3712 -2.3231
 8830TIP3   OH247980   6.525   0.699  16.855 -0.2944 -0.0769  0.2559
 8830TIP3    H147981   6.456   0.683  16.790 -0.4634 -0.2438  0.4803
 8830TIP3    H247982   6.481   0.692  16.939 -0.3400  1.3109  0.3732
 8831TIP3   OH247983   0.347   4.133  12.893 -0.0026  0.0915 -0.0308
 8831TIP3    H147984   0.386   4.060  12.845 -1.3815 -0.6553 -0.0318
 8831TIP3    H247985   0.372   4.210  12.842 -0.8261 -0.6244 -1.5780
 8832TIP3   OH247986   5.970   6.709  12.849  0.1179 -0.5193 -0.0028
 8832TIP3    H147987   5.887   6.663  12.848 -0.6547  0.7718  1.4940
 8832TIP3    H247988   6.024   6.662  12.785 -2.1055 -0.6942 -1.8880
 8833TIP3   OH247989   6.617   0.922   0.520 -0.2404 -0.0019 -0.4484
 8833TIP3    H147990   6.693   0.894   0.570  0.8692  1.5162 -1.1804
 8833TIP3    H247991   6.554   0.851   0.528  1.2735 -1.3187  0.1464
 8834TIP3   OH247992   5.452   0.112  13.628  0.6143  0.1210 -0.2609
 8834TIP3    H147993   5.489   0.063  13.701  0.6417  1.3041  0.5294
 8834TIP3    H247994   5.363   0.077  13.619  1.0175 -0.8861 -0.4743
 8835TIP3   OH247995   2.025   1.785  12.402 -0.2733 -0.3913 -0.1720
 8835TIP3    H147996   1.941   1.808  12.360 -0.6503 -0.3701  0.5810
 8835TIP3    H247997   2.052   1.705  12.358 -0.9755 -0.7118 -0.0421
 8836TIP3   OH247998   3.863   1.226  12.071 -0.6230 -0.1204  0.3823
 8836TIP3    H147999   3.947   1.181  12.063 -0.2451  0.8462 -1.8392
 8836TIP3    H248000   3.879   1.296  12.133  0.0061 -0.3984  0.5419
 8837TIP3   OH248001   3.580   0.458  13.623 -0.0614  0.2146  0.2919
 8837TIP3    H148002   3.642   0.391  13.595  0.6936  1.2373 -0.5170
 8837TIP3    H248003   3.603   0.536  13.573 -2.7223  0.3341 -0.9483
 8838TIP3   OH248004   5.611   2.409   1.077 -0.3299  0.3969 -0.6259
 8838TIP3    H148005   5.653   2.395   1.162 -0.6942  1.0081 -0.3421
 8838TIP3    H248006   5.631   2.330   1.027 -2.7030 -1.4519  1.0904
 8839TIP3   OH248007   2.681   1.878  13.787  0.3456 -0.3940 -0.3074
 8839TIP3    H148008   2.615   1.883  13.856  0.4093 -2.6324  0.0057
 8839TIP3    H248009   2.638   1.913  13.709 -0.3820  0.3755  0.4286
 8840TIP3   OH248010   4.006   6.098  12.046  0.1339 -0.2527 -0.3306
 8840TIP3    H148011   3.966   6.176  12.007  0.5318  0.1585  0.0668
 8840TIP3    H248012   4.003   6.032  11.977 -0.7131 -0.0598 -0.4922
 8841TIP3   OH248013   3.284   0.074  11.675 -0.0893  0.3413  0.5006
 8841TIP3    H148014   3.226   0.004  11.646  0.8279  0.0027 -0.6061
 8841TIP3    H248015   3.370   0.048  11.643  0.4569  1.4529  1.0110
 8842TIP3   OH248016   6.235   2.903   4.724  0.0663 -0.2448 -0.5477
 8842TIP3    H148017   6.311   2.847   4.737  1.0306  1.5392  2.3257
 8842TIP3    H248018   6.270   2.992   4.723 -1.6715  0.4979 -2.5148
 8843TIP3   OH248019   2.525   0.739  16.223 -0.1906 -0.1907  0.3202
 8843TIP3    H148020   2.510   0.802  16.154 -2.1685 -1.1504 -0.1996
 8843TIP3    H248021   2.609   0.698  16.201 -1.6925 -1.9049 -2.7270
 8844TIP3   OH248022   6.168   0.055  13.511 -0.4613 -0.3064  0.5563
 8844TIP3    H148023   6.087   0.028  13.468  0.1710 -0.1573 -0.7708
 8844TIP3    H248024   6.223   0.088  13.440  1.8613 -2.9739  0.9256
 8845TIP3   OH248025   6.684   0.725   5.185 -0.1638 -0.6472 -0.3105
 8845TIP3    H148026   6.613   0.672   5.149  1.3402 -2.4350 -0.8018
 8845TIP3    H248027   6.756   0.663   5.197  0.6106  0.6230  2.3249
 8846TIP3   OH248028   4.498   4.376  13.365 -0.0724  0.5012 -0.2611
 8846TIP3    H148029   4.448   4.323  13.303 -0.5667 -1.4018  1.6205
 8846TIP3    H248030   4.589   4.361  13.340 -0.2711  0.0712 -0.7533
 8847TIP3   OH248031   0.641   3.667   0.255  0.2239 -0.2398  0.5257
 8847TIP3    H148032   0.647   3.603   0.325 -0.4870 -1.0661 -0.1587
 8847TIP3    H248033   0.699   3.738   0.283 -0.8333 -0.0704  2.4352
 8848TIP3   OH248034   6.819   2.629   5.477 -0.4753  0.0022  0.2536
 8848TIP3    H148035   6.895   2.590   5.520 -0.0056  0.5825 -0.0471
 8848TIP3    H248036   6.775   2.555   5.434  0.7514 -0.1093 -0.8468
 8849TIP3   OH248037   4.326   3.312   3.728  0.0525  0.2097  0.0904
 8849TIP3    H148038   4.303   3.289   3.638  0.4681 -0.2673  0.0963
 8849TIP3    H248039   4.317   3.407   3.732 -0.0596  0.2256 -0.4306
 8850TIP3   OH248040   0.906   5.039  12.404  0.3336  0.9772  0.2920
 8850TIP3    H148041   1.000   5.022  12.394  0.0977 -0.4653  0.2043
 8850TIP3    H248042   0.886   5.009  12.493 -0.5424 -1.5928 -0.6573
 8851TIP3   OH248043   1.278   1.046  13.834 -0.0506 -0.4398  0.2557
 8851TIP3    H148044   1.201   1.093  13.866 -0.7104 -1.9665  0.9990
 8851TIP3    H248045   1.339   1.047  13.909  0.6640  0.6869 -0.2996
 8852TIP3   OH248046   1.408   5.069  16.095  0.2330 -0.3003 -0.4204
 8852TIP3    H148047   1.327   5.040  16.136  0.0221  1.6065  0.5948
 8852TIP3    H248048   1.394   5.162  16.076  3.0360  0.8097  2.1739
 8853TIP3   OH248049   1.611   1.885  10.940  0.0333 -0.4972  0.1599
 8853TIP3    H148050   1.549   1.937  10.991  1.4579 -1.0315  2.6002
 8853TIP3    H248051   1.688   1.878  10.997  2.4956  0.3637 -2.8110
 8854TIP3   OH248052   6.478   0.851   1.406 -0.2284 -0.1798  0.1086
 8854TIP3    H148053   6.451   0.875   1.495  0.6221 -2.1710  0.9749
 8854TIP3    H248054   6.401   0.811   1.368 -0.3766 -0.0223  0.2428
 8855TIP3   OH248055   2.219   5.078   0.385  0.2698  0.4427 -0.2747
 8855TIP3    H148056   2.205   5.111   0.297  2.6381 -0.5894 -1.1325
 8855TIP3    H248057   2.177   4.992   0.385  0.2293  0.4617 -0.4044
 8856TIP3   OH248058   2.670   3.701   2.365 -0.1322 -0.0103  0.2524
 8856TIP3    H148059   2.655   3.752   2.444 -1.4195  1.0665 -0.6320
 8856TIP3    H248060   2.742   3.746   2.321 -1.4646  1.3462 -0.6793
 8857TIP3   OH248061   3.054   2.359  10.975 -0.4072  0.3970 -0.0121
 8857TIP3    H148062   3.043   2.453  10.986 -1.5492  0.2653  0.0619
 8857TIP3    H248063   3.030   2.342  10.884 -0.0903  0.1915 -0.0600
 8858TIP3   OH248064   3.891   3.975   2.149  0.4838  0.4130 -0.4147
 8858TIP3    H148065   3.881   3.889   2.108  2.2139  0.7741 -1.6939
 8858TIP3    H248066   3.981   4.001   2.129  1.0272  1.2118  2.5508
 8859TIP3   OH248067   4.792   0.407  14.031 -0.2786  1.2261 -0.0229
 8859TIP3    H148068   4.731   0.452  13.972  0.9182  2.8475 -0.0841
 8859TIP3    H248069   4.767   0.438  14.119 -0.8782  0.2496  0.1578
 8860TIP3   OH248070   0.293   1.071   2.580 -0.0812 -0.1957 -0.0718
 8860TIP3    H148071   0.309   1.043   2.670 -2.1537  1.5593  0.9383
 8860TIP3    H248072   0.227   1.140   2.588 -0.7154 -0.3437 -2.9953
 8861TIP3   OH248073   3.900   0.321  11.548 -0.1416  0.1430  0.2048
 8861TIP3    H148074   3.922   0.414  11.542 -1.4510  0.5514  1.1295
 8861TIP3    H248075   3.978   0.279  11.583  0.2079  1.0281  0.5038
 8862TIP3   OH248076   4.997   6.245   3.858  0.0700  0.0202 -0.0607
 8862TIP3    H148077   5.013   6.291   3.941 -0.0944  0.1344 -0.0915
 8862TIP3    H248078   5.074   6.188   3.847 -1.0703 -1.9871  1.5084
 8863TIP3   OH248079   3.184   0.241   2.026  0.2474  0.1373  0.3331
 8863TIP3    H148080   3.195   0.336   2.025  1.1701  0.0382  0.4312
 8863TIP3    H248081   3.198   0.214   1.936  2.6054 -0.1671  0.7430
 8864TIP3   OH248082   1.426   1.590  16.505  0.4481  0.2143  0.2686
 8864TIP3    H148083   1.361   1.600  16.435  1.9281  0.7371 -1.0867
 8864TIP3    H248084   1.413   1.666  16.561 -0.0354  0.3602 -0.0355
 8865TIP3   OH248085   3.495   2.526  16.903 -0.3949  0.1974  0.1823
 8865TIP3    H148086   3.487   2.499  16.994 -1.8802  1.1056  0.3549
 8865TIP3    H248087   3.570   2.585  16.902  1.5941 -2.1585  0.1823
 8866TIP3   OH248088   1.164   1.170   2.943  0.0955 -0.2080 -0.1471
 8866TIP3    H148089   1.255   1.156   2.970  0.8306 -0.8040 -2.6086
 8866TIP3    H248090   1.163   1.144   2.851 -2.6397 -0.3624 -0.1468
 8867TIP3   OH248091   3.081   2.831   2.959 -0.0974  0.0621  0.1066
 8867TIP3    H148092   3.046   2.759   2.906  0.4338  0.1145 -0.3236
 8867TIP3    H248093   3.175   2.814   2.965 -0.1874 -0.1177  1.3173
 8868TIP3   OH248094   6.555   5.905  11.043 -0.0362  0.4411  0.2959
 8868TIP3    H148095   6.554   5.883  11.136  0.8340 -1.3659 -0.0722
 8868TIP3    H248096   6.637   5.952  11.030  0.4096 -0.3267  0.2575
 8869TIP3   OH248097   6.399   5.756   5.771 -0.2716  0.2291  0.1195
 8869TIP3    H148098   6.382   5.674   5.725 -1.3148  0.6043 -0.1800
 8869TIP3    H248099   6.314   5.782   5.805  0.5550 -0.3629  2.8619
 8870TIP3   OH248100   6.036   4.577  13.923  0.1923  0.3992 -0.2744
 8870TIP3    H148101   6.104   4.580  13.856  1.6170  1.8258  1.1786
 8870TIP3    H248102   6.082   4.553  14.003 -1.1693  0.5927  0.5899
 8871TIP3   OH248103   3.693   2.423   1.779 -0.5495 -0.2121 -0.3446
 8871TIP3    H148104   3.741   2.343   1.800 -1.6860 -0.7417  0.3586
 8871TIP3    H248105   3.745   2.494   1.817 -0.5751 -0.8211  0.8620
 8872TIP3   OH248106   6.561   3.792  15.214 -0.1155  0.3733 -0.7066
 8872TIP3    H148107   6.484   3.848  15.213 -0.0172  0.5364  0.0653
 8872TIP3    H248108   6.550   3.735  15.138 -1.1421  0.2110 -0.4556
 8873TIP3   OH248109   1.200   0.194   1.902  0.2131  0.1092  0.2564
 8873TIP3    H148110   1.251   0.176   1.823  0.3578 -0.5488  0.4892
 8873TIP3    H248111   1.129   0.130   1.899 -0.0232  0.3623  0.4441
 8874TIP3   OH248112   3.771   1.443   5.960 -0.2191  0.6118 -0.1763
 8874TIP3    H148113   3.681   1.430   5.991 -0.4110  0.1571 -0.9064
 8874TIP3    H248114   3.770   1.412   5.870  1.4121 -2.4928  0.7317
 8875TIP3   OH248115   5.386   1.188   1.882 -0.5285  0.7618 -0.2025
 8875TIP3    H148116   5.363   1.139   1.961 -0.5922  0.5358 -0.3580
 8875TIP3    H248117   5.444   1.258   1.912 -1.3498  1.2896  0.1810
 8876TIP3   OH248118   0.627   1.363  14.158 -0.6152  0.1487  0.2143
 8876TIP3    H148119   0.546   1.319  14.183 -0.1292 -1.3455 -0.7460
 8876TIP3    H248120   0.606   1.457  14.162 -2.0621 -0.1970  1.0072
 8877TIP3   OH248121   4.546   6.561   4.697 -0.5374 -0.5301 -0.2348
 8877TIP3    H148122   4.548   6.561   4.792  1.5327 -0.1914 -0.2436
 8877TIP3    H248123   4.543   6.653   4.673  0.5696 -0.5549 -0.4954
 8878TIP3   OH248124   0.319   6.660  10.537 -0.0669  0.2660  0.0311
 8878TIP3    H148125   0.393   6.683  10.594  0.6219  0.1382 -0.8072
 8878TIP3    H248126   0.285   6.579  10.574  0.8629 -0.2346 -0.1845
 8879TIP3   OH248127   2.405   6.022   0.476  0.1851 -0.1479  0.0559
 8879TIP3    H148128   2.335   6.077   0.440 -0.0806  0.6107  1.6410
 8879TIP3    H248129   2.395   6.030   0.571  1.6932 -0.9840  0.3115
 8880TIP3   OH248130   4.563   2.217   5.691 -0.4553 -0.3546  0.2359
 8880TIP3    H148131   4.629   2.153   5.665  0.2432  0.7771 -0.9319
 8880TIP3    H248132   4.603   2.266   5.762  0.0319  0.3941 -0.5354
 8881TIP3   OH248133   0.148   5.292   0.494  0.4239  0.1612  0.4334
 8881TIP3    H148134   0.146   5.209   0.542  1.3245  0.7607  1.5366
 8881TIP3    H248135   0.057   5.323   0.496  0.1612 -0.5785  0.3862
 8882TIP3   OH248136   0.213   2.676  12.826 -0.4537 -0.1592  0.0166
 8882TIP3    H148137   0.147   2.698  12.891  0.9673  1.3508  1.0267
 8882TIP3    H248138   0.283   2.739  12.840  1.1270 -1.5490 -1.1476
 8883TIP3   OH248139   3.226   5.069  16.176 -0.0722 -0.6237 -0.0507
 8883TIP3    H148140   3.291   5.135  16.197 -2.3018  1.3234  1.2880
 8883TIP3    H248141   3.163   5.115  16.120 -1.9155 -1.3983  1.2701
 8884TIP3   OH248142   0.034   2.488  13.934  0.4092  0.1766 -0.3499
 8884TIP3    H148143   0.110   2.472  13.878  0.2448  0.9353 -0.8190
 8884TIP3    H248144  -0.010   2.403  13.942  1.2170 -0.2297 -0.2059
 8885TIP3   OH248145   1.290   4.515  14.352  0.5209 -0.0825 -0.2914
 8885TIP3    H148146   1.355   4.560  14.299  1.7351 -1.6530 -0.2206
 8885TIP3    H248147   1.206   4.556  14.329  0.9399 -0.8649 -3.5969
 8886TIP3   OH248148   4.865   3.624   5.850 -0.0080 -0.2333 -0.2216
 8886TIP3    H148149   4.910   3.584   5.925 -0.5906 -1.0157 -0.2729
 8886TIP3    H248150   4.818   3.551   5.809  1.0406 -0.0169 -1.9185
 8887TIP3   OH248151   6.533   3.582   6.147  0.2092 -0.2517  0.2617
 8887TIP3    H148152   6.537   3.677   6.148 -0.4444 -0.2108  1.0082
 8887TIP3    H248153   6.612   3.554   6.101  0.0273  0.6637 -0.6339
 8888TIP3   OH248154   1.018   2.063   5.750  0.4347 -0.0718 -0.0640
 8888TIP3    H148155   1.021   2.156   5.774  1.5630 -0.1878  0.3198
 8888TIP3    H248156   0.991   2.019   5.831  1.4884 -0.2110  0.2258
 8889TIP3   OH248157   6.492   0.152  15.364  0.4007  0.2734  0.0233
 8889TIP3    H148158   6.521   0.142  15.455 -1.2967  0.0369  0.5825
 8889TIP3    H248159   6.545   0.089  15.315  0.0323 -1.0022  1.1818
 8890TIP3   OH248160   3.282   2.078   5.040 -0.3259  0.2809  0.0678
 8890TIP3    H148161   3.235   2.088   4.957 -0.9539  0.3739  0.4296
 8890TIP3    H248162   3.290   1.984   5.053  0.9404  0.2585 -0.7428
 8891TIP3   OH248163   2.382   3.552  13.574 -0.3728  0.3837  0.5299
 8891TIP3    H148164   2.313   3.512  13.628  0.6411 -1.1317  0.7777
 8891TIP3    H248165   2.449   3.577  13.637  0.6592 -1.0598  0.0713
 8892TIP3   OH248166   1.874   3.472  11.302 -0.7785 -0.2283  0.0206
 8892TIP3    H148167   1.926   3.392  11.311 -0.4523  0.0089  0.2566
 8892TIP3    H248168   1.925   3.528  11.243 -0.6073  0.1320  0.5021
 8893TIP3   OH248169   1.487   3.973   6.581 -0.2672  0.3117 -0.2007
 8893TIP3    H148170   1.535   4.030   6.521 -0.5888 -0.5717 -1.3125
 8893TIP3    H248171   1.545   3.897   6.594 -0.4454  0.2328  0.1678
 8894TIP3   OH248172   3.335   5.577   4.865 -0.2762  0.1696 -0.1927
 8894TIP3    H148173   3.380   5.531   4.936 -1.3338  0.4908  0.7045
 8894TIP3    H248174   3.242   5.561   4.881 -0.5269  0.0651 -1.6419
 8895TIP3   OH248175   4.854   4.458  14.555 -0.3493 -0.0451  0.7101
 8895TIP3    H148176   4.767   4.437  14.522 -0.1377 -0.1730  0.2227
 8895TIP3    H248177   4.866   4.401  14.630 -1.1019  0.7204  1.4397
 8896TIP3   OH248178   4.776   3.773   6.367  0.5438 -0.2278  0.2304
 8896TIP3    H148179   4.724   3.815   6.436 -0.6900 -0.5977 -0.4383
 8896TIP3    H248180   4.718   3.705   6.332  2.0295 -1.6628  0.4343
 8897TIP3   OH248181   1.665   1.673  11.588 -0.1456  0.2620  0.5121
 8897TIP3    H148182   1.645   1.582  11.612 -0.0908  0.0570 -0.1734
 8897TIP3    H248183   1.639   1.678  11.496 -0.3387  1.0043  0.6077
 8898TIP3   OH248184   4.086   6.050  15.800  0.2386 -0.1554  0.1020
 8898TIP3    H148185   4.063   5.958  15.816 -1.4486 -0.0289 -1.2620
 8898TIP3    H248186   4.181   6.053  15.807  0.3195 -1.9887  0.2264
 8899TIP3   OH248187   0.443   5.956   1.759  0.4822 -0.1442  0.2518
 8899TIP3    H148188   0.509   6.025   1.762 -0.8246  1.1282  0.5141
 8899TIP3    H248189   0.389   5.977   1.683 -0.1202 -0.7022  0.5162
 8900TIP3   OH248190   1.011   6.334   3.225  0.2173 -0.5530  0.8364
 8900TIP3    H148191   1.042   6.408   3.173 -3.8473  1.2955  0.6662
 8900TIP3    H248192   0.995   6.370   3.312 -1.6289 -1.1813  0.8195
 8901TIP3   OH248193   2.971   4.273   0.882 -0.2204 -0.4091 -0.1931
 8901TIP3    H148194   2.951   4.188   0.842 -1.6077  0.3954 -1.2750
 8901TIP3    H248195   2.887   4.306   0.912  0.2218  0.8641 -0.3089
 8902TIP3   OH248196   5.091   0.487  14.363  0.1144  0.3302  0.9117
 8902TIP3    H148197   5.067   0.554  14.428 -0.7224  0.5241  0.4144
 8902TIP3    H248198   5.111   0.537  14.284 -1.2816 -0.0266  0.2991
 8903TIP3   OH248199   1.009   1.701   2.480  0.4222 -0.3966 -0.1688
 8903TIP3    H148200   0.985   1.686   2.388  0.4851  0.6265 -0.3545
 8903TIP3    H248201   1.077   1.768   2.477 -0.0264  0.1052  0.6643
 8904TIP3   OH248202   5.741   1.849   1.582  0.0893  0.3140 -0.3639
 8904TIP3    H148203   5.664   1.904   1.570 -1.4412 -1.6704 -0.2775
 8904TIP3    H248204   5.746   1.797   1.501  0.0890 -1.0020  0.4492
 8905TIP3   OH248205   2.209   6.238   6.202 -0.2955  0.0788  0.3176
 8905TIP3    H148206   2.123   6.215   6.165 -0.6002  0.7546  0.5921
 8905TIP3    H248207   2.213   6.333   6.196  1.0733 -0.0394 -1.0655
 8906TIP3   OH248208   5.948   1.054   4.770  0.0827 -0.0492 -1.2064
 8906TIP3    H148209   6.042   1.038   4.757  0.0842  0.2801 -1.6090
 8906TIP3    H248210   5.944   1.144   4.803 -0.0314 -0.3608 -0.3405
 8907TIP3   OH248211   2.356   6.195   2.170  0.1785  0.5679  0.4149
 8907TIP3    H148212   2.363   6.108   2.209  1.5192  0.3809 -0.1878
 8907TIP3    H248213   2.349   6.179   2.076  0.0428  1.0924  0.3320
 8908TIP3   OH248214   1.197   6.866  11.253  0.1248  0.7429 -0.2290
 8908TIP3    H148215   1.139   6.899  11.185  2.0404  1.4955 -1.6035
 8908TIP3    H248216   1.182   6.772  11.255  0.9199  0.5046 -2.6931
 8909TIP3   OH248217   6.642   0.038   5.649 -0.0028  0.0205 -0.3656
 8909TIP3    H148218   6.700  -0.030   5.682 -0.2176  0.1419  0.2688
 8909TIP3    H248219   6.697   0.090   5.591  0.4520 -0.0323  0.0136
 8910TIP3   OH248220   4.417   4.400   1.958  0.2119 -0.6544 -0.4946
 8910TIP3    H148221   4.358   4.447   2.017  1.0222  0.9815 -0.9264
 8910TIP3    H248222   4.484   4.363   2.016 -0.4180 -1.2787 -0.1512
 8911TIP3   OH248223   2.412   2.648   6.177 -0.4794 -0.0902  0.2204
 8911TIP3    H148224   2.339   2.632   6.237 -0.1825  0.8060  0.8531
 8911TIP3    H248225   2.450   2.731   6.208  0.2004 -0.0475 -0.6984
 8912TIP3   OH248226   5.659   2.114   2.641  0.9682 -0.5617  0.0844
 8912TIP3    H148227   5.633   2.147   2.727  0.3075 -0.8681  0.0165
 8912TIP3    H248228   5.717   2.041   2.660 -0.4509 -1.6847  0.3436
 8913TIP3   OH248229   6.370   5.425  15.910 -0.6277  0.4513  0.2946
 8913TIP3    H148230   6.455   5.399  15.875 -0.7408  2.3012 -1.5806
 8913TIP3    H248231   6.381   5.424  16.005  0.5883 -2.0523  0.2088
 8914TIP3   OH248232   4.390   5.857  13.719  0.2693  0.7763 -0.6938
 8914TIP3    H148233   4.294   5.848  13.723  0.4210 -0.7464  0.3931
 8914TIP3    H248234   4.421   5.769  13.697  1.5480  0.4606  1.9901
 8915TIP3   OH248235   0.686   6.814   0.759  0.3546 -0.0925 -0.0219
 8915TIP3    H148236   0.651   6.876   0.822  0.8760  0.6500 -0.4457
 8915TIP3    H248237   0.612   6.756   0.739 -0.6986  1.4990 -0.9731
 8916TIP3   OH248238   0.088   2.077   1.464 -0.2709 -0.0727 -0.3357
 8916TIP3    H148239   0.112   1.986   1.445  0.0010 -0.1077  0.1489
 8916TIP3    H248240  -0.007   2.078   1.460 -0.2803 -0.4005 -0.2715
 8917TIP3   OH248241   3.436   5.160  12.177  0.1824  0.0845 -0.6886
 8917TIP3    H148242   3.476   5.160  12.090 -0.4537  1.1500 -1.0041
 8917TIP3    H248243   3.342   5.169  12.159  0.1463  1.6178  0.1212
 8918TIP3   OH248244   1.718   0.877   3.092  0.0351 -0.2367 -0.0670
 8918TIP3    H148245   1.704   0.930   3.170 -0.2286 -0.3387 -0.0444
 8918TIP3    H248246   1.759   0.937   3.030 -1.7083  0.4563 -0.6058
 8919TIP3   OH248247   0.642   4.389  11.261  0.1545  0.0402 -0.6367
 8919TIP3    H148248   0.638   4.423  11.171 -3.2582  2.5932  0.2607
 8919TIP3    H248249   0.613   4.298  11.254  0.0868  0.1455 -2.1114
 8920TIP3   OH248250   4.678   3.058  11.623  0.4331 -0.0113 -0.6240
 8920TIP3    H148251   4.728   2.984  11.656  0.4495  0.7831  1.2521
 8920TIP3    H248252   4.614   3.020  11.564 -0.2555 -1.6693  1.0964
 8921TIP3   OH248253   3.580   2.996  11.741  0.0397  0.2638 -0.1479
 8921TIP3    H148254   3.532   2.938  11.683  0.5423 -0.1399 -0.1660
 8921TIP3    H248255   3.531   3.078  11.738 -1.9861 -0.7907  1.6294
 8922TIP3   OH248256   6.539   1.355  14.763  0.3391 -0.2605  0.1437
 8922TIP3    H148257   6.564   1.282  14.819  1.2464 -1.2976 -1.5364
 8922TIP3    H248258   6.609   1.419  14.775  0.5793 -0.5169  0.1158
 8923TIP3   OH248259   5.328   4.687  14.435  0.1244 -0.2100  0.3336
 8923TIP3    H148260   5.384   4.656  14.364  0.9166 -3.0236  2.0552
 8923TIP3    H248261   5.385   4.744  14.487 -0.2573  1.2859 -0.8153
 8924TIP3   OH248262   5.247   0.267   5.569  0.1309 -0.1620 -0.2449
 8924TIP3    H148263   5.230   0.182   5.609 -1.0397 -0.2243 -0.8222
 8924TIP3    H248264   5.190   0.268   5.491  0.1660  1.1220 -0.2657
 8925TIP3   OH248265   1.257   4.994  15.071  0.0579 -0.1363 -0.5013
 8925TIP3    H148266   1.200   5.029  15.003 -0.6693  0.7395  0.5119
 8925TIP3    H248267   1.199   4.942  15.127  0.6351 -0.8212 -0.5187
 8926TIP3   OH248268   5.406   4.006  15.278  0.5302  0.0513  0.1492
 8926TIP3    H148269   5.319   3.967  15.266  0.7242 -0.1375 -0.7221
 8926TIP3    H248270   5.445   4.006  15.191  2.4659 -2.3562  0.8715
 8927TIP3   OH248271   2.078   1.054  14.290  0.2665 -0.1581 -0.1344
 8927TIP3    H148272   1.989   1.071  14.320 -0.2619  1.5379 -2.3754
 8927TIP3    H248273   2.101   0.970  14.329 -1.4703  0.3820  2.2486
 8928TIP3   OH248274   3.506   2.390   3.225  0.2284  0.2173 -0.3119
 8928TIP3    H148275   3.601   2.383   3.239 -0.0016 -0.1309  1.3327
 8928TIP3    H248276   3.488   2.336   3.149  1.0981 -1.4538  0.6171
 8929TIP3   OH248277   2.369   5.130   6.240  0.1475 -0.2711  0.2380
 8929TIP3    H148278   2.464   5.141   6.244 -0.1278  2.5019  3.6176
 8929TIP3    H248279   2.353   5.047   6.286  0.8656  0.5813  2.1195
 8930TIP3   OH248280   1.015   6.133   4.785 -0.0596  0.2902 -0.1278
 8930TIP3    H148281   1.074   6.101   4.718  0.8810  0.0900  0.7694
 8930TIP3    H248282   1.046   6.222   4.805 -0.4523  0.4235 -0.1030
 8931TIP3   OH248283   2.635   2.594  11.177 -0.3350 -0.4090  0.1356
 8931TIP3    H148284   2.602   2.543  11.103  1.5832 -1.0405 -0.3405
 8931TIP3    H248285   2.729   2.578  11.177 -0.0569  0.9679  1.6750
 8932TIP3   OH248286   2.060   4.029  11.312  0.1781 -0.6873 -0.1387
 8932TIP3    H148287   1.979   3.985  11.288 -0.6885  0.0754  1.2574
 8932TIP3    H248288   2.117   3.959  11.344 -0.9399 -0.9573  1.4097
 8933TIP3   OH248289   6.655   4.183   4.923  0.3459 -0.0469  0.0700
 8933TIP3    H148290   6.744   4.157   4.951  0.4466 -1.3827 -1.3777
 8933TIP3    H248291   6.603   4.104   4.934 -0.3270  0.3057 -0.5178
 8934TIP3   OH248292   2.257   6.887  14.389  0.3013  0.6775  0.0504
 8934TIP3    H148293   2.236   6.979  14.406 -2.4305  0.2489 -0.6139
 8934TIP3    H248294   2.248   6.877  14.295 -0.2458 -0.4353  0.2033
 8935TIP3   OH248295   4.761   3.786   1.309  0.0458  0.4453  0.5369
 8935TIP3    H148296   4.801   3.742   1.385  1.0426  1.3789  0.5797
 8935TIP3    H248297   4.775   3.726   1.236  0.2192  0.1083  0.8447
 8936TIP3   OH248298   5.119   5.826   5.849  0.2255 -0.2155 -0.2652
 8936TIP3    H148299   5.139   5.867   5.933  1.0800 -0.4613 -0.3364
 8936TIP3    H248300   5.067   5.748   5.873 -0.8342  0.5224 -0.0877
 8937TIP3   OH248301   4.169   6.653  16.208 -0.3771  0.2267  0.0878
 8937TIP3    H148302   4.228   6.603  16.150  0.7174  0.4382  0.9888
 8937TIP3    H248303   4.116   6.586  16.251 -2.3697  0.1354 -2.3086
 8938TIP3   OH248304   4.189   4.707   5.018  0.3588 -0.0722  0.0507
 8938TIP3    H148305   4.209   4.614   5.015  0.2146 -0.2271  2.2286
 8938TIP3    H248306   4.094   4.712   5.007  0.6029  0.0412 -2.3890
 8939TIP3   OH248307   4.779   0.446   4.967 -1.0099  0.6021 -0.2025
 8939TIP3    H148308   4.723   0.492   4.905 -0.6099 -0.7780 -1.6556
 8939TIP3    H248309   4.781   0.355   4.936 -0.1411  0.0229  1.3734
 8940TIP3   OH248310   4.145   4.427  12.306  0.0285 -0.1386  0.0786
 8940TIP3    H148311   4.121   4.399  12.394 -3.1329  1.3942 -0.1734
 8940TIP3    H248312   4.063   4.425  12.257  1.2454  1.3551 -2.1756
 8941TIP3   OH248313   4.544   1.213   0.006  0.0498 -0.1019  0.4042
 8941TIP3    H148314   4.611   1.196  -0.060  0.0088 -1.5888  0.7010
 8941TIP3    H248315   4.564   1.300   0.039  0.9391  0.0766 -0.5480
 8942TIP3   OH248316   6.680   2.580   4.156  0.6628  0.1830  0.1384
 8942TIP3    H148317   6.724   2.649   4.204 -0.1410  1.0918 -0.3932
 8942TIP3    H248318   6.673   2.507   4.218  0.8598  0.8449  0.9455
 8943TIP3   OH248319   6.810   1.885  14.120 -0.5011 -0.4807  0.2238
 8943TIP3    H148320   6.720   1.852  14.110 -0.2081 -1.3955  0.5634
 8943TIP3    H248321   6.850   1.870  14.035 -0.5855 -0.3184  0.1541
 8944TIP3   OH248322   3.769   5.158  14.324 -0.3773  0.6518  0.0110
 8944TIP3    H148323   3.725   5.089  14.374 -0.9950  0.5378 -0.6726
 8944TIP3    H248324   3.745   5.239  14.368  0.4613  0.4362  0.9013
 8945TIP3   OH248325   5.098   3.142  14.426 -0.3054  0.1499 -0.4536
 8945TIP3    H148326   5.157   3.202  14.379 -0.0458 -0.2581 -0.6519
 8945TIP3    H248327   5.024   3.197  14.451 -0.3401  0.4338 -1.1360
 8946TIP3   OH248328   4.124   4.818  12.450  0.0050  0.0568  0.0155
 8946TIP3    H148329   4.096   4.774  12.530 -1.2400  1.5061  0.4300
 8946TIP3    H248330   4.199   4.871  12.477 -2.7180  3.6526  1.3500
 8947TIP3   OH248331   3.700   6.797   2.713 -0.5393 -0.3898 -0.1991
 8947TIP3    H148332   3.757   6.812   2.789 -0.6541  0.7553 -0.3284
 8947TIP3    H248333   3.630   6.741   2.747 -0.0878 -0.6600  0.3063
 8948TIP3   OH248334   4.312   5.604   2.095 -0.5474  0.5257 -0.1338
 8948TIP3    H148335   4.308   5.642   2.007 -0.7313  0.5130 -0.1303
 8948TIP3    H248336   4.361   5.522   2.083 -0.0155  0.8354 -0.1137
 8949TIP3   OH248337   3.524   2.520  16.166  0.4573 -0.1346 -0.1727
 8949TIP3    H148338   3.542   2.544  16.075  0.5268  1.7723  0.2978
 8949TIP3    H248339   3.454   2.579  16.193  1.9159  0.8879  1.6308
 8950TIP3   OH248340   6.029   5.617   3.247 -0.0255  0.2917 -0.0134
 8950TIP3    H148341   6.005   5.640   3.337 -1.2173 -0.5144 -0.0930
 8950TIP3    H248342   5.975   5.674   3.193  0.2134  0.3313 -0.2074
 8951TIP3   OH248343   0.418   4.970   3.307 -0.1672  0.2742 -0.5464
 8951TIP3    H148344   0.368   4.933   3.379  1.4355 -0.8734  0.0391
 8951TIP3    H248345   0.411   5.065   3.318  1.8917  0.2152  2.5640
 8952TIP3   OH248346   5.902   4.580   5.730 -0.2691 -0.0643  0.4354
 8952TIP3    H148347   5.964   4.584   5.803 -0.3003  1.3220  0.4119
 8952TIP3    H248348   5.950   4.616   5.656 -0.2868 -1.3259 -0.2180
 8953TIP3   OH248349   4.416   0.121  14.788 -0.0696  0.6858 -0.2273
 8953TIP3    H148350   4.486   0.092  14.729  0.5781 -1.1249  1.3085
 8953TIP3    H248351   4.462   0.169  14.857 -0.3446 -0.2150  0.6065
 8954TIP3   OH248352   5.879   1.118  12.000  0.3734  0.1573 -0.2146
 8954TIP3    H148353   5.881   1.166  11.918  0.3548  0.5438  0.0106
 8954TIP3    H248354   5.959   1.144  12.046 -0.1706  0.8078  0.3800
 8955TIP3   OH248355   5.826   0.438   5.876 -0.0730  0.9613 -0.5606
 8955TIP3    H148356   5.918   0.464   5.886 -0.0521  0.4848  0.5716
 8955TIP3    H248357   5.780   0.484   5.947 -0.3313 -0.6240  0.3328
 8956TIP3   OH248358   5.738   5.984  16.063  0.6055 -0.5023 -0.3577
 8956TIP3    H148359   5.744   5.948  15.974  1.6871 -2.2820  0.3764
 8956TIP3    H248360   5.646   5.970  16.088 -0.1697  1.5971 -1.7605
 8957TIP3   OH248361   0.181   4.822  14.354  0.1807  0.0142  0.4361
 8957TIP3    H148362   0.127   4.748  14.380  0.7145  0.0304  1.6911
 8957TIP3    H248363   0.138   4.898  14.395  0.4457  0.1954  0.3805
 8958TIP3   OH248364   0.604   6.884   2.040  0.0763  0.8558 -0.6180
 8958TIP3    H148365   0.671   6.952   2.039  1.3678 -0.3733 -0.9681
 8958TIP3    H248366   0.630   6.826   2.112 -0.6882  0.4197 -0.6806
 8959TIP3   OH248367   0.594   3.156   2.805  0.6633 -0.1430 -0.1478
 8959TIP3    H148368   0.620   3.238   2.847  2.1996 -0.8291  0.3472
 8959TIP3    H248369   0.566   3.100   2.877 -1.0069  0.1366 -0.5503
 8960TIP3   OH248370   2.884   3.992   2.720  0.5819 -0.0058  0.4565
 8960TIP3    H148371   2.883   3.904   2.757  2.7071 -0.6533 -0.8284
 8960TIP3    H248372   2.811   3.993   2.658  0.5380 -0.8734  0.4832
 8961TIP3   OH248373   3.488   1.065   1.847 -0.0142  0.9511 -0.0795
 8961TIP3    H148374   3.551   1.086   1.779 -0.2254 -0.9627 -0.9423
 8961TIP3    H248375   3.532   1.090   1.929  1.5398  0.4653 -0.7159
 8962TIP3   OH248376   4.492   4.491  16.518  0.2190 -0.5135 -0.3906
 8962TIP3    H148377   4.410   4.449  16.490  0.1911 -0.4413 -0.4156
 8962TIP3    H248378   4.560   4.435  16.482  0.2585  1.2831 -3.3661
 8963TIP3   OH248379   5.332   1.545  12.071 -0.2045  0.1935  0.2746
 8963TIP3    H148380   5.274   1.615  12.102  0.1558 -0.1927  1.8956
 8963TIP3    H248381   5.277   1.467  12.072 -0.0680  0.0994  0.3334
 8964TIP3   OH248382   5.239   0.252  15.561 -0.0208  0.1663  0.1299
 8964TIP3    H148383   5.181   0.298  15.501  1.0581 -0.3761 -1.3922
 8964TIP3    H248384   5.325   0.256  15.519  0.8034 -0.1047  1.7252
 8965TIP3   OH248385   2.563   2.074  15.766  0.4037 -0.1059 -0.1916
 8965TIP3    H148386   2.590   2.015  15.837  2.0339 -1.3173 -1.7368
 8965TIP3    H248387   2.550   2.017  15.691  0.6341  1.3587 -1.3808
 8966TIP3   OH248388   1.561   0.022   5.732  0.1160 -0.2207  0.1874
 8966TIP3    H148389   1.593  -0.061   5.768  2.3969  1.2036  1.7135
 8966TIP3    H248390   1.512   0.062   5.804  0.4931  0.4928  0.0495
 8967TIP3   OH248391   2.946   1.275   0.904 -0.3713  0.2276 -0.1525
 8967TIP3    H148392   2.988   1.360   0.887 -0.0709  0.2601  0.6848
 8967TIP3    H248393   2.892   1.259   0.827  1.4873 -0.0038 -1.4934
 8968TIP3   OH248394   5.679   2.342  15.131 -0.2437  0.1051 -0.3477
 8968TIP3    H148395   5.745   2.349  15.200  1.4961  0.6125 -1.9833
 8968TIP3    H248396   5.688   2.422  15.080  0.0179 -1.1576 -2.4146
 8969TIP3   OH248397   5.061   1.378   3.484  0.1596 -0.5460  0.6299
 8969TIP3    H148398   5.003   1.452   3.502 -0.3069 -0.6958 -0.2118
 8969TIP3    H248399   5.119   1.374   3.560 -0.7055 -0.1760  1.3261
 8970TIP3   OH248400   0.272   6.774   2.949  0.3594 -0.1173 -0.1674
 8970TIP3    H148401   0.258   6.777   3.043  0.8635  0.4357 -0.1051
 8970TIP3    H248402   0.361   6.809   2.936  0.3525 -0.3184 -0.8318
 8971TIP3   OH248403   5.278   3.243  11.648 -0.4136 -0.4431  0.0951
 8971TIP3    H148404   5.318   3.185  11.584 -0.7029 -0.6857  0.1315
 8971TIP3    H248405   5.345   3.310  11.665 -0.3501 -0.3552 -0.4837
 8972TIP3   OH248406   2.931   0.815   5.958  0.4336  0.1449 -0.1573
 8972TIP3    H148407   2.984   0.757   6.013 -0.5049 -0.0063  0.6014
 8972TIP3    H248408   2.867   0.853   6.018 -0.6596 -0.0745 -1.1450
 8973TIP3   OH248409   6.409   6.165   5.306 -0.1958  0.5375  0.1152
 8973TIP3    H148410   6.352   6.236   5.335  0.2349  1.0954 -0.3765
 8973TIP3    H248411   6.458   6.203   5.233 -0.5655 -0.5285 -0.7033
 8974TIP3   OH248412   1.008   0.139  15.084  0.3355  0.4353 -0.3887
 8974TIP3    H148413   0.961   0.215  15.051  0.9016  0.2572 -1.6766
 8974TIP3    H248414   1.059   0.173  15.158 -0.7607  0.9062  0.1681
 8975TIP3   OH248415   6.776   4.245  15.648 -0.5095 -0.3710 -0.0364
 8975TIP3    H148416   6.695   4.287  15.619  0.1516  1.0219  0.0522
 8975TIP3    H248417   6.786   4.273  15.739  1.1155  1.2101 -0.6399
 8976TIP3   OH248418   5.484   5.504  12.776 -0.3900 -0.4907 -0.1774
 8976TIP3    H148419   5.446   5.518  12.863  1.0761  0.3359  0.3712
 8976TIP3    H248420   5.475   5.589  12.732 -1.6395 -1.0567 -1.0774
 8977TIP3   OH248421   1.216   0.648  14.165 -0.1332 -0.2075 -0.1172
 8977TIP3    H148422   1.311   0.652  14.153 -0.3913 -1.2052 -3.3337
 8977TIP3    H248423   1.187   0.739  14.159  0.5695  0.0962  0.7854
 8978TIP3   OH248424   1.333   1.706  11.291  0.3198 -0.2749 -0.0296
 8978TIP3    H148425   1.318   1.711  11.385  0.6589  0.6899 -0.0146
 8978TIP3    H248426   1.292   1.786  11.256 -0.9785 -1.2729 -0.8766
 8979TIP3   OH248427   1.680   4.124   3.322 -0.3961 -0.0529  0.0418
 8979TIP3    H148428   1.673   4.076   3.239  0.5518 -0.1386 -0.0076
 8979TIP3    H248429   1.713   4.059   3.384  1.0177  0.5305 -0.0538
 8980TIP3   OH248430   1.251   3.654   1.507  0.3197 -0.0657 -0.6094
 8980TIP3    H148431   1.248   3.575   1.454 -0.2043  0.3656 -1.2407
 8980TIP3    H248432   1.335   3.649   1.554  1.6334  0.3827 -2.7810
 8981TIP3   OH248433   2.646   1.081  15.658 -0.1204  0.4947  0.0194
 8981TIP3    H148434   2.558   1.052  15.684 -0.9947  0.9357 -2.1962
 8981TIP3    H248435   2.682   1.008  15.607  0.3205  0.7699 -0.0702
 8982TIP3   OH248436   6.383   0.080  14.020 -0.3692  0.5745  0.1782
 8982TIP3    H148437   6.448   0.137  13.978  0.7973  0.6868  2.0264
 8982TIP3    H248438   6.396  -0.005  13.980  1.1257  0.5356  0.6789
 8983TIP3   OH248439   2.681   0.546   2.759 -0.0798  0.6899  0.2447
 8983TIP3    H148440   2.765   0.512   2.791  0.6419  1.0587 -1.1763
 8983TIP3    H248441   2.683   0.531   2.665 -1.3616  1.2501  0.1025
 8984TIP3   OH248442   2.636   3.347  14.618  0.3966  0.1196  0.2242
 8984TIP3    H148443   2.681   3.431  14.618 -0.4061  0.5714  1.2886
 8984TIP3    H248444   2.547   3.367  14.647  1.0909 -1.4935  4.2459
 8985TIP3   OH248445   2.030   1.083  11.952 -0.3644 -0.5290 -0.1135
 8985TIP3    H148446   2.067   1.127  12.029  3.2035  0.5446 -2.2022
 8985TIP3    H248447   1.975   1.150  11.911  0.0044 -0.1279  0.0299
 8986TIP3   OH248448   2.230   3.133   2.910  0.1021 -1.0853 -0.1374
 8986TIP3    H148449   2.210   3.226   2.919 -1.7364 -1.5436  1.0438
 8986TIP3    H248450   2.175   3.103   2.837  1.2437 -1.1216 -1.0056
 8987TIP3   OH248451   6.285   4.842  13.998  0.3905 -0.3126 -0.2739
 8987TIP3    H148452   6.291   4.937  14.007  0.8367 -0.3916  0.3097
 8987TIP3    H248453   6.247   4.829  13.911  0.2441  0.3996 -0.3260
 8988TIP3   OH248454   2.366   6.235   3.326  0.3555  0.2271 -0.6966
 8988TIP3    H148455   2.456   6.224   3.358 -0.0313  0.5449  0.5657
 8988TIP3    H248456   2.365   6.322   3.286  0.6321  0.1867 -0.7953
 8989TIP3   OH248457   5.418   5.409  15.417 -0.1243 -0.1746 -0.2018
 8989TIP3    H148458   5.501   5.456  15.410 -0.5171  0.3674 -1.5654
 8989TIP3    H248459   5.365   5.461  15.478 -0.4577  1.0630 -1.4904
 8990TIP3   OH248460   2.616   5.676   2.333 -0.3874 -0.6301 -0.3636
 8990TIP3    H148461   2.687   5.721   2.287 -0.8659 -1.3487 -1.8710
 8990TIP3    H248462   2.658   5.602   2.376 -0.1794 -0.9394 -1.0877
 8991TIP3   OH248463   2.518   5.777  13.931 -0.1809  0.0228  0.7159
 8991TIP3    H148464   2.478   5.770  14.017 -1.1576  1.0574  0.3775
 8991TIP3    H248465   2.562   5.862  13.932  0.7347 -0.4350  0.5552
 8992TIP3   OH248466   3.251   4.824   4.892 -0.5298  0.0604  0.2535
 8992TIP3    H148467   3.298   4.880   4.955  0.6754 -0.0437 -0.5268
 8992TIP3    H248468   3.252   4.874   4.811  0.8038 -1.1598 -0.5371
 8993TIP3   OH248469   4.086   0.713  14.273 -0.4743  0.7190  0.2012
 8993TIP3    H148470   4.004   0.681  14.236 -1.5901  2.6580  0.8675
 8993TIP3    H248471   4.071   0.716  14.367  0.5354  0.6928  0.3803
 8994TIP3   OH248472   3.964   5.210   0.939  0.3674 -0.3016 -0.2028
 8994TIP3    H148473   3.907   5.287   0.936  0.6668  0.0863  2.2542
 8994TIP3    H248474   4.046   5.241   0.978  0.4100 -1.8593  1.0656
 8995TIP3   OH248475   1.740   2.484  15.287 -1.2588 -0.3956 -0.1625
 8995TIP3    H148476   1.790   2.436  15.222 -1.1448  0.9722 -1.1339
 8995TIP3    H248477   1.803   2.505  15.356 -0.7158  0.4096 -0.8833
 8996TIP3   OH248478   5.070   3.889   5.569  0.2257  0.0619 -0.2667
 8996TIP3    H148479   4.975   3.903   5.576  0.0527 -0.7763 -0.7595
 8996TIP3    H248480   5.088   3.895   5.475  1.2290  3.4723  0.0154
 8997TIP3   OH248481   3.004   3.484   1.217 -0.0647 -0.4156 -0.1134
 8997TIP3    H148482   2.945   3.450   1.284  1.2590 -0.2899  1.1659
 8997TIP3    H248483   3.073   3.419   1.211  2.5209  1.8071  2.3661
 8998TIP3   OH248484   0.274   1.055  12.748 -0.4094 -0.7563  0.5858
 8998TIP3    H148485   0.350   1.097  12.707  0.5230 -1.3619  1.6212
 8998TIP3    H248486   0.310   0.975  12.788 -1.5185 -0.8525  1.4371
 8999TIP3   OH248487   5.948   6.367  10.505 -0.1000  0.1301 -0.0270
 8999TIP3    H148488   5.993   6.451  10.501 -0.9948  0.5881 -0.5895
 8999TIP3    H248489   5.860   6.384  10.471 -0.4983 -0.8938  0.4361
 9000TIP3   OH248490   3.538   0.637   4.196  0.5664 -0.5418  0.1247
 9000TIP3    H148491   3.544   0.543   4.181 -1.0266 -0.8749  1.3444
 9000TIP3    H248492   3.455   0.649   4.242  1.0384  1.3890  0.5643
 9001TIP3   OH248493   1.970   1.182  12.961 -0.1605 -0.6794 -0.0563
 9001TIP3    H148494   2.007   1.145  12.881 -1.5803 -1.7297 -0.2622
 9001TIP3    H248495   2.034   1.247  12.989  0.5757 -0.5909 -1.8047
 9002TIP3   OH248496   5.708   0.683   2.581  0.4467  0.3622  0.5770
 9002TIP3    H148497   5.640   0.683   2.514 -0.2685  2.5971  1.2254
 9002TIP3    H248498   5.790   0.694   2.532  0.4480 -2.4243 -0.2131
 9003TIP3   OH248499   3.100   4.881  15.976  0.7430  0.3808  0.0324
 9003TIP3    H148500   3.171   4.883  16.039  1.0296  1.2748 -0.3092
 9003TIP3    H248501   3.021   4.879  16.029  0.9729  1.3181  0.4343
 9004TIP3   OH248502   3.096   5.921   0.454 -0.2677  0.5026  0.1599
 9004TIP3    H148503   3.084   6.015   0.471  0.4090  0.7853 -0.8267
 9004TIP3    H248504   3.177   5.899   0.499 -0.9971  0.1078  1.3347
 9005TIP3   OH248505   4.581   3.074   0.634  0.4540 -0.0890 -0.4168
 9005TIP3    H148506   4.573   2.998   0.692 -0.0140 -0.1490 -0.5595
 9005TIP3    H248507   4.657   3.053   0.579  0.1611 -0.5870 -0.6443
 9006TIP3   OH248508   2.768   2.024  16.279 -0.2668 -0.4245 -0.0171
 9006TIP3    H148509   2.736   2.023  16.188  1.3586 -1.2870 -0.6230
 9006TIP3    H248510   2.861   2.047  16.271  0.3475 -2.2354  1.2292
 9007TIP3   OH248511   4.864   4.141   2.720  0.1740  0.3292  0.3009
 9007TIP3    H148512   4.956   4.151   2.745  0.5512  1.3574 -1.3643
 9007TIP3    H248513   4.853   4.197   2.643 -1.1647 -1.7794 -1.1568
 9008TIP3   OH248514   2.373   5.345  15.509 -0.3600  0.9185  0.3442
 9008TIP3    H148515   2.375   5.385  15.596 -2.9938  0.5775  0.6455
 9008TIP3    H248516   2.376   5.251  15.526  0.6634  0.8643 -0.0565
 9009TIP3   OH248517   4.243   2.754  13.014 -0.5642 -0.0972 -0.8209
 9009TIP3    H148518   4.185   2.826  12.990 -0.6812 -0.0827 -0.5081
 9009TIP3    H248519   4.265   2.712  12.931  0.4660  1.0195 -1.1528
 9010TIP3   OH248520   3.667   4.980  14.523 -0.8124  0.4101  0.3251
 9010TIP3    H148521   3.732   4.912  14.503  0.5105  1.8765 -0.6255
 9010TIP3    H248522   3.622   4.947  14.601  1.6325 -0.3314  1.5350
 9011TIP3   OH248523   3.203   5.059  14.044  0.6665 -0.2460  0.3172
 9011TIP3    H148524   3.215   4.970  14.075  3.7824  0.1972  0.7116
 9011TIP3    H248525   3.206   5.113  14.123  1.3914  0.3614 -0.1102
 9012TIP3   OH248526   5.425   3.741   2.825 -0.4637 -0.0809  0.0532
 9012TIP3    H148527   5.476   3.780   2.895  2.9867  0.1545 -2.3483
 9012TIP3    H248528   5.477   3.666   2.796 -0.2210  1.3799 -3.9340
 9013TIP3   OH248529   3.872   1.132   0.452  0.4517 -0.4509 -0.4038
 9013TIP3    H148530   3.780   1.109   0.451 -0.1916  1.7527  0.8461
 9013TIP3    H248531   3.895   1.144   0.360 -0.8659  0.1760 -0.6771
 9014TIP3   OH248532   1.918   5.477  11.869  0.2591  0.8311 -0.7587
 9014TIP3    H148533   1.899   5.549  11.808  1.5567  0.1542 -2.0320
 9014TIP3    H248534   2.004   5.445  11.842  0.8364  0.3991  1.3861
 9015TIP3   OH248535   2.235   2.486  16.565  0.7801 -0.3269  0.2502
 9015TIP3    H148536   2.190   2.403  16.548 -0.6544  0.5085 -0.2023
 9015TIP3    H248537   2.164   2.548  16.581  1.8413  0.7727  0.7673
 9016TIP3   OH248538   5.236   1.610  11.784 -0.2378 -0.6487 -0.2279
 9016TIP3    H148539   5.265   1.628  11.873  0.1882  0.1492 -0.5210
 9016TIP3    H248540   5.274   1.524  11.763 -0.7883 -1.0895  0.5406
 9017TIP3   OH248541   5.912   0.390  14.963 -0.0982 -0.4415  0.3329
 9017TIP3    H148542   5.899   0.303  14.925 -1.0869 -1.4183  2.6842
 9017TIP3    H248543   5.824   0.424  14.975  0.2315  0.2742  0.7574
 9018TIP3   OH248544   0.247   2.631   4.386 -0.0291 -0.1097 -0.2658
 9018TIP3    H148545   0.241   2.677   4.470 -0.3391 -0.0474 -0.3200
 9018TIP3    H248546   0.194   2.552   4.399  1.6468 -1.1998  0.3090
 9019TIP3   OH248547   0.692   0.616  12.099 -0.1079 -0.1453  0.1843
 9019TIP3    H148548   0.613   0.570  12.128  0.6455 -2.2560 -0.8918
 9019TIP3    H248549   0.698   0.597  12.005  2.8984 -2.1320  0.6406
 9020TIP3   OH248550   3.537   4.314   1.488 -0.3984  0.2644 -0.4180
 9020TIP3    H148551   3.533   4.236   1.432  0.7566  0.0212 -0.2075
 9020TIP3    H248552   3.505   4.283   1.573  1.9291 -0.6092  0.2488
 9021TIP3   OH248553   0.349   2.234  12.413 -0.0484  0.2130  0.2436
 9021TIP3    H148554   0.267   2.185  12.424  0.2110 -0.5454 -0.9511
 9021TIP3    H248555   0.418   2.168  12.427  0.3112  0.2176 -1.3301
 9022TIP3   OH248556   0.801   5.577   0.444 -0.6251  0.2389 -0.0366
 9022TIP3    H148557   0.749   5.506   0.407  2.2940 -2.7719  1.0844
 9022TIP3    H248558   0.846   5.616   0.369 -0.0406 -1.1432 -0.4316
 9023TIP3   OH248559   4.278   5.310   4.014 -0.1060  0.0593  0.6831
 9023TIP3    H148560   4.310   5.228   4.051 -4.3553 -1.6561  1.1522
 9023TIP3    H248561   4.274   5.293   3.919 -1.2540 -0.4604  0.8069
 9024TIP3   OH248562   4.119   1.324   3.443  0.1136  0.5875  0.5632
 9024TIP3    H148563   4.048   1.385   3.425 -0.7807 -0.4039  0.6437
 9024TIP3    H248564   4.079   1.254   3.495  0.9479 -0.3754 -0.0356
 9025TIP3   OH248565   5.101   5.759  12.476 -0.3259  0.2770 -0.2470
 9025TIP3    H148566   5.146   5.839  12.502 -0.3233 -0.1318  1.0954
 9025TIP3    H248567   5.172   5.696  12.461 -0.3648  0.2481 -0.3102
 9026TIP3   OH248568   5.536   1.685   3.501 -0.5171 -0.3485 -0.5662
 9026TIP3    H148569   5.572   1.597   3.487 -0.7827 -0.5937  0.1955
 9026TIP3    H248570   5.588   1.720   3.573 -0.8353 -0.1359 -0.4390
 9027TIP3   OH248571   2.407   1.775  15.085  0.2125 -0.1430  0.0980
 9027TIP3    H148572   2.349   1.757  15.011  2.0406  0.7386 -1.6386
 9027TIP3    H248573   2.398   1.698  15.141 -2.9372  0.1624  0.1981
 9028TIP3   OH248574   2.682   2.950  14.130  0.1318 -0.5409  0.9248
 9028TIP3    H148575   2.647   2.935  14.042  2.8510  0.1509 -0.3668
 9028TIP3    H248576   2.694   3.045  14.136  2.2008 -0.7733  1.0875
 9029TIP3   OH248577   5.291   2.677   0.501 -0.3580 -0.4203 -0.5805
 9029TIP3    H148578   5.310   2.584   0.513 -1.7272 -0.4066  2.7505
 9029TIP3    H248579   5.264   2.707   0.587 -0.2150  3.0550 -1.6007
 9030TIP3   OH248580   4.186   4.890  16.297 -0.3060 -0.3128  0.5357
 9030TIP3    H148581   4.109   4.932  16.260  0.9022  2.0053  0.5123
 9030TIP3    H248582   4.202   4.937  16.379  1.7104  0.0486 -0.0083
 9031TIP3   OH248583   4.494   6.256  13.045  0.1448  0.2357 -0.3286
 9031TIP3    H148584   4.450   6.185  12.999 -0.2516  1.4774 -1.9247
 9031TIP3    H248585   4.583   6.256  13.011  0.4116 -0.0803  0.3580
 9032TIP3   OH248586   6.542   4.234  13.925 -0.3820 -0.1586 -0.2722
 9032TIP3    H148587   6.493   4.195  13.996 -1.3324  0.2090 -0.7118
 9032TIP3    H248588   6.602   4.295  13.967 -1.7721  0.9569  0.1612
 9033TIP3   OH248589   0.646   0.846   2.395 -0.0634 -0.4681 -0.0893
 9033TIP3    H148590   0.609   0.926   2.433  0.3619 -0.8340  1.1741
 9033TIP3    H248591   0.574   0.807   2.345 -0.7564 -0.0895  0.5896
 9034TIP3   OH248592   0.249   3.152  16.868 -0.0968 -0.0287 -0.3142
 9034TIP3    H148593   0.195   3.200  16.930  1.5684 -0.5356  1.6657
 9034TIP3    H248594   0.329   3.204  16.861  0.3149 -0.7226 -0.9134
 9035TIP3   OH248595   3.815   0.851   2.628 -0.2444  0.3639  0.0726
 9035TIP3    H148596   3.855   0.842   2.715  1.7949  1.7689 -0.6670
 9035TIP3    H248597   3.733   0.897   2.644 -0.6929 -0.8201  1.4115
 9036TIP3   OH248598   6.186   0.702   5.175  0.1772 -0.7946 -0.2652
 9036TIP3    H148599   6.228   0.689   5.260  0.1790 -1.6441 -0.3862
 9036TIP3    H248600   6.101   0.658   5.183 -0.2554  0.0106 -0.3685
 9037TIP3   OH248601   3.092   3.618  14.808 -0.1297 -0.2895 -0.6787
 9037TIP3    H148602   3.072   3.685  14.874  2.1408 -2.2137  2.2401
 9037TIP3    H248603   3.014   3.562  14.807  0.0540 -0.6490  1.0456
 9038TIP3   OH248604   0.767   5.411   3.307  0.1468 -0.3895 -0.2012
 9038TIP3    H148605   0.811   5.496   3.300  0.0560 -0.3424 -0.2110
 9038TIP3    H248606   0.680   5.427   3.271 -0.1270 -0.2962  0.4889
 9039TIP3   OH248607   1.249   4.778  14.804  0.7761 -0.4412  0.2770
 9039TIP3    H148608   1.300   4.855  14.779 -0.4366  0.3058  0.0268
 9039TIP3    H248609   1.161   4.795  14.770  0.0177 -1.1016  1.8124
 9040TIP3   OH248610   5.692   6.508  15.560 -0.6533  0.6655 -0.2169
 9040TIP3    H148611   5.712   6.602  15.557  2.6670  0.1430  1.4089
 9040TIP3    H248612   5.727   6.474  15.478 -0.9241  0.6806 -0.3408
 9041TIP3   OH248613   5.399   6.354   0.876  0.1430  0.0280  0.0491
 9041TIP3    H148614   5.432   6.426   0.931 -1.1984 -0.2661  1.2998
 9041TIP3    H248615   5.450   6.278   0.904 -1.3345 -0.3765  1.8192
 9042TIP3   OH248616   5.969   1.118   3.842  0.0121 -0.3034 -0.6902
 9042TIP3    H148617   5.910   1.094   3.771  0.5555  2.4716 -2.2365
 9042TIP3    H248618   5.915   1.167   3.903 -0.3090 -2.1225  0.5504
 9043TIP3   OH248619   0.250   2.710  12.395  0.4091  0.3279  0.2244
 9043TIP3    H148620   0.168   2.686  12.352  0.9625 -1.1925 -0.0365
 9043TIP3    H248621   0.313   2.645  12.365  1.6188  1.2053  0.7692
 9044TIP3   OH248622   3.230   4.451  12.332 -0.2714 -0.6229  0.2830
 9044TIP3    H148623   3.282   4.472  12.255 -0.6129  0.9018  0.4277
 9044TIP3    H248624   3.141   4.479  12.309 -0.4716 -0.6073  1.0406
 9045TIP3   OH248625   2.453   4.561  13.610  0.6303  0.3124  0.4051
 9045TIP3    H148626   2.362   4.530  13.619  0.3621  1.6333  3.6069
 9045TIP3    H248627   2.447   4.637  13.552 -0.3233  0.3488  0.5272
 9046TIP3   OH248628   5.400   5.110  16.355  0.3244 -0.0470  0.0530
 9046TIP3    H148629   5.340   5.180  16.332 -0.6548 -1.2965 -1.4645
 9046TIP3    H248630   5.343   5.035  16.375  1.3277 -0.4486  1.5548
 9047TIP3   OH248631   1.440   0.369  11.419  0.2059 -0.9082  0.0421
 9047TIP3    H148632   1.420   0.293  11.364  0.2571 -2.5725  2.2156
 9047TIP3    H248633   1.532   0.356  11.444 -0.2481 -1.0173  1.7335
 9048TIP3   OH248634   5.362   2.989   0.864 -0.3073 -0.6894 -0.5307
 9048TIP3    H148635   5.383   2.913   0.810 -0.2091 -2.4774  1.8919
 9048TIP3    H248636   5.268   2.982   0.880  0.1913 -2.2485  2.3280
 9049TIP3   OH248637   6.103   0.092   5.537  0.5640 -0.1370 -0.3751
 9049TIP3    H148638   6.114   0.116   5.446 -0.2773 -3.5923 -1.5725
 9049TIP3    H248639   6.082  -0.002   5.534 -0.8310 -0.1047  3.2778
 9050TIP3   OH248640   1.490   1.057  16.653  0.3042  0.5687 -0.3088
 9050TIP3    H148641   1.510   0.991  16.586 -3.7569 -0.3117 -0.8678
 9050TIP3    H248642   1.492   1.140  16.606  1.5530  0.4566 -0.5002
 9051TIP3   OH248643   2.217   2.216   1.004  0.2508  0.1368 -0.3611
 9051TIP3    H148644   2.203   2.254   0.917  2.4467 -1.4591 -1.5040
 9051TIP3    H248645   2.171   2.133   1.002 -0.9427  0.7470  0.5882
 9052TIP3   OH248646   5.958   2.364   3.482  0.4987  0.1028 -0.1350
 9052TIP3    H148647   5.902   2.379   3.558 -1.7160 -1.1191 -1.4445
 9052TIP3    H248648   5.995   2.277   3.496 -0.6178 -0.5025 -0.8369
 9053TIP3   OH248649   5.426   3.238   3.482  1.0047 -0.3226 -0.2668
 9053TIP3    H148650   5.480   3.313   3.507  0.1159  0.2414 -0.0258
 9053TIP3    H248651   5.479   3.162   3.507  1.3654  0.2218  0.6769
 9054TIP3   OH248652   1.673   2.020   3.271 -0.3065 -0.3092 -0.4533
 9054TIP3    H148653   1.627   2.033   3.355  0.0100 -2.9275  0.2253
 9054TIP3    H248654   1.679   1.925   3.262  1.6519 -0.0753 -2.3890
 9055TIP3   OH248655   4.568   5.761   0.776 -0.4659  0.4964  0.1035
 9055TIP3    H148656   4.572   5.851   0.745  0.0306  0.0742 -1.0980
 9055TIP3    H248657   4.533   5.768   0.865  0.2917  1.9379  0.3200
 9056TIP3   OH248658   5.537   2.661   3.850  0.0706 -0.2961  0.4131
 9056TIP3    H148659   5.520   2.735   3.791 -1.4120 -0.7941  0.1618
 9056TIP3    H248660   5.621   2.681   3.890  0.8081  0.3856 -1.3760
 9057TIP3   OH248661   5.201   0.583  15.643  0.2910  0.5459 -0.0541
 9057TIP3    H148662   5.145   0.617  15.713  0.2746 -1.5163  1.0019
 9057TIP3    H248663   5.282   0.558  15.687 -0.3303 -2.3649 -0.3561
 9058TIP3   OH248664   2.534   4.364   3.015 -0.4210 -0.4340  0.1455
 9058TIP3    H148665   2.516   4.447   3.060 -0.0998  1.4837 -2.9356
 9058TIP3    H248666   2.450   4.318   3.014 -1.6593  1.6668 -1.3147
 9059TIP3   OH248667   1.418   2.341  14.889 -0.3026  0.2173 -0.0079
 9059TIP3    H148668   1.335   2.347  14.841  0.6708  0.1741 -1.7474
 9059TIP3    H248669   1.472   2.282  14.838  0.1466 -1.3711  2.1724
 9060TIP3   OH248670   3.564   5.069  11.953 -0.8220 -0.0615 -0.3710
 9060TIP3    H148671   3.639   5.012  11.973 -0.0962  0.7176 -0.7691
 9060TIP3    H248672   3.579   5.096  11.862 -1.3013  0.5282 -0.2788
 9061TIP3   OH248673   3.848   6.647  12.293  0.8399  0.2963 -0.2266
 9061TIP3    H148674   3.803   6.724  12.258  2.7599  2.1901  1.1759
 9061TIP3    H248675   3.864   6.591  12.217  0.1938  1.7215 -1.4541
 9062TIP3   OH248676   2.899   0.925   4.095  0.0569  0.0479  0.3722
 9062TIP3    H148677   2.945   0.944   4.013 -0.6031 -0.7587 -0.2090
 9062TIP3    H248678   2.914   1.002   4.150 -0.6107  1.1984 -1.0027
 9063TIP3   OH248679   5.145   0.241   0.896 -0.2541 -0.2032  0.2243
 9063TIP3    H148680   5.137   0.149   0.920 -1.9927 -0.5397 -1.3927
 9063TIP3    H248681   5.104   0.247   0.810  0.1888  2.0124  0.1119
 9064TIP3   OH248682   0.313   3.855   1.251  0.2660  0.2551  0.4455
 9064TIP3    H148683   0.303   3.789   1.183 -0.1926  1.4124 -0.6458
 9064TIP3    H248684   0.243   3.917   1.235 -0.0931  0.3660  2.2349
 9065TIP3   OH248685   5.879   3.700   4.687  0.1666  0.1997 -0.2805
 9065TIP3    H148686   5.822   3.721   4.614 -2.7957  1.0939  2.0924
 9065TIP3    H248687   5.858   3.766   4.754  2.9482 -0.3406  1.3089
 9066TIP3   OH248688   4.133   6.561  13.907 -0.5609 -0.4254  0.5815
 9066TIP3    H148689   4.045   6.596  13.893 -1.0591 -1.6742  0.4805
 9066TIP3    H248690   4.125   6.502  13.981  0.3309 -0.1092  0.9488
 9067TIP3   OH248691   5.981   0.058  14.364 -0.7486 -0.6252 -0.1246
 9067TIP3    H148692   6.009   0.100  14.446  0.7075 -3.3309  0.8919
 9067TIP3    H248693   6.051   0.076  14.302  0.3478 -2.2297  0.5920
 9068TIP3   OH248694   4.203   3.440  14.750  0.3523  0.3593  0.4542
 9068TIP3    H148695   4.297   3.458  14.750  0.2563  0.8838  0.5234
 9068TIP3    H248696   4.170   3.485  14.672  0.5007 -1.7892 -0.9310
 9069TIP3   OH248697   0.940   1.470   0.432  0.1828 -0.5273  0.4020
 9069TIP3    H148698   1.000   1.536   0.397 -0.5731  0.2658  0.5608
 9069TIP3    H248699   0.854   1.512   0.429 -0.4915 -1.9319 -0.5352
 9070TIP3   OH248700   0.993   1.305  13.685 -0.1304  0.2153  0.7272
 9070TIP3    H148701   0.923   1.325  13.623 -0.3208  0.2271  0.9448
 9070TIP3    H248702   1.032   1.389  13.706  0.9952  0.0508 -0.6167
 9071TIP3   OH248703   1.633   6.663   5.826 -0.4816 -0.4477 -0.2062
 9071TIP3    H148704   1.569   6.637   5.891  0.8600 -0.5128  1.1351
 9071TIP3    H248705   1.636   6.590   5.764 -0.6737 -1.0549  0.5003
 9072TIP3   OH248706   6.731   0.747  15.168 -0.3590  0.1563  0.0017
 9072TIP3    H148707   6.721   0.714  15.257 -2.2512  0.6616  0.0321
 9072TIP3    H248708   6.644   0.737  15.129 -0.3136  2.4550 -0.8927
 9073TIP3   OH248709   6.135   2.963  16.053  0.0608  0.4281 -0.4751
 9073TIP3    H148710   6.133   3.058  16.045  1.3245  0.3704 -1.8673
 9073TIP3    H248711   6.106   2.930  15.968 -1.4047 -0.4833  0.3222
 9074TIP3   OH248712   1.354   1.135   2.341  0.1989 -0.0684  0.0022
 9074TIP3    H148713   1.259   1.126   2.336  0.2795 -0.7372 -0.4431
 9074TIP3    H248714   1.369   1.180   2.424 -0.4845 -0.3225  0.2705
 9075TIP3   OH248715   0.502   0.922  15.119  0.3390 -0.2504  0.3624
 9075TIP3    H148716   0.474   1.008  15.088 -1.2341 -0.8627 -0.0601
 9075TIP3    H248717   0.547   0.939  15.201  0.9181  1.0548 -0.2041
 9076TIP3   OH248718   0.110   6.042   4.004  0.2616  0.0804  0.2125
 9076TIP3    H148719   0.129   5.952   3.976  2.6917  1.4942 -3.5027
 9076TIP3    H248720   0.024   6.061   3.969 -0.4622 -0.8382  1.3994
 9077TIP3   OH248721   0.453   2.719   5.685 -0.5673 -0.5904 -0.0994
 9077TIP3    H148722   0.440   2.813   5.694 -2.5336 -1.0291  4.1762
 9077TIP3    H248723   0.535   2.710   5.636  0.5686  3.3364  0.7349
 9078TIP3   OH248724   5.340   5.450  16.523 -0.0337  0.3921  0.2481
 9078TIP3    H148725   5.395   5.488  16.456 -0.6160 -1.0673 -1.1174
 9078TIP3    H248726   5.375   5.361  16.536 -2.9587 -1.2415 -1.9202
 9079TIP3   OH248727   2.878   5.500  11.515  0.1956 -0.6255  0.2839
 9079TIP3    H148728   2.876   5.405  11.507  0.0921 -0.6489  0.5665
 9079TIP3    H248729   2.876   5.516  11.609  1.7293 -0.3745  0.3015
 9080TIP3   OH248730   5.409   2.707   6.397  0.1789 -0.4989  0.2048
 9080TIP3    H148731   5.482   2.666   6.351  0.1653 -1.1644  0.7541
 9080TIP3    H248732   5.362   2.756   6.329  0.7929 -0.5510 -0.2651
 9081TIP3   OH248733   3.731   1.009   3.873 -0.2757  0.0049 -0.2566
 9081TIP3    H148734   3.807   1.064   3.892 -1.4017  1.1578  1.1616
 9081TIP3    H248735   3.751   0.925   3.915 -0.3561  0.7576  1.3636
 9082TIP3   OH248736   2.348   0.101  13.146 -0.6167  0.2432 -0.7515
 9082TIP3    H148737   2.384   0.174  13.095 -0.1916  0.6765  0.1529
 9082TIP3    H248738   2.269   0.136  13.186  0.3734  0.6885  0.8779
 9083TIP3   OH248739   5.665   6.643   0.197  0.2722 -0.2496  0.0103
 9083TIP3    H148740   5.637   6.620   0.108  0.2753  0.2191 -0.1119
 9083TIP3    H248741   5.757   6.617   0.201  0.6597  0.9586 -0.5681
 9084TIP3   OH248742   3.619   4.068  16.799  0.4802 -0.9484  0.5371
 9084TIP3    H148743   3.696   4.119  16.824 -1.1781  1.8229  0.3162
 9084TIP3    H248744   3.561   4.073  16.874 -0.5424 -0.7873 -0.2371
 9085TIP3   OH248745   5.292   6.695   1.033  0.5693 -0.1770 -0.2407
 9085TIP3    H148746   5.312   6.779   0.991  0.1186  0.2923  0.4609
 9085TIP3    H248747   5.199   6.699   1.051 -0.1009 -1.9845 -2.6969
 9086TIP3   OH248748   5.311   5.385  16.887  0.0607  0.1215  0.4642
 9086TIP3    H148749   5.244   5.421  16.944  0.0808 -1.8628  1.8772
 9086TIP3    H248750   5.297   5.290  16.891  2.6593 -0.3397  0.4976
 9087TIP3   OH248751   3.017   1.458  12.327 -0.2979 -0.3736  0.2964
 9087TIP3    H148752   3.056   1.375  12.301  0.3712  0.6908 -2.4759
 9087TIP3    H248753   2.924   1.449  12.309 -0.0430 -0.1461 -1.2483
 9088TIP3   OH248754   2.143   5.482  14.127  0.4911 -0.3493  0.5045
 9088TIP3    H148755   2.219   5.444  14.081  1.4241  1.1738  0.7297
 9088TIP3    H248756   2.107   5.545  14.065  0.3136  0.0014  0.9669
 9089TIP3   OH248757   6.737   6.073  13.927  0.0132  0.3808  0.4280
 9089TIP3    H148758   6.750   5.984  13.959 -0.0298  0.4687  0.6954
 9089TIP3    H248759   6.809   6.123  13.965  0.0790  0.4446  0.2187
 9090TIP3   OH248760   3.626   6.124  15.730 -0.1188  0.1860 -0.1143
 9090TIP3    H148761   3.626   6.168  15.815  0.8240  1.1799 -0.6134
 9090TIP3    H248762   3.533   6.117  15.707 -0.3049  2.0277 -0.0609
 9091TIP3   OH248763   1.085   1.081   6.182  0.3938  0.1704  0.4305
 9091TIP3    H148764   1.029   1.054   6.110  0.5359 -0.4229  0.5385
 9091TIP3    H248765   1.025   1.121   6.245 -0.0168 -1.0929  0.8597
 9092TIP3   OH248766   4.197   4.371   3.177 -0.3096 -0.1578 -0.3998
 9092TIP3    H148767   4.288   4.391   3.155  0.2663 -0.7678  1.3030
 9092TIP3    H248768   4.199   4.342   3.268 -2.1535 -0.6292 -0.4565
 9093TIP3   OH248769   1.323   0.451   1.968  0.1826 -0.0167 -0.4874
 9093TIP3    H148770   1.355   0.471   2.056  0.6263 -1.1869 -0.3586
 9093TIP3    H248771   1.257   0.383   1.981  0.0175  0.0370 -1.0245
 9094TIP3   OH248772   4.407   3.064  13.552  0.2381  0.1661  0.6968
 9094TIP3    H148773   4.349   2.991  13.573  0.0197 -0.0711 -0.6527
 9094TIP3    H248774   4.350   3.129  13.510  0.5510  0.8613  1.3203
 9095TIP3   OH248775   2.040   1.230   1.712  0.6706  0.3393 -0.0349
 9095TIP3    H148776   2.022   1.182   1.631  0.6911  0.4860 -0.1274
 9095TIP3    H248777   2.135   1.245   1.710  0.8430 -0.5842  0.5355
 9096TIP3   OH248778   0.950   5.335  13.020  0.3866 -0.2866  0.5079
 9096TIP3    H148779   0.929   5.252  13.063  2.0576 -0.7614  0.4908
 9096TIP3    H248780   0.906   5.329  12.935 -2.3864  0.3771  1.7959
 9097TIP3   OH248781   0.551   5.484  12.010  0.1570  0.2616  0.4161
 9097TIP3    H148782   0.466   5.441  11.998 -0.8894  1.6111  2.4974
 9097TIP3    H248783   0.561   5.492  12.105  2.2541  0.8697  0.1851
 9098TIP3   OH248784   1.829   0.464   3.843 -0.7930  0.1487  0.6607
 9098TIP3    H148785   1.758   0.471   3.906  1.0811  1.4799  2.7601
 9098TIP3    H248786   1.801   0.518   3.769 -1.5057  1.5374  1.9134
 9099TIP3   OH248787   1.551   0.863  15.786 -0.1533 -0.1279 -0.0426
 9099TIP3    H148788   1.459   0.836  15.787  0.2505 -1.5461 -0.1924
 9099TIP3    H248789   1.569   0.881  15.693  0.7069 -3.5165 -0.6562
 9100TIP3   OH248790   0.296   6.335   3.070  0.0698  0.5362  0.2830
 9100TIP3    H148791   0.266   6.378   3.149 -1.1255 -0.8692  0.6444
 9100TIP3    H248792   0.226   6.351   3.006  0.2053  0.2320  0.0543
 9101TIP3   OH248793   0.401   6.332  11.309 -0.3769  0.0052  0.1839
 9101TIP3    H148794   0.420   6.248  11.267  0.4840  0.6026 -0.6721
 9101TIP3    H248795   0.309   6.326  11.335 -0.7569 -0.6457 -1.2255
 9102TIP3   OH248796   1.588   1.921   6.069 -0.2903 -0.2771 -0.0997
 9102TIP3    H148797   1.518   1.973   6.108 -0.9346 -1.5022  0.4197
 9102TIP3    H248798   1.551   1.834   6.058  0.5064 -0.4500 -1.7107
 9103TIP3   OH248799   0.753   2.629  13.839 -0.2287  0.0570 -0.1541
 9103TIP3    H148800   0.820   2.679  13.886 -0.9247  1.4703 -0.5996
 9103TIP3    H248801   0.676   2.634  13.895  0.2370 -2.3295  0.7913
 9104TIP3   OH248802   1.440   0.430   3.522  0.4108 -0.6044  0.0130
 9104TIP3    H148803   1.422   0.387   3.438  0.8660  1.3661 -1.1516
 9104TIP3    H248804   1.501   0.371   3.566  0.9021 -1.2377 -1.4507
 9105TIP3   OH248805   0.093   3.074  14.927 -0.1976 -0.1491  0.2815
 9105TIP3    H148806   0.113   3.100  14.837 -0.6933 -0.9296 -0.0665
 9105TIP3    H248807   0.149   3.129  14.981  0.1346  0.3031 -0.5072
 9106TIP3   OH248808   5.729   1.786   5.956  1.0022  0.7450  0.1531
 9106TIP3    H148809   5.718   1.859   6.017  0.8435  2.0131 -1.3294
 9106TIP3    H248810   5.736   1.709   6.012 -0.4141  1.6902  1.7147
 9107TIP3   OH248811   6.608   6.188   6.086  0.4130  0.5138 -0.4853
 9107TIP3    H148812   6.656   6.146   6.157 -1.4216  0.4713  0.7960
 9107TIP3    H248813   6.589   6.118   6.024  0.4946  0.1935 -0.1500
 9108TIP3   OH248814   4.287   1.254  11.576 -0.4875  0.2752 -0.1393
 9108TIP3    H148815   4.333   1.174  11.603 -1.5797 -0.3072  0.1012
 9108TIP3    H248816   4.348   1.325  11.593 -0.4437 -0.2536  2.1994
 9109TIP3   OH248817   5.508   5.917   5.562 -0.1042 -0.3598  0.1276
 9109TIP3    H148818   5.569   5.877   5.623  0.3576  0.2313  0.0532
 9109TIP3    H248819   5.532   6.009   5.559  0.3893 -0.5061 -1.5246
 9110TIP3   OH248820   6.479   5.219  16.423 -0.0832  0.0200 -0.2980
 9110TIP3    H148821   6.453   5.169  16.500  1.3063  1.7564  1.3900
 9110TIP3    H248822   6.402   5.274  16.404  0.1800  0.9034  1.0339
 9111TIP3   OH248823   1.321   6.240   2.093  0.3734  0.4171 -0.2324
 9111TIP3    H148824   1.249   6.286   2.138  0.7170  1.3945 -0.6678
 9111TIP3    H248825   1.289   6.227   2.004 -0.4591 -1.8561  0.3312
 9112TIP3   OH248826   6.392   0.404  13.952 -0.2299  0.0401 -0.3164
 9112TIP3    H148827   6.319   0.380  13.894 -0.2715 -2.0868  0.5089
 9112TIP3    H248828   6.460   0.437  13.893 -1.0218 -0.1371 -1.3518
 9113TIP3   OH248829   6.246   4.602  14.526 -0.0052 -0.5150  0.4266
 9113TIP3    H148830   6.279   4.540  14.462 -1.6102 -1.1499  0.1524
 9113TIP3    H248831   6.309   4.673  14.526  1.5869 -1.8807  0.3414
 9114TIP3   OH248832   4.331   4.750   5.352 -0.1563 -0.1571  0.5155
 9114TIP3    H148833   4.324   4.776   5.260  0.5355 -0.2691  0.4196
 9114TIP3    H248834   4.346   4.832   5.399 -0.0463 -0.1488  0.4676
 9115TIP3   OH248835   3.003   5.583  12.901 -0.3350  0.7435  0.0532
 9115TIP3    H148836   2.938   5.549  12.962  0.4775  1.2933  1.2658
 9115TIP3    H248837   2.986   5.677  12.895  0.1852  0.8539  0.1964
 9116TIP3   OH248838   2.907   5.254  13.373 -0.7374  0.0392  0.1462
 9116TIP3    H148839   2.855   5.228  13.298  1.6542 -1.2078 -1.1795
 9116TIP3    H248840   2.863   5.214  13.448 -1.7670 -0.8325 -0.8906
 9117TIP3   OH248841   6.646   6.735   4.890 -0.8337 -0.2355 -0.8070
 9117TIP3    H148842   6.712   6.672   4.922 -1.7045 -1.3066 -1.0431
 9117TIP3    H248843   6.610   6.693   4.811 -0.5180  1.1876 -1.7365
 9118TIP3   OH248844   5.160   5.188   4.030 -0.0350 -0.2803  0.0166
 9118TIP3    H148845   5.246   5.212   4.065  0.1965 -0.9853 -0.0495
 9118TIP3    H248846   5.105   5.265   4.045 -0.0158 -0.6226  2.1344
 9119TIP3   OH248847   6.229   0.975  14.666 -0.2607  0.2302  0.3428
 9119TIP3    H148848   6.297   1.023  14.714 -0.2024  0.1758  0.3134
 9119TIP3    H248849   6.238   0.885  14.695 -0.7352  0.3320  0.8197
 9120TIP3   OH248850   4.470   6.296  15.377 -0.5074  0.4580 -0.6504
 9120TIP3    H148851   4.478   6.202  15.389 -0.1872  0.6363  0.6198
 9120TIP3    H248852   4.429   6.328  15.457 -1.2985  1.3220 -1.3630
 9121TIP3   OH248853   0.767   1.762   5.753 -0.4404 -0.1112 -0.2873
 9121TIP3    H148854   0.694   1.770   5.814  0.1631  0.2306  0.3934
 9121TIP3    H248855   0.729   1.786   5.668 -0.5950  2.3498  0.3976
 9122TIP3   OH248856   3.062   6.710   1.464 -0.8248 -0.3725  0.0043
 9122TIP3    H148857   3.060   6.804   1.482 -1.6077 -0.1390 -1.2027
 9122TIP3    H248858   2.971   6.682   1.473 -0.6124 -0.9964  0.2333
 9123TIP3   OH248859   6.415   2.670  15.433  0.8954 -0.0631 -0.0889
 9123TIP3    H148860   6.386   2.629  15.351 -0.5775  1.4867 -0.3892
 9123TIP3    H248861   6.460   2.600  15.480  0.0849 -1.5066 -1.3736
 9124TIP3   OH248862   6.590   3.496  15.814 -0.0601 -0.6248 -0.2452
 9124TIP3    H148863   6.517   3.557  15.806 -0.7171 -1.2295  0.8692
 9124TIP3    H248864   6.591   3.449  15.731 -0.6650 -0.3141 -0.4324
 9125TIP3   OH248865   1.711   0.729   3.615 -0.2039 -0.0637  0.6441
 9125TIP3    H148866   1.678   0.788   3.683 -0.0483 -2.0047  2.5325
 9125TIP3    H248867   1.755   0.786   3.552 -1.3397  1.9328  1.5745
 9126TIP3   OH248868   3.373   5.127  12.915  0.1971 -0.4567 -0.3581
 9126TIP3    H148869   3.361   5.178  12.835 -1.5289 -1.2435 -0.6573
 9126TIP3    H248870   3.377   5.036  12.885  0.2891 -0.7050  0.3844
 9127TIP3   OH248871   1.271   0.691  13.050  0.2151 -0.3054  0.3083
 9127TIP3    H148872   1.194   0.636  13.068  0.4734 -0.7198  0.1686
 9127TIP3    H248873   1.328   0.676  13.125  1.9160 -3.1200 -1.3740
 9128TIP3   OH248874   1.605   5.569   3.701 -0.3710 -0.2308 -0.2782
 9128TIP3    H148875   1.565   5.643   3.748  2.1825  0.7477  0.5008
 9128TIP3    H248876   1.635   5.607   3.618  0.0006 -0.6571 -0.3363
 9129TIP3   OH248877   4.202   5.096   4.209 -0.1167 -0.2250  0.6193
 9129TIP3    H148878   4.122   5.096   4.261  0.6332 -0.2819  1.8149
 9129TIP3    H248879   4.273   5.103   4.274  0.8376  0.0289 -0.4164
 9130TIP3   OH248880   5.371   4.001  11.713  0.8283  0.0044 -0.2010
 9130TIP3    H148881   5.440   3.973  11.774 -0.7989 -1.5027  1.0312
 9130TIP3    H248882   5.375   3.936  11.642  0.3150 -0.4135  0.1519
 9131TIP3   OH248883   2.949   6.166  14.256  0.1657  0.2948 -0.1260
 9131TIP3    H148884   2.936   6.163  14.351  1.7526  0.2823  0.1088
 9131TIP3    H248885   3.012   6.096  14.238  0.0531  0.4429 -1.1588
 9132TIP3   OH248886   3.142   2.509  14.801 -0.4466 -0.1125 -0.3955
 9132TIP3    H148887   3.160   2.599  14.774 -0.3270 -0.1112 -0.3077
 9132TIP3    H248888   3.153   2.509  14.896  0.9855 -0.5537 -0.5444
 9133TIP3   OH248889   6.594   3.151  15.401  0.4044 -0.1391  0.3052
 9133TIP3    H148890   6.643   3.126  15.323 -1.2896 -0.3851 -0.7250
 9133TIP3    H248891   6.590   3.071  15.454 -0.6909 -0.7088 -0.6140
 9134TIP3   OH248892   5.837   2.132  14.069 -0.3075  0.1750 -0.0173
 9134TIP3    H148893   5.824   2.065  14.002 -0.5098 -0.5102  0.6865
 9134TIP3    H248894   5.749   2.162  14.091 -0.4321 -1.0975  1.3985
 9135TIP3   OH248895   6.113   6.812  16.640  0.6169 -0.3919 -0.2612
 9135TIP3    H148896   6.110   6.746  16.710  1.8432 -1.8928 -1.5382
 9135TIP3    H248897   6.206   6.832  16.631  0.2491  1.7335  0.2342
 9136TIP3   OH248898   2.002   4.271   2.304  0.4253 -0.6760 -0.0545
 9136TIP3    H148899   2.051   4.329   2.245 -1.0937  1.4514  0.6451
 9136TIP3    H248900   2.062   4.255   2.377  0.8490  0.1140 -0.2127
 9137TIP3   OH248901   3.754   0.948   3.589  0.0193  0.2542 -0.2948
 9137TIP3    H148902   3.717   0.945   3.677 -0.5641 -0.6365 -0.5626
 9137TIP3    H248903   3.701   1.013   3.542  0.6057  1.0516  0.1189
 9138TIP3   OH248904   0.287   6.699  14.539  0.2073  0.5132 -0.0424
 9138TIP3    H148905   0.283   6.754  14.617  2.2856  1.1681 -0.3291
 9138TIP3    H248906   0.309   6.760  14.468  0.6021 -0.4038 -0.7266
 9139TIP3   OH248907   4.053   5.194  16.253  0.3546  0.0908  0.1139
 9139TIP3    H148908   3.962   5.167  16.262  1.0400 -2.0748  1.1905
 9139TIP3    H248909   4.048   5.285  16.225 -2.1257 -0.0658 -0.1926
 9140TIP3   OH248910   5.079   5.683   1.953  0.5295 -0.7448  0.1252
 9140TIP3    H148911   5.015   5.738   1.909 -0.1957  0.2345  2.2319
 9140TIP3    H248912   5.160   5.734   1.949  1.2219 -1.9183 -2.4108
 9141TIP3   OH248913   1.589   6.240   2.112 -0.0125  0.1906 -0.5005
 9141TIP3    H148914   1.495   6.224   2.111  0.0210 -0.0853  0.1015
 9141TIP3    H248915   1.599   6.332   2.087 -0.4270  0.1706 -0.7391
 9142TIP3   OH248916   2.754   2.252  14.591  0.0595 -0.5713  0.1077
 9142TIP3    H148917   2.669   2.296  14.580 -0.5095 -2.0978 -2.6014
 9142TIP3    H248918   2.783   2.234  14.501  2.5047 -1.5288  1.0088
 9143TIP3   OH248919   3.563   5.747   4.832 -0.5716  0.4682  0.2260
 9143TIP3    H148920   3.496   5.684   4.803 -0.0419  0.0691 -0.1403
 9143TIP3    H248921   3.575   5.727   4.925 -0.2910 -0.0810  0.0749
 9144TIP3   OH248922   3.579   3.349   2.286  0.0796 -0.2266 -0.1341
 9144TIP3    H148923   3.590   3.412   2.357 -0.2848  0.7547 -0.9068
 9144TIP3    H248924   3.613   3.267   2.320 -0.3906  0.1363  1.2761
 9145TIP3   OH248925   5.915   5.024  13.249  0.2224 -0.4065 -0.1040
 9145TIP3    H148926   5.843   5.078  13.216  0.7838 -1.1151 -2.6646
 9145TIP3    H248927   5.991   5.081  13.248  0.1502 -0.2874  0.5232
 9146TIP3   OH248928   4.764   5.869  10.457  0.5913 -0.2392  0.5429
 9146TIP3    H148929   4.828   5.918  10.405 -0.4577  1.4127  0.7256
 9146TIP3    H248930   4.749   5.789  10.407  2.7837 -0.7009  0.5075
 9147TIP3   OH248931   4.309   3.291  13.755  0.0734  0.3600 -0.3008
 9147TIP3    H148932   4.320   3.197  13.738 -1.8678 -0.2269  1.3217
 9147TIP3    H248933   4.396   3.328  13.738  0.9087 -1.7133 -0.9396
 9148TIP3   OH248934   5.751   3.508   1.905 -0.0803 -0.5969 -0.0049
 9148TIP3    H148935   5.733   3.419   1.876 -3.0639 -0.0714 -0.0704
 9148TIP3    H248936   5.710   3.514   1.992 -0.1136  0.7487 -0.0844
 9149TIP3   OH248937   3.978   3.449  11.797  0.6178  0.2118 -0.1479
 9149TIP3    H148938   3.970   3.464  11.703  1.9235 -1.2601 -0.5437
 9149TIP3    H248939   3.960   3.534  11.837  0.1596  0.8919 -1.7262
 9150TIP3   OH248940   3.154   4.816  16.531  0.4832  0.1323 -0.0472
 9150TIP3    H148941   3.080   4.840  16.474  1.5661  0.0963 -1.5135
 9150TIP3    H248942   3.117   4.754  16.594 -1.1818  1.6046  0.5057
 9151TIP3   OH248943   1.672   4.725  11.577  0.4535  0.5698  0.6936
 9151TIP3    H148944   1.631   4.768  11.651  0.5476 -1.9103  2.3205
 9151TIP3    H248945   1.757   4.696  11.610  0.2256 -1.1741 -0.1093
 9152TIP3   OH248946   5.538   2.132   0.965  0.1022 -0.7939  0.7551
 9152TIP3    H148947   5.481   2.208   0.960  1.7737  0.5037  0.5785
 9152TIP3    H248948   5.531   2.091   0.878  0.6186  0.2701  0.1920
 9153TIP3   OH248949   1.525   3.638  16.125 -0.0232  0.2554  0.1140
 9153TIP3    H148950   1.490   3.721  16.156  0.9162 -0.2143  2.6259
 9153TIP3    H248951   1.551   3.655  16.034  0.0617  2.6540  0.5331
 9154TIP3   OH248952   2.548   1.077  16.396  0.2954  0.1034  0.0896
 9154TIP3    H148953   2.503   1.010  16.447  1.5725 -1.0057 -0.1843
 9154TIP3    H248954   2.478   1.124  16.351 -0.7621  0.2082  1.7453
 9155TIP3   OH248955   2.063   2.527  13.944  0.4377  0.4189  0.0063
 9155TIP3    H148956   1.978   2.546  13.904  0.5838  1.2647  0.0937
 9155TIP3    H248957   2.119   2.503  13.870  0.3055  0.5197 -0.1277
 9156TIP3   OH248958   6.781   1.261   0.005 -0.5040 -0.0852  0.1581
 9156TIP3    H148959   6.799   1.224   0.091  0.4917 -2.5664 -1.0140
 9156TIP3    H248960   6.693   1.298   0.012 -0.1781  0.4238  2.3805
 9157TIP3   OH248961   0.318   3.813  12.828  0.2831 -0.0775  0.7638
 9157TIP3    H148962   0.372   3.739  12.800 -0.1636 -0.2537  0.3575
 9157TIP3    H248963   0.304   3.865  12.749  0.8286  0.6000  1.1046
 9158TIP3   OH248964   5.201   5.348  13.618  0.0330 -0.0593 -0.1106
 9158TIP3    H148965   5.202   5.363  13.712  0.0992 -2.1071  0.2627
 9158TIP3    H248966   5.268   5.282  13.603 -0.7659 -0.6283 -1.4156
 9159TIP3   OH248967   3.064   1.693   5.181 -0.3309  0.4358 -0.0522
 9159TIP3    H148968   3.138   1.707   5.240 -0.5878  0.1459  0.3431
 9159TIP3    H248969   3.056   1.598   5.175  0.6297  0.4286 -1.7457
 9160TIP3   OH248970   5.855   4.229   1.814  0.3435 -0.1765  0.0945
 9160TIP3    H148971   5.836   4.254   1.904  0.3842 -0.6873  0.2459
 9160TIP3    H248972   5.931   4.282   1.790 -1.4861  2.2759 -0.6946
 9161TIP3   OH248973   4.322   3.256  16.634 -0.1752  0.2167 -0.3667
 9161TIP3    H148974   4.276   3.194  16.691 -2.3135 -0.5892 -2.7791
 9161TIP3    H248975   4.375   3.201  16.577  3.1122  1.0829  1.5856
 9162TIP3   OH248976   6.592   1.825   2.827  0.6624  0.5755 -0.7707
 9162TIP3    H148977   6.641   1.865   2.899  1.2264 -0.7937 -0.3666
 9162TIP3    H248978   6.617   1.876   2.750  0.7807  1.4615 -0.1593
 9163TIP3   OH248979   2.090   6.842   0.011  0.0781 -0.3592 -0.3779
 9163TIP3    H148980   2.106   6.936   0.014 -1.7672  0.0141  2.7377
 9163TIP3    H248981   2.149   6.806   0.077  1.9444 -1.7281 -2.6400
 9164TIP3   OH248982   2.214   6.827   0.284  0.4555  0.3199  0.2821
 9164TIP3    H148983   2.157   6.768   0.332 -1.1650  2.0609  0.5945
 9164TIP3    H248984   2.239   6.894   0.348  1.6201  0.4220 -0.2550
 9165TIP3   OH248985   1.156   4.285  12.286  0.2696 -0.5407 -0.5456
 9165TIP3    H148986   1.214   4.326  12.351  0.9418 -1.0810 -0.7964
 9165TIP3    H248987   1.074   4.333  12.295  0.8188  0.4107 -0.3467
 9166TIP3   OH248988   0.803   5.956  13.581 -0.5281  0.0717  0.0590
 9166TIP3    H148989   0.898   5.965  13.572 -0.3526 -1.5480 -0.0029
 9166TIP3    H248990   0.769   6.043  13.564  0.8988  0.5213 -0.6474
 9167TIP3   OH248991   3.676   5.365  11.196 -0.0523 -0.3096 -0.5167
 9167TIP3    H148992   3.637   5.434  11.142 -0.6186 -0.1051  0.1318
 9167TIP3    H248993   3.634   5.285  11.165 -0.3923 -0.1914 -0.3680
 9168TIP3   OH248994   0.110   6.610   3.871 -0.0587  0.0329 -0.2470
 9168TIP3    H148995   0.042   6.561   3.917 -1.4326  1.0202 -1.1617
 9168TIP3    H248996   0.065   6.652   3.798  1.5193  0.8132 -0.8257
 9169TIP3   OH248997   5.172   6.869  12.779  0.7367 -0.5113 -0.5914
 9169TIP3    H148998   5.212   6.788  12.812  0.1480 -0.5881 -0.0412
 9169TIP3    H248999   5.197   6.935  12.844  0.2170 -0.5026 -0.3965
 9170TIP3   OH249000   0.688   1.672   1.824 -0.3875  0.0823 -0.8019
 9170TIP3    H149001   0.632   1.723   1.766 -0.3737  1.2823  0.2220
 9170TIP3    H249002   0.777   1.693   1.796 -0.3940 -0.3405 -1.1648
 9171TIP3   OH249003   5.062   4.875  16.135  0.1645 -0.3088  0.0800
 9171TIP3    H149004   4.970   4.856  16.157  0.1479 -0.3136  0.0060
 9171TIP3    H249005   5.109   4.796  16.163  0.3899  0.3809  1.7356
 9172TIP3   OH249006   4.267   5.359  12.207  0.2358 -0.2499 -0.8779
 9172TIP3    H149007   4.172   5.362  12.202  0.1955  1.1221  0.1047
 9172TIP3    H249008   4.297   5.401  12.126 -0.0742  1.7056 -0.0480
 9173TIP3   OH249009   4.235   3.869  13.702  0.5537  0.2400 -0.4682
 9173TIP3    H149010   4.309   3.901  13.754  0.5668  1.0739 -0.9943
 9173TIP3    H249011   4.164   3.930  13.720 -0.1768 -0.8315  0.4073
 9174TIP3   OH249012   1.547   2.014  14.953  0.3526 -0.5912  0.3915
 9174TIP3    H149013   1.638   1.995  14.977  0.7982  1.7656  0.8628
 9174TIP3    H249014   1.506   2.039  15.036 -0.1206  0.4456 -0.1437
 9175TIP3   OH249015   1.145   6.535   1.500  0.0642 -0.0639 -0.7439
 9175TIP3    H149016   1.171   6.484   1.423  2.6394 -0.0868  0.0627
 9175TIP3    H249017   1.144   6.472   1.571  2.8338  0.7819  0.1765
 9176TIP3   OH249018   4.315   2.612   4.147  0.5595 -0.1411  0.2683
 9176TIP3    H149019   4.342   2.682   4.087  1.3514 -1.7519 -1.3320
 9176TIP3    H249020   4.260   2.555   4.095 -2.7239  0.8120  2.3800
 9177TIP3   OH249021   6.570   0.319  14.878  0.8136 -0.2089 -0.0637
 9177TIP3    H149022   6.642   0.349  14.934  1.1306 -1.1051  0.0299
 9177TIP3    H249023   6.496   0.310  14.938  1.1527 -1.1651  0.2286
 9178TIP3   OH249024   1.741   3.839   2.548  0.1185  0.1107  0.0789
 9178TIP3    H149025   1.794   3.777   2.497 -1.0159  0.6006 -1.8294
 9178TIP3    H249026   1.769   3.925   2.516 -0.2529  0.4597  0.6911
 9179TIP3   OH249027   5.882   3.720   4.171  0.9308 -0.7357 -0.4751
 9179TIP3    H149028   5.818   3.754   4.234  1.0292 -0.3180 -0.5993
 9179TIP3    H249029   5.918   3.642   4.214 -2.8682 -3.7912 -2.2003
 9180TIP3   OH249030   1.164   6.627  16.226 -0.4095  0.0003  0.0700
 9180TIP3    H149031   1.087   6.598  16.177  0.0988 -2.3620  0.5244
 9180TIP3    H249032   1.235   6.574  16.190  0.4746  0.2088  1.4789
 9181TIP3   OH249033   5.752   6.852   0.610  0.1520 -0.9990  0.4813
 9181TIP3    H149034   5.842   6.885   0.611 -0.3465  0.4969 -0.5617
 9181TIP3    H249035   5.747   6.793   0.685  2.1109 -1.4214  0.3233
 9182TIP3   OH249036   6.859   4.156  14.101 -1.3162  0.4298  0.2294
 9182TIP3    H149037   6.837   4.248  14.114 -0.4056  0.8280 -0.8831
 9182TIP3    H249038   6.955   4.153  14.103 -1.3188 -0.4130 -0.1963
 9183TIP3   OH249039   5.977   0.345   5.537 -0.2920  0.0354  0.3641
 9183TIP3    H149040   5.980   0.250   5.546 -3.0633 -0.1260  0.3437
 9183TIP3    H249041   6.055   0.376   5.584  1.7534 -2.2695 -1.2114
 9184TIP3   OH249042   4.976   0.808  15.052  0.4165 -0.2219  0.7657
 9184TIP3    H149043   4.944   0.814  14.962  3.8583 -0.5844 -0.6781
 9184TIP3    H249044   4.970   0.715  15.074  1.3357 -0.4589  0.0890
 9185TIP3   OH249045   4.806   2.862  14.699  0.4868 -0.2406 -0.2696
 9185TIP3    H149046   4.774   2.773  14.684  0.2573 -0.9940  3.5940
 9185TIP3    H249047   4.901   2.853  14.699  0.4945 -0.2286 -0.9668
 9186TIP3   OH249048   5.275   2.170   0.110  0.6022  0.1642  0.0109
 9186TIP3    H149049   5.231   2.153   0.026 -0.0611  1.9796 -0.0514
 9186TIP3    H249050   5.242   2.101   0.168  0.1029 -0.3771 -0.8846
 9187TIP3   OH249051   1.050   5.194   4.141 -0.6325 -0.2357 -0.2533
 9187TIP3    H149052   1.009   5.280   4.151  1.1571  0.4632  2.3449
 9187TIP3    H249053   1.055   5.160   4.231  0.9747 -1.9253 -0.9190
 9188TIP3   OH249054   0.301   0.015  10.935  0.0849 -0.2345  0.4763
 9188TIP3    H149055   0.392   0.024  10.964  0.2363 -1.0445  0.2648
 9188TIP3    H249056   0.252  -0.006  11.015  0.0311  0.5001  0.6413
 9189TIP3   OH249057   5.912   1.713  12.750  0.5887 -0.0655  0.1727
 9189TIP3    H149058   5.942   1.799  12.720 -0.5610  1.0343  1.9851
 9189TIP3    H249059   5.963   1.651  12.698  3.1297  1.6866  0.3685
 9190TIP3   OH249060   3.344   3.588   1.432  0.4078  0.0357 -0.0928
 9190TIP3    H149061   3.260   3.631   1.447  0.4290  0.8694 -2.0335
 9190TIP3    H249062   3.333   3.501   1.468 -1.4372  0.0058 -0.6125
 9191TIP3   OH249063   1.564   0.568   4.267  0.1249 -0.1325  0.1921
 9191TIP3    H149064   1.644   0.620   4.263  0.0659  0.1793  2.0641
 9191TIP3    H249065   1.498   0.627   4.303 -0.4970 -0.8846  0.3232
 9192TIP3   OH249066   2.432   0.276  11.119 -0.6495  0.3468  0.3685
 9192TIP3    H149067   2.465   0.294  11.031 -1.3209 -1.1128 -0.2080
 9192TIP3    H249068   2.346   0.317  11.121 -1.1905 -0.7414 -0.1275
 9193TIP3   OH249069   3.269   6.057   1.443  0.7225 -0.4128 -0.5866
 9193TIP3    H149070   3.178   6.056   1.472  0.9801 -0.1482  0.2483
 9193TIP3    H249071   3.309   5.981   1.486  0.9860 -0.3091 -0.6412
 9194TIP3   OH249072   5.109   5.555  16.715  0.5207  0.1601 -0.1240
 9194TIP3    H149073   5.186   5.504  16.740  0.9376  0.9974  0.3400
 9194TIP3    H249074   5.134   5.597  16.633 -0.2872 -1.3545 -1.2059
 9195TIP3   OH249075   5.327   3.156   5.994  0.0063  0.0633  0.2011
 9195TIP3    H149076   5.272   3.107   6.055 -0.9707  1.0334  0.1370
 9195TIP3    H249077   5.279   3.238   5.979  1.8642  1.3347  0.8017
 9196TIP3   OH249078   1.616   2.137  12.512 -0.1536  0.1375  0.1574
 9196TIP3    H149079   1.565   2.168  12.587  0.0229 -0.7841  0.6781
 9196TIP3    H249080   1.690   2.090  12.551 -0.4093 -0.9168 -0.5855
 9197TIP3   OH249081   6.512   1.886   4.151  0.1997 -0.4962 -0.5775
 9197TIP3    H149082   6.501   1.838   4.233  2.3505 -0.6416 -0.3099
 9197TIP3    H249083   6.543   1.821   4.089  2.0929  0.2697 -0.4987
 9198TIP3   OH249084   4.933   3.826   4.452 -0.1516 -0.3481  0.2077
 9198TIP3    H149085   4.915   3.919   4.464  0.9246 -0.1618  0.5429
 9198TIP3    H249086   4.848   3.784   4.453 -0.7984  0.7925 -1.4307
 9199TIP3   OH249087   0.721   2.992   2.131 -0.3669  0.2346 -0.1574
 9199TIP3    H149088   0.665   3.066   2.107 -0.7138  0.1722  0.4531
 9199TIP3    H249089   0.687   2.919   2.078 -0.2445  0.4231 -0.5014
 9200TIP3   OH249090   5.751   2.551   3.153  0.3972 -0.0225 -0.0259
 9200TIP3    H149091   5.828   2.506   3.119  2.3901  1.4120  2.2926
 9200TIP3    H249092   5.701   2.483   3.198  1.2553 -0.6808 -0.0453
 9201TIP3   OH249093   3.333   2.427  10.392  0.4595 -0.7701 -0.2066
 9201TIP3    H149094   3.399   2.363  10.366 -0.1682 -0.9019 -1.5437
 9201TIP3    H249095   3.267   2.423  10.324 -0.2671  0.3442  0.3949
 9202TIP3   OH249096   5.555   5.678  14.240  0.0482  0.6407 -0.1192
 9202TIP3    H149097   5.488   5.611  14.225  2.2452 -1.4555 -1.1617
 9202TIP3    H249098   5.558   5.727  14.158 -0.5606  1.0987  0.1256
 9203TIP3   OH249099   4.080   3.298  15.083 -0.9408 -0.4997  0.5345
 9203TIP3    H149100   4.130   3.367  15.127 -0.5486 -1.1117  1.0715
 9203TIP3    H249101   4.081   3.322  14.990 -1.5526  0.6686  0.8182
 9204TIP3   OH249102   1.620   2.796  13.794 -0.0377 -0.6437  0.8124
 9204TIP3    H149103   1.586   2.886  13.791  0.5599 -0.3014  2.8392
 9204TIP3    H249104   1.544   2.742  13.774 -0.8560  0.2544  1.3725
 9205TIP3   OH249105   6.493   3.517  13.670 -0.1118  1.0145  0.0398
 9205TIP3    H149106   6.448   3.473  13.742  2.3558 -2.0168 -0.0737
 9205TIP3    H249107   6.565   3.564  13.713  0.9289 -0.2059 -0.3188
 9206TIP3   OH249108   2.131   2.760  13.673  0.4148  0.3597 -0.2404
 9206TIP3    H149109   2.173   2.765  13.759  1.1401 -0.7344 -0.4947
 9206TIP3    H249110   2.136   2.667  13.650 -0.9762  0.4251 -0.8850
 9207TIP3   OH249111   6.853   1.486  10.515 -0.3516 -0.3843 -0.0605
 9207TIP3    H149112   6.849   1.485  10.420  1.2267 -0.3947 -0.1588
 9207TIP3    H249113   6.810   1.405  10.543 -1.3126 -0.1129 -0.7216
 9208TIP3   OH249114   3.891   5.671   5.699  0.6556  0.3854  0.5506
 9208TIP3    H149115   3.878   5.620   5.619 -0.1042  1.6751 -0.1739
 9208TIP3    H249116   3.879   5.607   5.770  0.1492 -0.5220 -0.3241
 9209TIP3   OH249117   6.518   0.435  15.347  0.1264  0.2056 -0.1169
 9209TIP3    H149118   6.484   0.346  15.332  0.4915  0.3689 -2.2071
 9209TIP3    H249119   6.440   0.487  15.368 -0.1111 -0.5399  0.9740
 9210TIP3   OH249120   6.432   6.446   2.177 -0.1790  0.1643  0.2148
 9210TIP3    H149121   6.470   6.369   2.219 -0.2497 -0.6296 -1.1021
 9210TIP3    H249122   6.365   6.410   2.118 -0.5692  1.2816 -0.0387
 9211TIP3   OH249123   2.112   4.959  13.243  0.0511  0.5548  0.3499
 9211TIP3    H149124   2.122   4.963  13.338 -2.9204 -0.1682  0.8150
 9211TIP3    H249125   2.131   4.868  13.221  1.8106  0.9663  0.0306
 9212TIP3   OH249126   3.678   1.775   2.167  0.2790 -0.4351  0.0758
 9212TIP3    H149127   3.741   1.788   2.096 -0.4317 -1.2020 -0.7204
 9212TIP3    H249128   3.721   1.811   2.244  0.4037  2.0582 -1.0353
 9213TIP3   OH249129   0.604   4.857   2.141 -0.1897 -0.0064 -0.1909
 9213TIP3    H149130   0.576   4.946   2.119  0.3402 -0.1918 -1.8085
 9213TIP3    H249131   0.534   4.823   2.196 -0.4382  1.3783  0.4002
 9214TIP3   OH249132   3.563   4.658   3.219 -0.3877  0.2515  0.6846
 9214TIP3    H149133   3.513   4.713   3.280 -1.3846  1.1841 -0.9078
 9214TIP3    H249134   3.563   4.707   3.137  1.2949 -0.7718  0.0206
 9215TIP3   OH249135   3.292   2.749  15.350  0.3822  0.1088  0.2161
 9215TIP3    H149136   3.280   2.689  15.277 -0.3507 -1.0006  1.1979
 9215TIP3    H249137   3.313   2.833  15.310  2.4346 -0.9911 -1.1826
 9216TIP3   OH249138   2.459   1.549  16.454 -0.3245 -0.5141 -0.4010
 9216TIP3    H149139   2.407   1.599  16.517 -0.2013  0.8709 -1.3596
 9216TIP3    H249140   2.425   1.574  16.369  1.5933  0.1218 -1.0376
 9217TIP3   OH249141   5.659   0.208   2.901 -0.0451 -0.1337 -0.0405
 9217TIP3    H149142   5.640   0.117   2.879 -0.4197 -0.3569  1.1375
 9217TIP3    H249143   5.752   0.209   2.922  0.3900  0.1398 -1.8014
 9218TIP3   OH249144   2.976   5.881  15.233 -0.0848 -0.1478  0.3572
 9218TIP3    H149145   2.970   5.976  15.226 -1.5993 -0.1565  0.9405
 9218TIP3    H249146   3.004   5.851  15.146  0.7997  0.8397  0.2887
 9219TIP3   OH249147   0.477   2.074  13.111  0.0830  0.2582 -0.8998
 9219TIP3    H149148   0.491   2.015  13.038 -1.7228 -1.1167 -0.2235
 9219TIP3    H249149   0.420   2.143  13.077  1.1876  0.9629 -1.3693
 9220TIP3   OH249150   4.966   0.786   2.114 -0.1146  0.3045 -0.5189
 9220TIP3    H149151   4.901   0.844   2.154  0.4645 -0.1254  1.1271
 9220TIP3    H249152   5.011   0.746   2.188  1.1719 -0.3729 -1.6251
 9221TIP3   OH249153   1.903   3.697  14.801  0.2140  0.4878  0.0281
 9221TIP3    H149154   1.926   3.646  14.879 -0.6792  1.4576  0.9799
 9221TIP3    H249155   1.969   3.767  14.799  0.7948 -0.0672 -0.6482
 9222TIP3   OH249156   3.356   6.400  15.479  0.3161 -0.5394 -0.4036
 9222TIP3    H149157   3.451   6.391  15.470  0.6265  1.3782  0.4408
 9222TIP3    H249158   3.328   6.443  15.398  0.3371 -0.1286 -0.1949
 9223TIP3   OH249159   2.177   5.558   2.779  0.0725  0.6270  0.0024
 9223TIP3    H149160   2.183   5.598   2.866 -0.9763  0.1647  0.3056
 9223TIP3    H249161   2.252   5.499   2.774  1.1603  1.9646 -0.1244
 9224TIP3   OH249162   4.242   2.195   4.633 -0.5270  0.1228  0.5942
 9224TIP3    H149163   4.279   2.270   4.680  0.4842  0.0327 -0.0432
 9224TIP3    H249164   4.241   2.222   4.541 -2.6993  0.3805  0.6394
 9225TIP3   OH249165   0.620   0.430  13.243  0.3588  0.0081  0.0084
 9225TIP3    H149166   0.672   0.389  13.174 -0.5289 -1.6456  0.2875
 9225TIP3    H249167   0.530   0.401  13.227 -0.3790  2.0324  0.1072
 9226TIP3   OH249168   5.679   3.001  14.331  0.1576  0.6794  0.2361
 9226TIP3    H149169   5.718   2.998  14.418  1.8406  0.9146 -0.4592
 9226TIP3    H249170   5.692   3.092  14.303  1.7221  0.1023 -1.1042
 9227TIP3   OH249171   6.098   6.156  13.574  0.5017  0.2240 -0.2953
 9227TIP3    H149172   6.009   6.123  13.566  0.2513  0.0663  2.2580
 9227TIP3    H249173   6.133   6.155  13.485 -2.0896  0.4901 -1.3872
 9228TIP3   OH249174   5.181   5.717  13.692  0.0255 -0.2069 -0.5581
 9228TIP3    H149175   5.145   5.789  13.640 -1.5037 -0.8677 -0.4829
 9228TIP3    H249176   5.104   5.675  13.731  0.8742 -1.8510 -0.5569
 9229TIP3   OH249177   3.966   2.319   3.547 -0.9605  0.1444  0.0405
 9229TIP3    H149178   3.972   2.245   3.607 -2.3080 -0.6083 -0.6880
 9229TIP3    H249179   3.915   2.384   3.595 -1.3107 -0.1225  0.0403
 9230TIP3   OH249180   3.683   3.971  13.299  0.0010  0.4423 -0.8339
 9230TIP3    H149181   3.649   4.052  13.336  0.3560  0.4041 -0.4207
 9230TIP3    H249182   3.627   3.902  13.333 -0.1167  0.4815 -0.9475
 9231TIP3   OH249183   2.822   3.328   4.547  0.1366  0.5541  0.0700
 9231TIP3    H149184   2.832   3.324   4.452 -1.7275  0.1917 -0.1547
 9231TIP3    H249185   2.729   3.345   4.560  0.4593  1.1157  1.8343
 9232TIP3   OH249186   5.795   2.708   2.880  0.4513 -0.0809 -0.3434
 9232TIP3    H149187   5.751   2.623   2.887 -2.9164  1.5736  0.4908
 9232TIP3    H249188   5.757   2.748   2.801  0.3493  1.4750  0.4588
 9233TIP3   OH249189   6.725   0.141   2.053 -0.3770 -0.3686 -0.7231
 9233TIP3    H149190   6.696   0.077   2.118  2.3333 -2.3868 -1.3401
 9233TIP3    H249191   6.748   0.218   2.105 -3.1223  0.0034  0.0938
 9234TIP3   OH249192   5.779   6.000  13.096 -0.1132 -0.4036 -0.1300
 9234TIP3    H149193   5.812   6.027  13.182 -1.8607  1.3091  0.0953
 9234TIP3    H249194   5.839   6.040  13.034 -0.8392  1.4736  0.2876
 9235TIP3   OH249195   6.830   4.565  12.144  0.5551  0.0515  0.3104
 9235TIP3    H149196   6.758   4.537  12.087  1.3826 -0.4363 -0.5278
 9235TIP3    H249197   6.799   4.646  12.184 -0.8994 -0.7113  0.8265
 9236TIP3   OH249198   1.236   0.775   4.112 -0.9334  0.2643  0.7786
 9236TIP3    H149199   1.188   0.804   4.034  1.6492  0.6670 -0.8120
 9236TIP3    H249200   1.213   0.682   4.121 -0.8429  0.0351 -0.8955
 9237TIP3   OH249201   1.932   1.888  12.039 -0.0909 -0.2153 -0.1525
 9237TIP3    H149202   1.996   1.820  12.063  0.8391  0.8060  0.4080
 9237TIP3    H249203   1.985   1.956  11.998 -1.1540 -0.2503 -1.6314
 9238TIP3   OH249204   1.771   5.315  14.804 -0.2947  0.0739  0.3174
 9238TIP3    H149205   1.783   5.377  14.732 -0.7829  0.0382  0.2047
 9238TIP3    H249206   1.842   5.335  14.865  0.6827 -0.5180 -0.6123
 9239TIP3   OH249207   5.505   3.805  13.977  0.1590 -0.1390 -0.2404
 9239TIP3    H149208   5.416   3.804  14.014  0.0328  1.7436 -0.3834
 9239TIP3    H249209   5.548   3.879  14.020  2.0994 -1.7208  0.7094
 9240TIP3   OH249210   4.183   5.896   3.843 -0.2945 -0.4106  0.0420
 9240TIP3    H149211   4.219   5.811   3.817  0.2751  0.1276 -1.0212
 9240TIP3    H249212   4.127   5.877   3.917  2.7538 -1.2378  2.3446
 9241TIP3   OH249213   0.091   1.817  11.441 -0.7347  0.0461 -0.2675
 9241TIP3    H149214   0.038   1.754  11.394  0.5525 -1.6937  0.5105
 9241TIP3    H249215   0.111   1.885  11.376 -2.9955  0.2377 -0.8340
 9242TIP3   OH249216   0.415   3.120   5.296  0.2878 -0.0580 -0.1496
 9242TIP3    H149217   0.454   3.162   5.220  0.5919  1.3811  0.7702
 9242TIP3    H249218   0.328   3.160   5.304 -0.5387 -1.6139 -0.8492
 9243TIP3   OH249219   2.537   4.772  14.875 -0.2169  0.1494  0.2630
 9243TIP3    H149220   2.459   4.802  14.828  0.2384  1.9314  0.5726
 9243TIP3    H249221   2.505   4.753  14.964 -1.0465 -3.0719 -0.5829
 9244TIP3   OH249222   4.819   5.891   0.009 -0.6830 -0.6348  0.2109
 9244TIP3    H149223   4.808   5.799   0.033 -2.3569 -0.2578  1.0585
 9244TIP3    H249224   4.863   5.888  -0.076 -0.6601 -2.2207  0.2439
 9245TIP3   OH249225   1.571   4.502   0.442  0.0032 -0.3461 -0.0989
 9245TIP3    H149226   1.482   4.473   0.422 -1.0186  0.1915  3.1200
 9245TIP3    H249227   1.560   4.573   0.506  2.7215  0.9579 -0.8997
 9246TIP3   OH249228   1.469   2.888   5.917  0.1000  0.0806 -0.5359
 9246TIP3    H149229   1.506   2.969   5.952  0.8993 -0.7710  0.7010
 9246TIP3    H249230   1.436   2.842   5.995 -2.6527  0.3166 -1.4681
 9247TIP3   OH249231   3.316   5.830   2.670 -0.5084  0.1968  0.2348
 9247TIP3    H149232   3.251   5.832   2.739  0.6609 -0.0706  1.3804
 9247TIP3    H249233   3.301   5.746   2.625 -1.0275  0.2046  0.3900
 9248TIP3   OH249234   4.073   5.820   0.314 -0.1995  0.5228  0.1601
 9248TIP3    H149235   4.166   5.824   0.338 -0.0205 -1.6303  0.0226
 9248TIP3    H249236   4.072   5.835   0.220 -0.1434  1.6231  0.3128
 9249TIP3   OH249237   5.825   6.690   5.152 -0.5249 -0.1528 -0.4544
 9249TIP3    H149238   5.826   6.659   5.243 -0.4171  1.5192  0.1547
 9249TIP3    H249239   5.732   6.704   5.133 -0.5379 -0.3882 -0.5740
 9250TIP3   OH249240   2.270   1.599  12.834  0.1013 -0.0613  0.4337
 9250TIP3    H149241   2.184   1.578  12.870 -0.9066  1.9806 -0.5885
 9250TIP3    H249242   2.294   1.681  12.878  1.0699 -0.0897 -0.0239
 9251TIP3   OH249243   5.290   4.418  15.576  0.3185 -0.0511  0.4417
 9251TIP3    H149244   5.359   4.357  15.602 -0.2709 -0.2930  1.4740
 9251TIP3    H249245   5.280   4.405  15.482 -1.2623 -3.1016  0.9121
 9252TIP3   OH249246   4.121   2.498   4.338 -0.1273  0.4344 -0.1112
 9252TIP3    H149247   4.206   2.537   4.316  1.1634 -0.6134  2.5048
 9252TIP3    H249248   4.088   2.551   4.410  0.3291 -1.4668  1.6105
 9253TIP3   OH249249   4.117   2.276   1.177 -0.2294 -0.1688  0.0140
 9253TIP3    H149250   4.047   2.339   1.192 -0.0896  0.3382 -1.3009
 9253TIP3    H249251   4.112   2.216   1.251 -0.7329  1.0461  1.0090
 9254TIP3   OH249252   6.779   0.625   1.011  0.1570 -0.2591 -0.1223
 9254TIP3    H149253   6.855   0.675   1.041  0.1531 -1.6048  2.4061
 9254TIP3    H249254   6.703   0.677   1.037  0.1847 -0.5389  0.5321
 9255TIP3   OH249255   6.420   6.365  16.839  0.0095  0.0101  0.1614
 9255TIP3    H149256   6.433   6.435  16.775 -1.2788  0.4928  0.3970
 9255TIP3    H249257   6.503   6.317  16.840  1.0672  1.7772  0.3029
 9256TIP3   OH249258   0.752   4.704  14.712  0.3738  0.3786  0.5232
 9256TIP3    H149259   0.688   4.654  14.660  0.9219  1.2397 -1.0579
 9256TIP3    H249260   0.730   4.685  14.803 -0.2870 -1.6433 -0.0191
 9257TIP3   OH249261   1.924   2.288   4.459 -0.0407 -0.4737  0.4500
 9257TIP3    H149262   1.985   2.307   4.387 -0.7070  2.5242  0.5340
 9257TIP3    H249263   1.838   2.292   4.418 -0.4372  1.4279  1.3456
 9258TIP3   OH249264   5.598   0.793  12.958  0.5162 -0.6905  0.6197
 9258TIP3    H149265   5.647   0.822  13.035  0.1173 -1.5028  1.1935
 9258TIP3    H249266   5.507   0.791  12.987  0.2597 -0.2226 -0.1260
 9259TIP3   OH249267   5.925   5.936  13.597  0.8542  0.3703  0.4787
 9259TIP3    H149268   5.916   5.922  13.692 -2.1239 -1.9213 -0.0192
 9259TIP3    H249269   5.969   5.858  13.565  1.3178  0.8772 -0.1477
 9260TIP3   OH249270   0.494   2.674  15.018 -0.4099 -0.2300 -0.0835
 9260TIP3    H149271   0.405   2.700  14.992 -0.6052 -1.4453 -0.6926
 9260TIP3    H249272   0.485   2.583  15.046  0.8443 -0.7574 -1.2749
 9261TIP3   OH249273   2.051   5.667   5.768 -0.0864 -0.2390  0.7848
 9261TIP3    H149274   2.058   5.618   5.849 -1.2689 -0.9668  0.4823
 9261TIP3    H249275   2.072   5.604   5.699  2.7918  0.8339  0.5527
 9262TIP3   OH249276   0.656   1.604   3.866 -0.1223  0.0661 -0.6876
 9262TIP3    H149277   0.597   1.528   3.867 -0.0976 -0.0298 -2.4033
 9262TIP3    H249278   0.646   1.640   3.778  0.4769  1.5863 -0.1649
 9263TIP3   OH249279   4.119   3.751  11.264  0.5202 -0.3055 -1.0106
 9263TIP3    H149280   4.103   3.809  11.338  0.2365 -0.9136 -0.5787
 9263TIP3    H249281   4.114   3.807  11.187  0.9675  0.3693 -0.5636
 9264TIP3   OH249282   1.412   5.815   5.934 -0.6715 -0.0624 -0.7351
 9264TIP3    H149283   1.319   5.838   5.938 -0.2414  3.0106 -3.7127
 9264TIP3    H249284   1.452   5.864   6.005 -1.2157 -1.1724  0.3782
 9265TIP3   OH249285   0.552   2.999  12.526  0.0974 -0.0317 -0.0197
 9265TIP3    H149286   0.503   2.918  12.537 -0.8258  0.6651  1.3141
 9265TIP3    H249287   0.630   2.973  12.477 -1.1010 -1.3514 -1.3458
 9266TIP3   OH249288   0.993   5.351   2.261  0.0430 -0.0944 -0.2613
 9266TIP3    H149289   1.082   5.384   2.258 -0.2254  0.5636 -2.5657
 9266TIP3    H249290   0.976   5.336   2.354  1.5771  2.3973  0.5017
 9267TIP3   OH249291   4.013   6.855   6.250  0.0301  0.0159  0.5666
 9267TIP3    H149292   4.063   6.840   6.330  0.5531 -3.0414 -0.1896
 9267TIP3    H249293   3.978   6.768   6.228 -0.1128  0.7540 -2.4804
 9268TIP3   OH249294   4.152   2.207  12.205 -0.3031  0.6331 -0.0138
 9268TIP3    H149295   4.211   2.145  12.249 -0.0447  0.4217 -0.6418
 9268TIP3    H249296   4.169   2.291  12.248  2.8129  1.3021 -2.2167
 9269TIP3   OH249297   3.014   0.719  11.461 -0.1724 -0.3304  0.0207
 9269TIP3    H149298   3.094   0.766  11.442  0.4422 -0.8801  1.1465
 9269TIP3    H249299   3.041   0.628  11.472 -0.7756 -0.3757  1.3708
 9270TIP3   OH249300   2.257   1.305  14.493  0.2105  0.1685 -0.3021
 9270TIP3    H149301   2.307   1.223  14.495  0.1396  0.1252 -0.2915
 9270TIP3    H249302   2.278   1.344  14.408  0.6142  0.3721 -0.1140
 9271TIP3   OH249303   5.810   3.717   2.416 -0.1449  0.0514  0.2837
 9271TIP3    H149304   5.743   3.762   2.365  0.3336  0.5056  0.0469
 9271TIP3    H249305   5.802   3.755   2.504  0.0450  0.3794  0.1632
 9272TIP3   OH249306   0.123   4.999  14.730  0.1878 -0.5567 -0.3569
 9272TIP3    H149307   0.133   4.904  14.720 -1.8237 -0.7455 -0.9496
 9272TIP3    H249308   0.098   5.011  14.822  1.3976 -0.4790 -0.0185
 9273TIP3   OH249309   6.710   1.793   3.122  0.6419  0.3679 -0.2915
 9273TIP3    H149310   6.672   1.853   3.186  1.5730  2.3145 -1.4666
 9273TIP3    H249311   6.801   1.822   3.113  0.7290 -0.2968 -1.9544
 9274TIP3   OH249312   1.007   2.824  10.421  0.1171  0.0427  0.7129
 9274TIP3    H149313   1.035   2.733  10.423 -1.1984 -0.4032 -0.2331
 9274TIP3    H249314   1.032   2.855  10.334 -0.3101  0.2989  0.6782
 9275TIP3   OH249315   3.468   6.862  14.564 -0.6990  0.5943  0.2962
 9275TIP3    H149316   3.493   6.952  14.585 -0.7497  0.3171  1.6472
 9275TIP3    H249317   3.414   6.870  14.484  0.2120  1.6228 -0.2410
 9276TIP3   OH249318   2.052   1.147   5.111  0.2247 -0.3184  0.2110
 9276TIP3    H149319   1.992   1.076   5.090 -1.3142  0.7744  0.6603
 9276TIP3    H249320   2.126   1.105   5.153  0.5815 -1.8929 -1.8410
 9277TIP3   OH249321   2.357   4.864   6.294 -0.1556 -0.0754 -0.2762
 9277TIP3    H149322   2.312   4.826   6.370 -0.4764 -0.7655 -0.8052
 9277TIP3    H249323   2.307   4.834   6.218 -0.5930  1.6606 -0.7163
 9278TIP3   OH249324   1.416   1.865   0.330  0.9866 -0.9957  0.0158
 9278TIP3    H149325   1.378   1.820   0.406  0.9635  2.5571  2.4026
 9278TIP3    H249326   1.511   1.861   0.345  0.9678 -0.0017  0.4577
 9279TIP3   OH249327   2.398   4.518   2.738 -0.7759  0.0897 -0.3607
 9279TIP3    H149328   2.425   4.604   2.769  0.1647 -0.9529  1.9462
 9279TIP3    H249329   2.310   4.506   2.774 -0.0304 -0.7562  1.3267
 9280TIP3   OH249330   5.287   4.868  13.937  0.1342  0.3266 -0.0719
 9280TIP3    H149331   5.275   4.850  13.844 -0.4625  0.7662 -0.0822
 9280TIP3    H249332   5.230   4.804  13.981 -1.4413  1.6455 -0.0877
 9281TIP3   OH249333   4.570   0.785  13.541  0.3744 -0.4115  0.6597
 9281TIP3    H149334   4.663   0.767  13.555  0.3138 -0.2509  1.2947
 9281TIP3    H249335   4.565   0.822  13.453  0.9241 -0.3057  0.6731
 9282TIP3   OH249336   0.666   5.362   5.326  0.4678 -0.4930 -0.0385
 9282TIP3    H149337   0.677   5.323   5.413  0.1507 -1.3258 -0.3671
 9282TIP3    H249338   0.574   5.349   5.305  1.1190 -3.0178 -1.7587
 9283TIP3   OH249339   1.935   2.421   5.893  0.1347 -0.4674 -0.1518
 9283TIP3    H149340   2.027   2.423   5.919  0.2721  1.3381 -0.6585
 9283TIP3    H249341   1.887   2.430   5.976  0.4432 -0.2965  0.0107
 9284TIP3   OH249342   2.936   4.764  15.723 -0.3450 -0.4042 -0.3247
 9284TIP3    H149343   2.972   4.676  15.734 -0.4139 -0.4008 -0.0490
 9284TIP3    H249344   2.855   4.763  15.775  0.0726  0.0639  0.3536
 9285TIP3   OH249345   5.582   1.742  10.624 -0.2916  0.4099  0.5162
 9285TIP3    H149346   5.653   1.682  10.604  0.5110  1.7630 -0.9038
 9285TIP3    H249347   5.508   1.685  10.646  0.1987 -1.1443 -1.5366
 9286TIP3   OH249348   4.104   2.827  15.384  0.4346  0.0211  0.2422
 9286TIP3    H149349   4.096   2.755  15.321  1.4626 -1.7418  2.0251
 9286TIP3    H249350   4.036   2.810  15.449 -0.1121  1.3895  0.0645
 9287TIP3   OH249351   0.667   5.641  12.217  0.0017  0.0096 -0.2410
 9287TIP3    H149352   0.744   5.697  12.224 -0.1589  0.1309  0.6810
 9287TIP3    H249353   0.626   5.667  12.135  1.0086 -0.1534 -0.8115
 9288TIP3   OH249354   3.878   0.869  12.639  0.0435 -0.1845 -0.2179
 9288TIP3    H149355   3.972   0.886  12.646 -0.5029  2.7158  1.5617
 9288TIP3    H249356   3.842   0.947  12.598 -1.6692 -0.9486 -0.2500
 9289TIP3   OH249357   0.132   0.825   2.492 -0.2336 -0.1026  0.5825
 9289TIP3    H149358   0.201   0.789   2.547 -0.7049  1.5026  2.3573
 9289TIP3    H249359   0.145   0.920   2.496 -1.2487  0.1336 -0.8348
 9290TIP3   OH249360   6.858   4.723  16.736 -0.1506  0.5258  0.1606
 9290TIP3    H149361   6.914   4.691  16.806 -0.8362 -1.8034 -0.2886
 9290TIP3    H249362   6.771   4.728  16.776 -0.1674  1.3442  0.0503
 9291TIP3   OH249363   4.247   0.676   1.628 -0.5778  0.0197 -0.3105
 9291TIP3    H149364   4.194   0.755   1.634  1.3151  1.3164  0.1610
 9291TIP3    H249365   4.269   0.668   1.536  1.1791  1.4618 -0.0738
 9292TIP3   OH249366   3.853   1.828   0.773 -0.5843  0.5423  0.4658
 9292TIP3    H149367   3.805   1.778   0.707 -1.3205  3.0186 -1.0332
 9292TIP3    H249368   3.940   1.789   0.775 -0.6733  0.1297 -1.7176
 9293TIP3   OH249369   4.237   0.249  13.954 -0.3265 -0.6352 -0.2259
 9293TIP3    H149370   4.281   0.215  13.877 -1.2776 -1.1139 -0.5719
 9293TIP3    H249371   4.294   0.319  13.985  1.1078 -1.8037 -0.1368
 9294TIP3   OH249372   3.731   4.056   1.860 -0.4833  0.4438  0.6789
 9294TIP3    H149373   3.801   3.991   1.855 -2.3446 -1.8979  2.1758
 9294TIP3    H249374   3.773   4.139   1.840  2.9305 -0.6524  2.4192
 9295TIP3   OH249375   1.958   4.258  13.316 -0.3023 -0.3369 -0.0231
 9295TIP3    H149376   1.920   4.172  13.301 -0.2506 -0.4609  0.5320
 9295TIP3    H249377   1.998   4.252  13.403  0.9945 -0.2219 -0.5853
 9296TIP3   OH249378   2.385   0.467  13.943  0.2606  0.1815 -0.0221
 9296TIP3    H149379   2.291   0.485  13.943 -0.0309 -1.1848  1.0898
 9296TIP3    H249380   2.400   0.414  14.022  2.2241  1.6193  0.6620
 9297TIP3   OH249381   1.057   4.578  12.029 -0.4725 -0.2471  0.2531
 9297TIP3    H149382   1.089   4.614  12.112 -0.7937  0.9890 -0.1293
 9297TIP3    H249383   1.136   4.564  11.977 -0.3987  1.8274 -0.3125
 9298TIP3   OH249384   1.039   6.651  15.742 -0.1948  0.1927  0.2674
 9298TIP3    H149385   0.972   6.659  15.809  0.2821  4.3262  0.4699
 9298TIP3    H249386   1.121   6.674  15.786  0.6778 -0.3693 -0.9852
 9299TIP3   OH249387   0.116   1.257   2.256 -0.1204  0.0444 -0.2406
 9299TIP3    H149388   0.096   1.187   2.318 -1.3023 -0.0184 -0.6737
 9299TIP3    H249389   0.088   1.222   2.171 -0.1235  0.8034 -0.5531
 9300TIP3   OH249390   6.509   2.307  15.834  0.5543  0.5504 -0.0677
 9300TIP3    H149391   6.469   2.224  15.808 -0.3506  0.9010  0.1704
 9300TIP3    H249392   6.455   2.338  15.907  0.8884  1.3464 -0.1503
 9301TIP3   OH249393   5.322   0.221  12.239 -0.6190  0.3370  0.2183
 9301TIP3    H149394   5.378   0.269  12.300 -0.3931 -0.4433  0.6334
 9301TIP3    H249395   5.358   0.132  12.237 -1.2466  0.0807 -0.2644
 9302TIP3   OH249396   5.654   4.071  16.069  0.8365  0.2094 -0.8429
 9302TIP3    H149397   5.568   4.032  16.056  0.8451 -0.1808  0.1229
 9302TIP3    H249398   5.668   4.127  15.993 -0.7461  1.1688 -0.4688
 9303TIP3   OH249399   3.285   1.978   1.251  0.3768 -0.4380 -0.3182
 9303TIP3    H149400   3.199   2.010   1.225  0.8914  3.2109  1.8848
 9303TIP3    H249401   3.267   1.918   1.324 -0.3061 -0.7281 -0.7098
 9304TIP3   OH249402   5.835   0.579  12.841 -0.0325 -0.5233 -0.0463
 9304TIP3    H149403   5.754   0.546  12.801  0.0184 -0.2410 -0.3889
 9304TIP3    H249404   5.805   0.641  12.907 -0.0790  0.5354 -1.0297
 9305TIP3   OH249405   3.087   0.090  12.032  0.1404  0.0920 -0.0754
 9305TIP3    H149406   3.071  -0.005  12.031 -0.8329  0.1999  1.5444
 9305TIP3    H249407   3.060   0.120  11.945 -0.1287 -1.0267 -0.3951
 9306TIP3   OH249408   2.450   0.621  13.229  0.1121 -0.2296  0.1043
 9306TIP3    H149409   2.461   0.621  13.133 -1.9985 -0.9314 -0.1861
 9306TIP3    H249410   2.475   0.710  13.255 -0.3977  0.3535 -1.2590
 9307TIP3   OH249411   4.446   2.706   5.770  0.3313 -0.8454 -0.1814
 9307TIP3    H149412   4.408   2.648   5.704 -0.8746 -2.0948  1.5120
 9307TIP3    H249413   4.540   2.694   5.762  0.1297 -3.4699  0.3979
 9308TIP3   OH249414   3.885   2.611  12.037 -0.0963  0.0641 -0.1013
 9308TIP3    H149415   3.872   2.538  12.098 -0.7042 -0.1335 -0.4537
 9308TIP3    H249416   3.853   2.687  12.085 -1.9115 -0.2930 -0.6449
 9309TIP3   OH249417   0.122   2.077   4.893 -0.2580 -0.0040  0.8012
 9309TIP3    H149418   0.029   2.078   4.915 -0.3471 -0.2998  0.4525
 9309TIP3    H249419   0.134   2.152   4.834 -0.8165 -1.4052 -1.2248
 9310TIP3   OH249420   2.824   2.150   3.440 -0.6919  0.0106 -0.8560
 9310TIP3    H149421   2.860   2.188   3.360 -0.3509 -0.2876 -0.8421
 9310TIP3    H249422   2.899   2.141   3.498 -1.2323  2.1296  0.2752
 9311TIP3   OH249423   2.469   1.660  14.165 -0.9570  0.5472 -0.0152
 9311TIP3    H149424   2.423   1.590  14.212  0.6783 -1.0993 -0.6960
 9311TIP3    H249425   2.420   1.671  14.084 -1.4779  0.4918  0.2930
 9312TIP3   OH249426   6.737   0.377   1.165 -0.1396  0.4086  0.1124
 9312TIP3    H149427   6.767   0.459   1.128  1.6936  1.5999  3.8126
 9312TIP3    H249428   6.809   0.347   1.221 -1.7471 -2.3575  0.9111
 9313TIP3   OH249429   5.603   1.754  11.365 -0.1483  0.4299  0.0335
 9313TIP3    H149430   5.548   1.704  11.426  1.0915  0.1601  0.9799
 9313TIP3    H249431   5.614   1.696  11.289 -1.1946  0.5082 -0.1859
 9314TIP3   OH249432   2.848   5.022  16.603 -0.2928 -0.5634  0.0674
 9314TIP3    H149433   2.918   5.068  16.650 -0.7554  1.1892 -0.8719
 9314TIP3    H249434   2.892   4.984  16.527 -0.2572  0.0797 -0.2377
 9315TIP3   OH249435   4.739   1.166   2.730 -0.6299  0.2797 -0.1007
 9315TIP3    H149436   4.768   1.201   2.815 -0.5633  0.1025 -0.0487
 9315TIP3    H249437   4.800   1.204   2.667 -1.8191  1.9336 -0.3273
 9316TIP3   OH249438   5.554   6.243  10.765 -0.3462 -0.0508 -0.2353
 9316TIP3    H149439   5.550   6.173  10.700  2.2771  0.8327 -1.4991
 9316TIP3    H249440   5.531   6.322  10.717 -0.3701  0.3689  0.4434
 9317TIP3   OH249441   2.670   2.833  15.873 -0.2440 -0.5271  0.4289
 9317TIP3    H149442   2.711   2.898  15.930 -1.0787  0.5025 -0.1097
 9317TIP3    H249443   2.641   2.764  15.933  0.1626 -0.1493  1.0741
 9318TIP3   OH249444   1.345   5.739  13.824  0.5007  0.2717 -0.0738
 9318TIP3    H149445   1.420   5.799  13.825  0.3872  0.4249  1.4222
 9318TIP3    H249446   1.292   5.767  13.899 -0.9872  0.0693 -1.0290
 9319TIP3   OH249447   3.681   6.053   3.583 -0.3635  0.2244 -0.3985
 9319TIP3    H149448   3.668   5.975   3.637  1.4925 -0.5986 -1.0410
 9319TIP3    H249449   3.689   6.125   3.646 -2.5329  0.0296  0.1852
 9320TIP3   OH249450   3.101   2.725   1.402  1.1485 -0.1458 -0.7997
 9320TIP3    H149451   3.166   2.756   1.465  0.3864 -0.8003  0.3579
 9320TIP3    H249452   3.052   2.803   1.376  0.0113 -0.1377  1.1783
 9321TIP3   OH249453   1.716   5.190   2.049  0.3645  0.6732 -0.1702
 9321TIP3    H149454   1.649   5.135   2.009 -0.2441 -0.1799  1.8485
 9321TIP3    H249455   1.670   5.268   2.078 -0.2398 -0.6258  2.7094
 9322TIP3   OH249456   2.570   2.538   1.642  0.2245  0.5968 -0.0972
 9322TIP3    H149457   2.507   2.493   1.698 -0.3006  0.0118 -1.1352
 9322TIP3    H249458   2.647   2.550   1.698 -0.0145 -0.6403  0.5318
 9323TIP3   OH249459   3.619   5.880  11.715  0.0952 -0.1186  0.2940
 9323TIP3    H149460   3.526   5.860  11.702 -0.0457  1.2747 -1.0023
 9323TIP3    H249461   3.658   5.872  11.628  1.1610 -0.4466  0.7838
 9324TIP3   OH249462   3.288   6.638  11.145 -0.3006  0.4724 -0.3424
 9324TIP3    H149463   3.336   6.715  11.115  1.0731 -0.4515 -0.6074
 9324TIP3    H249464   3.338   6.605  11.219 -0.7404 -0.2875 -0.3615
 9325TIP3   OH249465   4.645   5.878  12.841 -0.1924 -0.2506  0.6869
 9325TIP3    H149466   4.712   5.819  12.806 -1.6452 -0.4264 -2.0391
 9325TIP3    H249467   4.689   5.963  12.848  0.7123 -0.6775  0.3972
 9326TIP3   OH249468   3.865   0.274   2.700  0.7638  0.0467 -0.0834
 9326TIP3    H149469   3.898   0.185   2.712  1.7717  0.4198  0.0096
 9326TIP3    H249470   3.915   0.327   2.762 -0.0275  0.6417  0.0708
 9327TIP3   OH249471   6.427   0.348   3.669  0.4985 -0.1068  0.1093
 9327TIP3    H149472   6.356   0.404   3.636  0.6389  0.8628  1.3651
 9327TIP3    H249473   6.505   0.378   3.622  0.7399  1.4178  1.3953
 9328TIP3   OH249474   5.699   2.315  15.893 -0.2090  0.1333  0.4826
 9328TIP3    H149475   5.621   2.271  15.927 -0.1259 -0.8982 -0.5925
 9328TIP3    H249476   5.772   2.264  15.927 -0.0884 -0.1685 -0.2186
 9329TIP3   OH249477   1.870   1.690  14.323  0.0512 -0.2619 -0.3539
 9329TIP3    H149478   1.917   1.715  14.403 -0.7369  1.2827 -0.3437
 9329TIP3    H249479   1.901   1.752  14.257  1.0688 -1.8279 -1.4245
 9330TIP3   OH249480   2.026   3.999   2.677 -0.1825 -0.1045  0.3704
 9330TIP3    H149481   1.955   4.037   2.624 -0.1710 -0.9769 -0.2799
 9330TIP3    H249482   2.027   3.906   2.654  0.3559 -0.3490  1.3111
 9331TIP3   OH249483   1.571   0.043   4.756 -0.1886  0.6032 -0.4712
 9331TIP3    H149484   1.501  -0.022   4.764 -1.0103  1.3896 -1.0964
 9331TIP3    H249485   1.527   0.127   4.765  0.6236  1.1308 -1.2264
 9332TIP3   OH249486   5.848   5.319  11.081  0.1047  0.0024 -0.0253
 9332TIP3    H149487   5.857   5.335  11.175 -2.0166 -1.3079  0.4712
 9332TIP3    H249488   5.932   5.283  11.055  0.5634 -0.0839  1.4753
 9333TIP3   OH249489   3.836   4.366   0.001  0.1111 -0.2512 -0.1712
 9333TIP3    H149490   3.852   4.363   0.095 -1.1506  2.1533  0.2011
 9333TIP3    H249491   3.846   4.275  -0.028 -0.9117 -1.3398  2.5256
 9334TIP3   OH249492   2.204   1.367   0.708 -0.0086  0.2286  0.3163
 9334TIP3    H149493   2.199   1.399   0.799 -0.9537  0.1186  0.3056
 9334TIP3    H249494   2.117   1.335   0.689 -0.0745  1.1088 -0.9570
 9335TIP3   OH249495   6.803   3.289   4.042 -0.1315 -0.0752  0.6652
 9335TIP3    H149496   6.831   3.369   4.087 -1.0236 -0.0904  1.2777
 9335TIP3    H249497   6.791   3.225   4.113  2.7592 -1.5019  0.0418
 9336TIP3   OH249498   6.231   5.477   5.285  0.1003  0.4644 -0.2924
 9336TIP3    H149499   6.171   5.445   5.218  0.7697  2.0919 -1.7189
 9336TIP3    H249500   6.191   5.559   5.316 -0.1685 -0.2275  1.2970
 9337TIP3   OH249501   2.729   0.700   5.607 -0.0571 -0.2011  0.9626
 9337TIP3    H149502   2.718   0.721   5.514  0.3166  0.8377  1.1380
 9337TIP3    H249503   2.819   0.726   5.627 -1.1384  3.0106  2.4217
 9338TIP3   OH249504   5.008   2.773  13.409 -0.3889  0.0900  0.1373
 9338TIP3    H149505   4.962   2.798  13.330 -2.2933  0.9877  1.4538
 9338TIP3    H249506   5.046   2.854  13.442  1.4473 -0.4844 -0.4462
 9339TIP3   OH249507   5.388   6.577   1.362  0.5811  0.4264 -0.6570
 9339TIP3    H149508   5.308   6.623   1.387  0.3643 -0.5696  0.5919
 9339TIP3    H249509   5.358   6.503   1.310  0.5684 -0.5223  0.6491
 9340TIP3   OH249510   6.141   3.674   3.603 -0.8244 -0.6388  0.4675
 9340TIP3    H149511   6.135   3.641   3.693 -0.9705  1.2518  1.2082
 9340TIP3    H249512   6.169   3.765   3.613 -0.0557 -0.6144 -1.4643
 9341TIP3   OH249513   1.852   5.833  16.592 -0.1864  0.0904 -0.2658
 9341TIP3    H149514   1.865   5.925  16.614  1.1140 -0.7043  2.7251
 9341TIP3    H249515   1.787   5.834  16.522  0.5288  3.2980 -1.0417
 9342TIP3   OH249516   2.934   5.457   4.745  0.1676  0.3061  0.6090
 9342TIP3    H149517   2.972   5.473   4.831  2.4849 -1.3980  0.0075
 9342TIP3    H249518   2.954   5.536   4.695  2.3351 -0.2093  0.5642
 9343TIP3   OH249519   3.593   0.572   5.586  0.0928  0.2025  0.0350
 9343TIP3    H149520   3.620   0.662   5.570  2.7121 -0.4659  0.2473
 9343TIP3    H249521   3.636   0.548   5.667 -1.3510 -0.9744  0.4990
 9344TIP3   OH249522   3.899   1.490   2.938 -0.5783 -0.0909 -0.0577
 9344TIP3    H149523   3.839   1.561   2.912 -0.9473  0.3758  1.8977
 9344TIP3    H249524   3.983   1.534   2.950 -0.6103 -0.1324  0.3308
 9345TIP3   OH249525   0.410   4.866   4.449 -0.0699  0.4137  0.5509
 9345TIP3    H149526   0.402   4.778   4.411 -1.2421 -0.0433  1.7686
 9345TIP3    H249527   0.369   4.858   4.536 -0.3162  2.2028  0.6320
 9346TIP3   OH249528   6.132   5.840  15.235 -0.4108 -0.1785 -0.1774
 9346TIP3    H149529   6.144   5.764  15.292  0.0409  0.2712  0.3324
 9346TIP3    H249530   6.217   5.884  15.234 -0.5461  0.0887 -0.8148
 9347TIP3   OH249531   3.146   6.577  10.101  0.2118 -0.1258  0.0097
 9347TIP3    H149532   3.083   6.601  10.033  0.1184  1.1283  0.5086
 9347TIP3    H249533   3.225   6.553  10.052  0.0311  0.4056 -0.5698
 9348TIP3   OH249534   2.582   3.765  16.557 -0.1447  0.9190 -0.0418
 9348TIP3    H149535   2.491   3.779  16.581  0.1544  0.5322  1.4811
 9348TIP3    H249536   2.579   3.709  16.479 -1.2045  1.0284 -0.0834
 9349TIP3   OH249537   3.547   3.772  13.418  0.4383 -0.3296  0.2003
 9349TIP3    H149538   3.570   3.703  13.481 -0.1729 -0.1950  0.5800
 9349TIP3    H249539   3.535   3.726  13.335 -1.3024 -0.9126  0.7262
 9350TIP3   OH249540   5.485   1.783  10.015  0.5395 -0.1774  0.3367
 9350TIP3    H149541   5.524   1.821  10.095  0.3251 -0.4633  0.5772
 9350TIP3    H249542   5.462   1.859   9.962  1.2863  0.0047  0.2547
 9351TIP3   OH249543   1.700   2.111   0.538 -0.0511 -0.3688  0.2018
 9351TIP3    H149544   1.754   2.187   0.560  0.3136 -0.8107  0.8628
 9351TIP3    H249545   1.672   2.076   0.622 -3.0634  0.9932 -0.0989
 9352TIP3   OH249546   6.255   6.861  11.489 -0.0003  0.2997 -0.5499
 9352TIP3    H149547   6.316   6.790  11.506 -1.1065 -0.6014 -0.1849
 9352TIP3    H249548   6.310   6.935  11.465  1.1550 -1.4496 -4.1410
 9353TIP3   OH249549   0.614   1.682  16.766  0.3856  0.2274 -0.0247
 9353TIP3    H149550   0.658   1.767  16.762  0.9525  0.0348  1.3868
 9353TIP3    H249551   0.521   1.704  16.765  0.4902  0.7291 -1.5898
 9354TIP3   OH249552   0.554   1.115  15.902  0.8378 -0.8803  0.0065
 9354TIP3    H149553   0.529   1.100  15.993  0.5800 -0.8384 -0.0562
 9354TIP3    H249554   0.647   1.092  15.898  0.9887 -0.3619  0.4017
 9355TIP3   OH249555   5.429   5.238   5.917  0.3247  1.0845 -1.0186
 9355TIP3    H149556   5.383   5.296   5.978  2.0276  1.2606  0.1593
 9355TIP3    H249557   5.375   5.239   5.838 -1.3867  1.7008  0.1033
 9356TIP3   OH249558   3.329   0.925  13.457  0.1502  0.3216 -0.1234
 9356TIP3    H149559   3.289   0.926  13.544  1.1017  0.5874  0.3252
 9356TIP3    H249560   3.354   1.016  13.441 -0.8341  0.4386 -1.0731
 9357TIP3   OH249561   1.448   6.567   3.994  0.3679  0.0741 -0.2679
 9357TIP3    H149562   1.516   6.634   3.984 -0.8921  1.2304 -1.7550
 9357TIP3    H249563   1.477   6.495   3.938  0.3220  0.6263 -1.0181
 9358TIP3   OH249564   3.982   2.796   0.049  0.2333 -0.5615  0.1361
 9358TIP3    H149565   4.038   2.873   0.052  0.4711 -0.7344  0.1618
 9358TIP3    H249566   4.032   2.727   0.093 -0.2758 -0.5455  0.7634
 9359TIP3   OH249567   1.524   4.510   1.024  0.4789  0.1405 -0.3394
 9359TIP3    H149568   1.461   4.465   0.968  1.5517 -0.0569 -1.4342
 9359TIP3    H249569   1.471   4.563   1.083 -0.6990  0.1564 -1.3842
 9360TIP3   OH249570   0.302   4.847  12.176 -0.8009 -0.3196  0.2657
 9360TIP3    H149571   0.227   4.862  12.119 -0.2755 -0.6196 -0.5107
 9360TIP3    H249572   0.272   4.780  12.238 -0.4917 -2.0815 -1.4071
 9361TIP3   OH249573   6.664   4.899   3.949 -0.1794 -0.3884 -0.4121
 9361TIP3    H149574   6.697   4.839   4.015  1.2048 -1.0610 -1.6665
 9361TIP3    H249575   6.710   4.981   3.965 -0.1550 -0.4266 -0.2887
 9362TIP3   OH249576   6.539   4.821   3.103 -0.1691  0.5828 -0.0775
 9362TIP3    H149577   6.505   4.732   3.089  1.8753 -0.0765 -1.2260
 9362TIP3    H249578   6.483   4.876   3.047  0.7649 -0.5213 -2.2297
 9363TIP3   OH249579   4.798   4.631  16.030  0.2592 -0.1335  0.0374
 9363TIP3    H149580   4.739   4.696  16.067 -1.5058 -0.5733 -1.8595
 9363TIP3    H249581   4.793   4.556  16.090  2.0421  1.2259  2.0471
 9364TIP3   OH249582   3.097   3.034   3.573 -0.0620 -0.0976 -0.1844
 9364TIP3    H149583   3.150   2.954   3.569 -0.2445 -0.1739 -1.1572
 9364TIP3    H249584   3.135   3.091   3.506  1.4413  1.5065  1.8578
 9365TIP3   OH249585   1.548   2.551  12.895  0.1556  0.1752  0.0155
 9365TIP3    H149586   1.532   2.479  12.956 -2.5556  0.7690  0.1377
 9365TIP3    H249587   1.560   2.510  12.810 -0.3957 -0.4672  0.2435
 9366TIP3   OH249588   3.755   5.453   4.601 -0.1304 -0.5379  0.3843
 9366TIP3    H149589   3.701   5.426   4.675 -0.0053 -1.9706 -0.0210
 9366TIP3    H249590   3.844   5.452   4.634 -0.1214 -0.6419  0.3550
 9367TIP3   OH249591   3.221   0.099   1.780 -0.2238 -0.6530 -0.3625
 9367TIP3    H149592   3.225   0.059   1.693  0.1535  1.3280 -1.3078
 9367TIP3    H249593   3.128   0.101   1.801 -0.5877  1.1012 -1.8748
 9368TIP3   OH249594   1.718   5.264   3.039 -0.6218  0.8876  0.1980
 9368TIP3    H149595   1.628   5.296   3.044 -1.0738 -0.2007 -0.5136
 9368TIP3    H249596   1.772   5.339   3.062 -1.6889  1.7581 -0.0603
 9369TIP3   OH249597   5.175   5.901  11.717  0.1999  0.4735  0.4049
 9369TIP3    H149598   5.180   5.990  11.682  0.1370 -0.3497 -1.9341
 9369TIP3    H249599   5.265   5.868  11.711  0.1225  0.2059  0.7229
 9370TIP3   OH249600   6.411   0.270  16.570 -0.1960  0.1345 -0.0915
 9370TIP3    H149601   6.434   0.234  16.656  1.0722 -1.1733 -0.9231
 9370TIP3    H249602   6.478   0.336  16.553 -0.9639  1.0333  0.2752
 9371TIP3   OH249603   4.173   1.735  15.254  0.0284 -0.2587 -0.2234
 9371TIP3    H149604   4.102   1.726  15.318  0.6081  2.1799  0.9062
 9371TIP3    H249605   4.219   1.651  15.256 -1.3354 -1.0114  0.8806
 9372TIP3   OH249606   2.048   3.217  13.651  0.3907  0.3610 -0.1330
 9372TIP3    H149607   2.085   3.248  13.569  1.4962  1.4254  0.7336
 9372TIP3    H249608   1.968   3.171  13.625  1.2600 -0.2544 -1.8767
 9373TIP3   OH249609   4.487   5.501  15.608  0.1212  0.6125 -0.2022
 9373TIP3    H149610   4.429   5.434  15.644  1.9069 -0.3840  1.0574
 9373TIP3    H249611   4.529   5.458  15.533 -1.7279  1.8127 -1.9985
 9374TIP3   OH249612   3.147   0.526   1.695 -0.4155 -0.4004 -0.1602
 9374TIP3    H149613   3.166   0.617   1.671 -1.9512  0.2209  0.8348
 9374TIP3    H249614   3.195   0.513   1.777  0.5167 -0.7969 -0.7517
 9375TIP3   OH249615   0.478   0.366   4.480 -0.4096 -0.5057 -0.5927
 9375TIP3    H149616   0.570   0.391   4.488 -0.5153 -0.4223  0.5320
 9375TIP3    H249617   0.431   0.450   4.483 -0.6108 -0.6422  0.5878
 9376TIP3   OH249618   1.296   2.938   3.215 -0.6066  0.0659  0.2664
 9376TIP3    H149619   1.344   2.981   3.145  0.5862 -0.4167  0.7476
 9376TIP3    H249620   1.320   2.845   3.207 -2.9081 -0.5248 -0.5911
 9377TIP3   OH249621   2.491   3.682   5.100 -0.0506 -0.0734  0.3019
 9377TIP3    H149622   2.401   3.648   5.104  0.4432 -1.3999  0.6991
 9377TIP3    H249623   2.507   3.716   5.188  1.0716 -3.2949  1.4979
 9378TIP3   OH249624   1.056   0.783   3.344 -0.4399  0.2461  0.0456
 9378TIP3    H149625   0.998   0.711   3.317 -0.3158  0.3650 -0.5334
 9378TIP3    H249626   1.049   0.847   3.274  0.2460  0.3526  0.0738
 9379TIP3   OH249627   6.406   4.012   2.196 -0.3618 -0.1072  0.3366
 9379TIP3    H149628   6.408   3.979   2.286 -0.3070 -4.1161 -0.9530
 9379TIP3    H249629   6.315   4.003   2.168 -0.1441 -0.1830 -0.3868
 9380TIP3   OH249630   5.691   2.664   1.403 -0.2700 -0.8632 -0.5707
 9380TIP3    H149631   5.676   2.755   1.376  0.1855 -0.4035  0.6666
 9380TIP3    H249632   5.605   2.632   1.428 -0.4589 -0.8276 -1.1679
 9381TIP3   OH249633   4.976   2.691   3.728 -0.4259  0.2457 -1.0324
 9381TIP3    H149634   5.062   2.683   3.770 -1.1552 -1.2375  0.3024
 9381TIP3    H249635   4.958   2.605   3.692 -2.3667 -0.2506  0.8860
 9382TIP3   OH249636   4.603   4.706   3.115  0.5561 -0.5798 -0.0424
 9382TIP3    H149637   4.526   4.736   3.163 -0.7579 -2.6485 -0.7357
 9382TIP3    H249638   4.669   4.774   3.130 -0.9801  0.6223  1.6225
 9383TIP3   OH249639   0.992   6.208   5.463  0.1593  0.4998 -0.2852
 9383TIP3    H149640   1.051   6.162   5.403  0.4237  0.5558 -0.0742
 9383TIP3    H249641   1.045   6.223   5.541  0.3675  1.9644 -0.6761
 9384TIP3   OH249642   4.848   6.488   4.710 -0.2337  0.1416  0.1789
 9384TIP3    H149643   4.851   6.508   4.616  1.5405  2.7056  0.6747
 9384TIP3    H249644   4.770   6.533   4.742 -1.0356 -1.0255 -0.0890
 9385TIP3   OH249645   6.872   5.766   1.181  0.2390  0.0099 -0.0867
 9385TIP3    H149646   6.810   5.740   1.114  0.7358  0.2910 -0.6663
 9385TIP3    H249647   6.869   5.696   1.246 -0.9466  0.2039  0.0825
 9386TIP3   OH249648   6.614   1.992  13.914 -0.1763 -0.9810 -0.7089
 9386TIP3    H149649   6.554   2.005  13.988  0.1223  1.8047 -0.8351
 9386TIP3    H249650   6.558   1.982  13.838 -0.5743  0.9434 -0.7273
 9387TIP3   OH249651   4.334   0.905  11.149 -0.4477 -0.2342 -0.0505
 9387TIP3    H149652   4.285   0.875  11.072 -1.2502  0.1302  0.3071
 9387TIP3    H249653   4.286   0.983  11.178  0.4956  0.2744  0.1627
 9388TIP3   OH249654   2.285   1.580   5.561 -0.2000 -0.2496 -0.0170
 9388TIP3    H149655   2.369   1.613   5.594  0.4050 -0.6698 -1.0930
 9388TIP3    H249656   2.219   1.635   5.604  0.6531  0.4734  0.3956
 9389TIP3   OH249657   0.135   6.530  11.787 -0.7361 -0.1300  0.1567
 9389TIP3    H149658   0.162   6.444  11.819 -2.2059 -1.1087 -1.0699
 9389TIP3    H249659   0.165   6.532  11.696  0.2792  1.1531  0.4906
 9390TIP3   OH249660   1.189   6.449  12.023  0.0239 -0.0526  0.5047
 9390TIP3    H149661   1.234   6.530  12.049  1.6741 -1.1745  1.3003
 9390TIP3    H249662   1.119   6.439  12.087 -0.5330  0.9988  0.0879
 9391TIP3   OH249663   5.782   3.464   1.302 -0.4196  0.1014 -0.5879
 9391TIP3    H149664   5.855   3.446   1.243  0.4577 -0.4122  0.6198
 9391TIP3    H249665   5.788   3.557   1.321  1.1737 -0.2838  1.0643
 9392TIP3   OH249666   3.575   4.916   1.813  0.4117  0.1970  0.2057
 9392TIP3    H149667   3.647   4.923   1.876  0.7461  1.9732 -0.3050
 9392TIP3    H249668   3.617   4.892   1.731  0.2502 -0.0668  0.2007
 9393TIP3   OH249669   2.685   6.647   1.683  0.0301 -0.2185  0.9512
 9393TIP3    H149670   2.636   6.633   1.602  0.4912  1.1555  0.3900
 9393TIP3    H249671   2.766   6.597   1.671  0.3286  0.3993  0.3203
 9394TIP3   OH249672   4.376   0.627   4.466  0.1671 -0.4196  0.6065
 9394TIP3    H149673   4.438   0.697   4.451  0.3170 -0.4382  1.1056
 9394TIP3    H249674   4.291   0.671   4.475  0.3744 -0.2015  1.7364
 9395TIP3   OH249675   3.124   0.459  12.592  0.3918  0.3495 -0.0564
 9395TIP3    H149676   3.100   0.523  12.525  0.5970  1.0872  0.5491
 9395TIP3    H249677   3.193   0.406  12.552  0.3546  0.6350 -0.5033
 9396TIP3   OH249678   3.695   4.442   3.976  0.2348 -0.0662  0.6249
 9396TIP3    H149679   3.664   4.453   3.885  1.5987 -0.6515  0.0630
 9396TIP3    H249680   3.750   4.519   3.991  0.2139 -0.1009  0.8700
 9397TIP3   OH249681   2.678   5.333   3.890 -0.1951  0.2615  0.2741
 9397TIP3    H149682   2.653   5.360   3.802 -2.0898 -0.5507  0.5225
 9397TIP3    H249683   2.725   5.250   3.877  0.4966  0.6867 -0.0249
 9398TIP3   OH249684   1.527   1.919  16.368  0.6943  0.5823 -0.1907
 9398TIP3    H149685   1.512   2.013  16.362  1.0019  0.5515 -1.9075
 9398TIP3    H249686   1.491   1.894  16.453 -2.5063  1.6825 -1.1005
 9399TIP3   OH249687   1.097   2.980  15.799 -0.6124 -0.1100  0.0365
 9399TIP3    H149688   1.095   3.076  15.802  0.0272 -0.1020  0.3608
 9399TIP3    H249689   1.150   2.959  15.723  0.6118 -0.1840  0.8819
 9400TIP3   OH249690   3.188   6.305   4.571  0.0227  0.0689 -0.2729
 9400TIP3    H149691   3.124   6.357   4.523 -1.1311 -1.3645 -0.3494
 9400TIP3    H249692   3.265   6.304   4.514  0.2771  2.0493 -0.0481
 9401TIP3   OH249693   2.861   6.330  12.763  0.6285  0.1196 -0.5505
 9401TIP3    H149694   2.809   6.258  12.799 -1.1421  0.8101 -1.5883
 9401TIP3    H249695   2.900   6.294  12.684  0.0798  0.1816 -0.8492
 9402TIP3   OH249696   3.392   2.637  12.316  0.4268  0.4402 -0.0538
 9402TIP3    H149697   3.438   2.572  12.369 -1.5287 -1.9242 -1.0632
 9402TIP3    H249698   3.375   2.709  12.377  1.4415 -0.5746  1.5271
 9403TIP3   OH249699   0.742   5.319   2.986  0.7618 -0.8304  0.5136
 9403TIP3    H149700   0.835   5.300   2.992  0.8581 -0.4663  0.2446
 9403TIP3    H249701   0.702   5.272   3.059  1.2754 -0.2141  1.1955
 9404TIP3   OH249702   2.685   1.608   1.932  0.3278 -0.1443  0.0572
 9404TIP3    H149703   2.660   1.561   2.012 -0.8158 -0.0843 -0.2438
 9404TIP3    H249704   2.604   1.648   1.902  0.9516  0.6477 -0.6068
 9405TIP3   OH249705   1.698   2.797   4.728 -0.8145  0.3160  0.2253
 9405TIP3    H149706   1.615   2.845   4.736  0.4168  2.6278  0.0616
 9405TIP3    H249707   1.722   2.775   4.818 -1.8504 -0.8766  0.2310
 9406TIP3   OH249708   3.970   3.318  16.744  0.1006  0.1550 -0.2541
 9406TIP3    H149709   4.033   3.380  16.706  0.6473 -0.2180  0.0251
 9406TIP3    H249710   3.934   3.271  16.669  3.1115 -2.4512 -0.2695
 9407TIP3   OH249711   5.086   0.918   3.584  0.3594 -0.4592 -0.3000
 9407TIP3    H149712   5.020   0.875   3.530 -0.4678  0.0981  0.2331
 9407TIP3    H249713   5.168   0.873   3.564 -0.2250 -1.3095 -0.8154
 9408TIP3   OH249714   4.034   1.655   2.036 -0.4806 -0.3119  0.2292
 9408TIP3    H149715   4.029   1.607   2.119  3.0834 -0.0781  0.7167
 9408TIP3    H249716   4.105   1.718   2.048 -2.2861  2.3716 -1.8030
 9409TIP3   OH249717   3.933   0.240   2.049  0.4366 -0.5983 -0.2329
 9409TIP3    H149718   3.982   0.244   1.967  0.3958  1.8243 -0.2015
 9409TIP3    H249719   4.001   0.245   2.117  0.3685 -0.8748 -0.1456
 9410TIP3   OH249720   3.558   2.119  11.883 -0.2077 -0.2021 -0.1376
 9410TIP3    H149721   3.504   2.197  11.869 -1.0132 -1.0012 -1.7762
 9410TIP3    H249722   3.505   2.047  11.847  0.4358 -1.5435  1.4868
 9411TIP3   OH249723   6.520   6.592   4.708 -0.1909 -0.2427 -0.0617
 9411TIP3    H149724   6.428   6.598   4.731 -0.3235  1.0501 -0.8374
 9411TIP3    H249725   6.521   6.568   4.615  0.2767 -0.9214  0.1058
 9412TIP3   OH249726   5.906   5.231  15.868 -0.4320  0.2817 -0.1042
 9412TIP3    H149727   5.917   5.301  15.932 -0.9076 -0.4653  0.8330
 9412TIP3    H249728   5.972   5.166  15.893  0.0177  0.3972 -0.9706
 9413TIP3   OH249729   3.243   2.351  12.013  0.1127  0.5897  0.3884
 9413TIP3    H149730   3.198   2.384  12.091 -0.4674 -0.0323  0.3268
 9413TIP3    H249731   3.329   2.394  12.014 -0.4990  1.8158  0.4820
 9414TIP3   OH249732   2.956   4.942   2.754 -0.4954  0.4647  0.9717
 9414TIP3    H149733   2.876   4.975   2.712 -0.2892 -0.1524  0.0822
 9414TIP3    H249734   2.964   4.852   2.724  0.8502  0.6893  0.5965
 9415TIP3   OH249735   2.303   3.602   0.647  0.1902 -0.3850  0.2983
 9415TIP3    H149736   2.301   3.557   0.562 -0.5930 -1.4484  0.8570
 9415TIP3    H249737   2.331   3.691   0.626  1.0723 -0.9220 -0.9398
 9416TIP3   OH249738   0.295   3.637   5.725 -0.5335  0.1135 -0.3380
 9416TIP3    H149739   0.221   3.697   5.722 -0.4673  0.1878 -0.4720
 9416TIP3    H249740   0.281   3.578   5.651 -0.2281  0.3972 -0.6219
 9417TIP3   OH249741   6.738   0.387   0.319 -0.3243 -0.2878 -0.3273
 9417TIP3    H149742   6.703   0.343   0.242 -2.7099  1.9669 -0.6581
 9417TIP3    H249743   6.833   0.373   0.314 -0.6680 -2.4051 -2.1843
 9418TIP3   OH249744   0.582   4.563  14.561 -0.1043 -0.8663  0.4718
 9418TIP3    H149745   0.516   4.591  14.498  1.1129  0.5395 -0.2220
 9418TIP3    H249746   0.562   4.470  14.577 -3.1586 -0.1583  1.4595
 9419TIP3   OH249747   1.260   5.300   4.001 -0.8031  0.4453 -0.3474
 9419TIP3    H149748   1.298   5.231   3.946 -1.3661  0.4765 -0.7753
 9419TIP3    H249749   1.187   5.257   4.046 -0.0694  0.2971  0.7383
 9420TIP3   OH249750   2.382   2.861   2.538 -0.0451  0.4742  0.4759
 9420TIP3    H149751   2.384   2.792   2.604  1.9809  0.0916  0.0902
 9420TIP3    H249752   2.471   2.898   2.538 -0.1451  0.8687 -1.5658
 9421TIP3   OH249753   0.117   1.600   0.638  0.2174  0.1195 -0.6979
 9421TIP3    H149754   0.189   1.548   0.672 -0.1333 -0.2987 -0.5779
 9421TIP3    H249755   0.065   1.624   0.715  0.2645  0.4797 -0.7733
 9422TIP3   OH249756   2.136   2.884  11.509 -0.0965 -0.2390 -0.0522
 9422TIP3    H149757   2.083   2.849  11.438 -0.3769 -1.3375  0.6615
 9422TIP3    H249758   2.079   2.947  11.554 -0.5382 -0.8385  0.2400
 9423TIP3   OH249759   0.096   4.704  15.661  0.0920 -0.0066 -0.1117
 9423TIP3    H149760   0.064   4.653  15.586  0.4710 -2.6195  1.3550
 9423TIP3    H249761   0.030   4.772  15.673 -2.2602 -2.0507 -0.3375
 9424TIP3   OH249762   3.620   2.910   3.571  0.4516  0.3259 -0.5491
 9424TIP3    H149763   3.662   2.893   3.655 -2.5382 -0.1431  0.9857
 9424TIP3    H249764   3.625   3.005   3.560 -0.1866  0.5434  0.8239
 9425TIP3   OH249765   1.382   6.401  15.264  0.2914 -0.0379 -0.8666
 9425TIP3    H149766   1.333   6.405  15.346  1.5643 -0.9038 -0.0340
 9425TIP3    H249767   1.373   6.311  15.235  1.4564 -0.2389 -0.6427
 9426TIP3   OH249768   2.402   5.890  15.583  0.1427  0.1578 -0.5656
 9426TIP3    H149769   2.457   5.839  15.643 -0.0164  1.0119  0.3276
 9426TIP3    H249770   2.400   5.978  15.620 -1.8965  0.1511 -0.5096
 9427TIP3   OH249771   6.439   3.256   1.256  0.5678 -0.2633 -0.1783
 9427TIP3    H149772   6.499   3.325   1.230 -1.2286  1.1415 -0.7950
 9427TIP3    H249773   6.496   3.184   1.285  2.5027  1.3605  0.2703
 9428TIP3   OH249774   6.723   0.486   2.431 -0.0323  0.0632 -0.5235
 9428TIP3    H149775   6.730   0.408   2.486  0.5358  2.0475  2.4210
 9428TIP3    H249776   6.630   0.508   2.431  0.1025  0.7388  0.7739
 9429TIP3   OH249777   1.955   1.540  16.393 -0.5250 -0.1755 -1.0012
 9429TIP3    H149778   1.957   1.635  16.380  0.3976 -0.2204 -1.3049
 9429TIP3    H249779   1.874   1.524  16.441 -0.8405  0.7307 -1.2078
 9430TIP3   OH249780   0.156   4.263   3.514  0.4956  0.2050  0.0664
 9430TIP3    H149781   0.190   4.321   3.446  0.0638 -1.6269 -1.8468
 9430TIP3    H249782   0.071   4.301   3.538 -0.2327 -0.0442 -1.8571
 9431TIP3   OH249783   0.035   6.410  12.138  0.4414  0.0502  0.3266
 9431TIP3    H149784  -0.021   6.440  12.066  0.0944  1.4632  1.1579
 9431TIP3    H249785  -0.027   6.373  12.202  0.3109  2.2028  1.5400
 9432TIP3   OH249786   4.783   4.696   1.227  0.7724  0.1701 -0.4095
 9432TIP3    H149787   4.786   4.668   1.136 -1.0279 -0.0239 -0.4486
 9432TIP3    H249788   4.737   4.626   1.273  0.7044  0.7533  0.4412
 9433TIP3   OH249789   6.761   3.677  14.672  0.3818 -0.5025 -0.3142
 9433TIP3    H149790   6.722   3.599  14.634  0.5149 -0.4209 -0.6210
 9433TIP3    H249791   6.704   3.749  14.643  0.5150 -0.4343 -0.4078
 9434TIP3   OH249792   4.397   4.698  15.166 -0.3415  0.5140  0.8687
 9434TIP3    H149793   4.435   4.627  15.217 -0.8330  0.0698  0.6303
 9434TIP3    H249794   4.305   4.700  15.192 -0.7479 -0.1103 -0.3929
 9435TIP3   OH249795   3.116   2.839  16.390  0.0397  0.1193  0.3798
 9435TIP3    H149796   3.162   2.783  16.328  1.0515  0.0209  1.1893
 9435TIP3    H249797   3.062   2.778  16.441 -0.3621  0.1310 -0.0310
 9436TIP3   OH249798   5.641   4.581   3.916 -0.2978  0.4639  0.3070
 9436TIP3    H149799   5.598   4.607   3.835 -2.3161  1.8867  1.7543
 9436TIP3    H249800   5.682   4.496   3.895 -2.5428 -0.2483 -1.6157
 9437TIP3   OH249801   2.101   0.998   0.781 -1.1453  0.5878  0.1190
 9437TIP3    H149802   2.183   0.949   0.769 -0.5936  1.4252  0.4287
 9437TIP3    H249803   2.099   1.019   0.875 -2.1692 -0.1925  0.2999
 9438TIP3   OH249804   5.633   5.228   4.071  0.0446  0.0320 -0.8746
 9438TIP3    H149805   5.553   5.238   4.021 -0.1997  0.6499 -0.3734
 9438TIP3    H249806   5.675   5.314   4.067 -0.7630  0.6094  1.2698
 9439TIP3   OH249807   6.652   2.478   1.945  0.0490 -0.0938 -0.4186
 9439TIP3    H149808   6.622   2.523   1.866 -0.4963 -0.2834 -0.3261
 9439TIP3    H249809   6.573   2.439   1.982  0.3133 -0.1066  0.1577
 9440TIP3   OH249810   0.329   1.378   0.603  0.2252  0.1599 -0.1629
 9440TIP3    H149811   0.363   1.425   0.527  0.6281  0.5181  0.2396
 9440TIP3    H249812   0.391   1.397   0.673  0.6348 -1.3162 -0.0971
 9441TIP3   OH249813   6.858   1.989  14.476  0.4157  0.0800 -0.0999
 9441TIP3    H149814   6.763   1.996  14.482  0.2239 -1.6635 -0.4310
 9441TIP3    H249815   6.891   2.059  14.531 -1.0708 -0.0093  0.9710
 9442TIP3   OH249816   4.470   0.861   0.036  0.4464  0.4615 -0.5750
 9442TIP3    H149817   4.470   0.842  -0.058  3.2095 -0.3594 -0.5124
 9442TIP3    H249818   4.562   0.878   0.056 -0.0496  0.4456  2.0290
 9443TIP3   OH249819   3.312   2.986  14.177  0.0830  0.2993 -0.1697
 9443TIP3    H149820   3.253   3.060  14.190 -0.3318 -0.0912  0.2631
 9443TIP3    H249821   3.261   2.910  14.206  0.0697 -0.3199 -1.7121
 9444TIP3   OH249822   5.371   0.127   2.187 -0.0450 -0.0711  0.3071
 9444TIP3    H149823   5.454   0.112   2.232 -0.2224 -0.3854  0.5343
 9444TIP3    H249824   5.361   0.222   2.186 -0.3095 -0.0723  1.4378
 9445TIP3   OH249825   3.466   1.312  11.555  0.3107  0.3122  0.5029
 9445TIP3    H149826   3.485   1.242  11.492  0.7208 -1.0589  2.0563
 9445TIP3    H249827   3.437   1.265  11.633 -0.7176  1.9805  1.1608
 9446TIP3   OH249828   0.400   0.865  12.442 -0.8040  0.4199  0.2505
 9446TIP3    H149829   0.410   0.794  12.506 -0.7964 -0.3998 -0.6445
 9446TIP3    H249830   0.480   0.862  12.390 -0.4119  1.6606  0.7448
 9447TIP3   OH249831   1.857   3.171   2.474  0.2062  0.0373  0.5253
 9447TIP3    H149832   1.825   3.103   2.415  1.2275 -1.0472  1.1780
 9447TIP3    H249833   1.795   3.243   2.464 -1.0720 -1.0938  0.0245
 9448TIP3   OH249834   6.874   3.250   4.806 -0.1430 -0.0460 -0.2269
 9448TIP3    H149835   6.896   3.332   4.761  0.2030 -1.2934 -2.4589
 9448TIP3    H249836   6.837   3.194   4.738 -1.2242 -1.4663  1.4264
 9449TIP3   OH249837   4.069   2.732  14.132 -0.6468  0.4100  0.5420
 9449TIP3    H149838   3.998   2.796  14.124 -1.3844 -0.1717  2.0555
 9449TIP3    H249839   4.026   2.647  14.119 -0.4595 -0.0137  2.4256
 9450TIP3   OH249840   3.662   2.594   2.679 -0.6189  0.0235  0.9048
 9450TIP3    H149841   3.567   2.591   2.690 -0.6847 -0.6249  0.2721
 9450TIP3    H249842   3.687   2.502   2.665 -0.0862  0.3422 -0.3664
 9451TIP3   OH249843   1.770   2.556   0.272  0.1550 -0.0890  0.0873
 9451TIP3    H149844   1.818   2.576   0.191  0.2630 -2.7652 -0.6281
 9451TIP3    H249845   1.682   2.590   0.257  0.8658  1.7790 -0.0325
 9452TIP3   OH249846   0.877   4.918   5.018  0.2971 -0.4398  0.5043
 9452TIP3    H149847   0.815   4.984   5.047 -1.0820 -1.6055  0.2985
 9452TIP3    H249848   0.954   4.931   5.074  0.0512  1.2985  0.4739
 9453TIP3   OH249849   3.956   2.444   4.653  0.2691 -0.3002 -0.1680
 9453TIP3    H149850   4.006   2.487   4.721 -1.4573 -0.1373  1.0779
 9453TIP3    H249851   3.946   2.510   4.584 -0.4887  0.5955  0.7607
 9454TIP3   OH249852   4.258   4.100   4.830 -0.2699  0.2007 -0.1307
 9454TIP3    H149853   4.320   4.044   4.877  1.4886  0.1621 -2.3264
 9454TIP3    H249854   4.185   4.042   4.808 -0.1184 -0.3132  0.6796
 9455TIP3   OH249855   5.389   4.913  12.383 -0.2599 -0.2466 -1.0648
 9455TIP3    H149856   5.359   4.956  12.464 -1.5134 -0.9734 -1.1176
 9455TIP3    H249857   5.465   4.861  12.410 -0.8780 -0.7606 -0.2559
 9456TIP3   OH249858   6.528   6.268  13.926  0.3090  0.3647  0.1234
 9456TIP3    H149859   6.558   6.310  14.007  0.9963  0.3095 -0.0918
 9456TIP3    H249860   6.597   6.204  13.905 -0.2092 -0.1221 -0.1228
 9457TIP3   OH249861   6.164   4.034   2.553 -0.4809  0.3694  0.2500
 9457TIP3    H149862   6.105   4.092   2.505 -2.1780 -0.3250  1.3702
 9457TIP3    H249863   6.183   4.081   2.634  0.1832  0.4084  0.0765
 9458TIP3   OH249864   5.965   4.396   1.310 -0.0283  0.2218 -0.2563
 9458TIP3    H149865   5.901   4.326   1.302  0.0627  0.1769 -0.5995
 9458TIP3    H249866   6.049   4.355   1.288  0.4952 -0.2898  2.2897
 9459TIP3   OH249867   5.263   6.153  16.914  0.0852 -0.5637 -0.3207
 9459TIP3    H149868   5.173   6.176  16.936  0.0765 -0.4129 -0.5149
 9459TIP3    H249869   5.258   6.118  16.825  0.0850 -1.3888 -0.0098
 9460TIP3   OH249870   0.124   1.099  16.506 -0.1846 -0.1402  0.7165
 9460TIP3    H149871   0.219   1.086  16.503 -0.3328 -1.2278  0.2080
 9460TIP3    H249872   0.103   1.097  16.599  0.3380  0.5348  0.8568
 9461TIP3   OH249873   2.448   0.186  12.683  0.5252  0.3989 -0.4303
 9461TIP3    H149874   2.409   0.134  12.754 -1.5134 -0.2923 -1.9692
 9461TIP3    H249875   2.418   0.275  12.700  1.2669  0.5121  0.3635
 9462TIP3   OH249876   5.207   3.410  15.913 -0.1316  0.0902 -0.1672
 9462TIP3    H149877   5.205   3.332  15.969 -0.8820  0.2037 -0.0281
 9462TIP3    H249878   5.297   3.414  15.881 -0.3299 -1.4686 -1.0530
 9463TIP3   OH249879   1.930   1.092  16.117 -0.2848 -0.6834 -0.3155
 9463TIP3    H149880   1.904   1.106  16.026  0.6242  3.4870 -0.1220
 9463TIP3    H249881   1.856   1.123  16.168 -0.7625 -2.9317  0.4732
 9464TIP3   OH249882   2.453   2.027  10.966 -0.6353 -0.4068 -0.3022
 9464TIP3    H149883   2.513   2.023  10.891 -0.8004  0.1767 -0.4666
 9464TIP3    H249884   2.409   2.111  10.957  1.0075  0.7667  1.7028
 9465TIP3   OH249885   5.522   5.130   1.456 -0.1570 -0.1170  0.2497
 9465TIP3    H149886   5.469   5.051   1.443  0.7077 -0.9051  1.3529
 9465TIP3    H249887   5.579   5.108   1.530  0.0173  1.5921  0.6430
 9466TIP3   OH249888   0.020   2.201   4.547  0.5712  0.2798  0.4374
 9466TIP3    H149889   0.019   2.257   4.624 -1.0469 -1.2000  1.5665
 9466TIP3    H249890  -0.010   2.116   4.579  3.1394 -1.3559 -1.1344
 9467TIP3   OH249891   1.458   3.263  10.768  0.3841  0.3097  0.5644
 9467TIP3    H149892   1.421   3.175  10.779 -0.4455  0.5454 -0.2200
 9467TIP3    H249893   1.501   3.260  10.683  0.8056  0.5123  0.7714
 9468TIP3   OH249894   2.770   1.617   0.711 -0.3415 -0.4659 -0.1390
 9468TIP3    H149895   2.861   1.604   0.683 -0.2125 -1.4966  0.6948
 9468TIP3    H249896   2.719   1.562   0.652 -0.5769  0.9148 -1.3015
 9469TIP3   OH249897   1.688   3.548  12.461 -0.1795  0.0546  0.1274
 9469TIP3    H149898   1.732   3.632  12.474 -2.0050  0.8418  1.8517
 9469TIP3    H249899   1.759   3.485  12.449  1.2531  1.7491 -0.8406
 9470TIP3   OH249900   3.027   1.436  15.989 -0.1116 -0.1934 -0.2298
 9470TIP3    H149901   3.093   1.383  15.944  0.1945 -0.2606  0.2881
 9470TIP3    H249902   2.966   1.462  15.920  0.2661 -0.4181 -0.6545
 9471TIP3   OH249903   1.516   2.416   1.963  0.3929  0.0032  0.1321
 9471TIP3    H149904   1.545   2.337   2.009  1.7527 -0.0835 -0.8153
 9471TIP3    H249905   1.442   2.387   1.910  0.6515 -0.5563  0.0707
 9472TIP3   OH249906   3.687   1.689   2.630  0.8960 -0.4540 -0.1921
 9472TIP3    H149907   3.767   1.731   2.598  0.9240  0.1959  0.6832
 9472TIP3    H249908   3.713   1.598   2.645  1.2509 -0.4399 -0.6932
 9473TIP3   OH249909   2.225   6.413  13.181 -0.0484 -1.1876  0.1561
 9473TIP3    H149910   2.258   6.458  13.104  0.5651 -1.9389 -0.0382
 9473TIP3    H249911   2.133   6.438  13.187  0.4240  0.6782  0.4920
 9474TIP3   OH249912   2.866   4.414  12.787 -0.0307 -0.1005 -0.2842
 9474TIP3    H149913   2.795   4.373  12.836  1.2743  0.4880  2.2805
 9474TIP3    H249914   2.824   4.483  12.736 -1.5257 -1.0442 -0.3888
 9475TIP3   OH249915   3.843   1.102  15.902  0.0338 -0.1258 -0.4560
 9475TIP3    H149916   3.808   1.014  15.890 -0.6831  0.0889 -0.0235
 9475TIP3    H249917   3.775   1.159  15.866  0.4717  0.2523 -0.6871
 9476TIP3   OH249918   6.059   1.460  15.678 -0.0590 -0.0177  0.3597
 9476TIP3    H149919   5.988   1.431  15.736  0.6097 -0.0183  1.1870
 9476TIP3    H249920   6.108   1.381  15.658  1.3885  0.3623  2.1070
 9477TIP3   OH249921   3.641   1.334  10.960  0.0723  0.2172  0.5313
 9477TIP3    H149922   3.639   1.240  10.942  0.4855  0.2904  0.1045
 9477TIP3    H249923   3.732   1.360  10.946 -0.1352  0.7755  0.1817
 9478TIP3   OH249924   6.392   4.563   0.372 -0.3149 -0.1948 -0.5774
 9478TIP3    H149925   6.336   4.486   0.361 -1.0889  0.2943 -0.1820
 9478TIP3    H249926   6.410   4.567   0.466 -0.6209  0.3253 -0.5322
 9479TIP3   OH249927   5.247   2.075   3.361  0.3088  0.0796 -0.3611
 9479TIP3    H149928   5.170   2.038   3.403  1.9897 -2.7184  0.5350
 9479TIP3    H249929   5.275   2.145   3.421  0.1495 -0.9305  0.9503
 9480TIP3   OH249930   5.647   2.418  10.646 -0.0992 -0.2696  0.4227
 9480TIP3    H149931   5.691   2.434  10.563 -0.3974  0.3825  0.3878
 9480TIP3    H249932   5.556   2.401  10.622 -0.6592  2.0104  0.7473
 9481TIP3   OH249933   6.065   4.000   3.518  0.0896 -0.2708  0.5520
 9481TIP3    H149934   5.974   3.971   3.530 -0.6365  1.8591  0.6825
 9481TIP3    H249935   6.085   3.980   3.427 -0.8250  0.0128  0.2795
 9482TIP3   OH249936   4.967   6.220  10.917 -0.0150 -0.2517  0.4641
 9482TIP3    H149937   4.897   6.255  10.972 -0.1116  1.1826 -0.5459
 9482TIP3    H249938   4.928   6.211  10.830  0.9915  0.4151 -0.0781
 9483TIP3   OH249939   0.095   1.738  12.685 -0.0564  0.1257  0.0627
 9483TIP3    H149940   0.027   1.786  12.639  0.6702 -1.9522 -3.5643
 9483TIP3    H249941   0.067   1.646  12.682  2.7771 -0.8187 -1.6614
 9484TIP3   OH249942   1.700   0.773   5.021 -0.5554 -0.2237 -0.1726
 9484TIP3    H149943   1.742   0.704   4.970 -1.2461 -0.8496  0.0746
 9484TIP3    H249944   1.720   0.751   5.112 -2.8505 -1.5976  0.0966
 9485TIP3   OH249945   3.006   0.836  11.710 -0.1599  0.6843  0.0092
 9485TIP3    H149946   3.006   0.820  11.615  2.0730 -0.2109  0.0861
 9485TIP3    H249947   2.915   0.854  11.731 -0.5735  1.9718 -2.4647
 9486TIP3   OH249948   6.050   2.603   3.199 -0.1903  0.2339 -0.3979
 9486TIP3    H149949   6.105   2.678   3.222  0.2277 -0.8150  2.3643
 9486TIP3    H249950   6.063   2.540   3.270 -1.5387 -1.9401 -1.9436
 9487TIP3   OH249951   5.802   0.560   3.690 -0.0190 -0.2169 -0.3797
 9487TIP3    H149952   5.755   0.636   3.724 -0.9131 -1.6626  1.8268
 9487TIP3    H249953   5.835   0.589   3.604 -1.5715  2.1383 -0.2845
 9488TIP3   OH249954   1.559   0.284  15.044 -0.3534  0.3275 -0.3521
 9488TIP3    H149955   1.533   0.363  15.092 -0.3700  0.6130 -0.8212
 9488TIP3    H249956   1.528   0.300  14.955 -1.4814 -0.7457 -0.1849
 9489TIP3   OH249957   5.535   2.952   3.465  0.0688  0.3108 -0.2692
 9489TIP3    H149958   5.549   2.998   3.383 -1.2467 -0.6904 -1.1043
 9489TIP3    H249959   5.576   2.867   3.453  0.8472  0.5599  0.5481
 9490TIP3   OH249960   2.607   2.898  13.857  0.0188  0.0523  0.0874
 9490TIP3    H149961   2.575   2.980  13.820 -0.8545 -0.8606 -1.2722
 9490TIP3    H249962   2.695   2.888  13.821  0.4533  0.7776  0.9175
 9491TIP3   OH249963   4.157   0.301  15.305  0.2069 -0.5517 -0.1388
 9491TIP3    H149964   4.078   0.317  15.357  1.4393  2.6960  0.9478
 9491TIP3    H249965   4.211   0.244  15.359  0.4818  0.9210  1.2265
 9492TIP3   OH249966   6.301   2.167   3.399 -0.1601  0.4302  0.0836
 9492TIP3    H149967   6.212   2.166   3.435  0.2459  0.9363  1.1303
 9492TIP3    H249968   6.327   2.075   3.398 -0.3217  0.3750  0.7432
 9493TIP3   OH249969   6.217   6.052  16.228  0.2925 -0.6051  0.5994
 9493TIP3    H149970   6.128   6.072  16.197  0.4757  0.1506  0.5616
 9493TIP3    H249971   6.221   6.092  16.315  1.4918  1.7553 -0.4673
 9494TIP3   OH249972   3.872   5.604   3.798  0.3827  0.6498  0.3604
 9494TIP3    H149973   3.968   5.608   3.795  0.3822  1.4238 -2.8651
 9494TIP3    H249974   3.851   5.512   3.780  0.4282  0.0329  3.0551
 9495TIP3   OH249975   0.998   1.951   6.006 -0.1612  0.3113  0.3455
 9495TIP3    H149976   0.942   1.884   6.044  0.8242 -1.6054 -1.3929
 9495TIP3    H249977   1.021   2.007   6.080 -0.2118 -1.8555  2.1136
 9496TIP3   OH249978   3.896   4.771   3.291 -0.0790 -0.3690 -0.2968
 9496TIP3    H149979   3.836   4.714   3.340 -0.6308  1.0368  0.7222
 9496TIP3    H249980   3.848   4.853   3.282 -0.1940 -0.6671 -3.6444
 9497TIP3   OH249981   0.824   5.091   2.776 -0.1971 -0.2827  0.4517
 9497TIP3    H149982   0.867   5.100   2.861 -0.7143 -2.3086  0.9813
 9497TIP3    H249983   0.892   5.055   2.718 -0.4742 -1.1495  0.6490
 9498TIP3   OH249984   6.692   4.185   3.759  0.4406  0.8827  0.1885
 9498TIP3    H149985   6.643   4.193   3.841  0.0382  0.2428  0.0219
 9498TIP3    H249986   6.738   4.268   3.750  0.8665  0.7867  1.3051
 9499TIP3   OH249987   1.639   3.019  10.857 -0.0600  0.7523  0.2240
 9499TIP3    H149988   1.567   2.962  10.830  0.8643  0.8232 -2.7734
 9499TIP3    H249989   1.682   2.972  10.928 -2.0500 -0.0424  0.9727
 9500TIP3   OH249990   3.002   0.352  14.164  0.1583  0.5337  0.3287
 9500TIP3    H149991   2.929   0.413  14.152  0.5437  0.7151 -1.2099
 9500TIP3    H249992   2.987   0.283  14.100 -0.9392 -1.7521  2.8196
 9501TIP3   OH249993   1.957   3.592   2.824  0.9724  0.0102 -0.3983
 9501TIP3    H149994   1.953   3.670   2.879 -1.2137 -0.3345  0.0127
 9501TIP3    H249995   1.991   3.623   2.741  2.5738  0.8874  0.5279
 9502TIP3   OH249996   3.408   0.322  16.790 -0.3650  0.5463  0.0662
 9502TIP3    H149997   3.395   0.228  16.805 -0.0791  0.4160 -0.4827
 9502TIP3    H249998   3.502   0.336  16.801  0.3248  0.0038 -3.6484
 9503TIP3   OH249999   1.961   2.960   5.431 -0.0018  0.0730 -0.2539
 9503TIP3    H150000   1.946   3.024   5.500 -1.6926  0.4588 -0.9322
 9503TIP3    H250001   1.988   3.012   5.355  0.1882 -0.1655 -0.3481
 9504TIP3   OH250002   0.208   1.908   3.004 -0.6527  0.3189  0.3667
 9504TIP3    H150003   0.206   2.004   2.996 -1.8494  0.7773  4.1406
 9504TIP3    H250004   0.297   1.884   2.979 -0.7752  2.1557 -2.2553
 9505TIP3   OH250005   6.310   4.711  15.956 -0.3138 -0.8465  0.1368
 9505TIP3    H150006   6.395   4.751  15.976  0.6798 -2.5998 -0.3841
 9505TIP3    H250007   6.257   4.728  16.033 -0.1817  1.9941 -0.3050
 9506TIP3   OH250008   2.111   1.241   2.139  0.3664 -0.8296 -0.1381
 9506TIP3    H150009   2.034   1.283   2.100 -0.0097 -0.7256  0.6865
 9506TIP3    H250010   2.098   1.148   2.122  0.5061 -0.7389 -0.7686
 9507TIP3   OH250011   5.462   1.028   4.178  0.6635  0.9474 -0.1726
 9507TIP3    H150012   5.497   1.010   4.265  1.5107  0.5085 -0.5889
 9507TIP3    H250013   5.536   1.061   4.128 -0.0288  2.0916 -0.4859
 9508TIP3   OH250014   2.858   0.248  11.235  0.5191 -0.4496  0.0487
 9508TIP3    H150015   2.796   0.297  11.181  2.2111 -0.1869 -1.7436
 9508TIP3    H250016   2.823   0.255  11.324 -0.7495  1.6686 -0.5588
 9509TIP3   OH250017   3.028   1.507  12.609  0.0870  0.6010  0.2118
 9509TIP3    H150018   3.123   1.514  12.616  0.1370 -0.4529  0.6512
 9509TIP3    H250019   3.013   1.470  12.522  0.1415 -0.2889  0.5703
 9510TIP3   OH250020   4.429   2.219  12.901  0.3760 -0.7664 -0.5746
 9510TIP3    H150021   4.334   2.212  12.894  0.2400 -0.2789  0.6110
 9510TIP3    H250022   4.443   2.301  12.948  1.3677 -1.1290 -0.2279
 9511TIP3   OH250023   1.817   3.335   0.165  0.3565 -0.0978 -0.2221
 9511TIP3    H150024   1.744   3.288   0.124  1.4375 -2.0391 -0.0849
 9511TIP3    H250025   1.791   3.346   0.257  0.1085 -0.5478 -0.2371
 9512TIP3   OH250026   3.672   6.020  16.549 -0.2832 -0.1723 -0.2148
 9512TIP3    H150027   3.652   6.039  16.641 -0.2584 -1.1160 -0.0120
 9512TIP3    H250028   3.766   6.038  16.541 -0.7345  2.3991 -0.7057
 9513TIP3   OH250029   4.292   5.588   4.630  0.1185 -0.1095 -0.0285
 9513TIP3    H150030   4.254   5.673   4.608  1.6513  1.3308  2.3430
 9513TIP3    H250031   4.374   5.585   4.582 -0.9171 -1.3034 -1.8191
 9514TIP3   OH250032   4.693   4.934   2.096  0.5465 -0.1443  0.1504
 9514TIP3    H150033   4.637   5.001   2.136  1.3981  0.9627 -0.4393
 9514TIP3    H250034   4.746   4.901   2.168  0.8473  0.5878  0.2799
 9515TIP3   OH250035   4.376   3.647  11.306 -0.2159 -0.2826 -0.0325
 9515TIP3    H150036   4.303   3.709  11.303 -0.6642 -0.8068 -0.1056
 9515TIP3    H250037   4.380   3.609  11.219 -0.2107 -0.6659  0.1340
 9516TIP3   OH250038   0.170   6.192  12.736  0.2559  0.1958  0.1094
 9516TIP3    H150039   0.185   6.268  12.791  0.2522  0.1939  0.1128
 9516TIP3    H250040   0.256   6.151  12.728  0.4662  0.7875 -0.7664
 9517TIP3   OH250041   3.889   5.747   0.884  0.7912 -0.5223 -0.7799
 9517TIP3    H150042   3.935   5.694   0.820 -0.3857 -1.2645 -1.0350
 9517TIP3    H250043   3.813   5.695   0.910  0.2455  0.5322 -0.1476
 9518TIP3   OH250044   4.285   5.861  11.337  0.3366  0.1838 -0.2481
 9518TIP3    H150045   4.352   5.796  11.320  3.5260  3.0333  0.3310
 9518TIP3    H250046   4.244   5.877  11.252  1.0706 -0.9347 -0.8277
 9519TIP3   OH250047   4.765   4.711   0.190  0.1506 -0.3990 -0.2259
 9519TIP3    H150048   4.688   4.709   0.247 -0.7504  1.6704 -1.2892
 9519TIP3    H250049   4.799   4.621   0.194 -0.9743 -0.8115  2.0186
 9520TIP3   OH250050   0.959   6.679  12.835 -0.3933 -0.7254  0.1661
 9520TIP3    H150051   0.940   6.762  12.877 -0.2352 -0.6554  0.0995
 9520TIP3    H250052   0.973   6.701  12.743 -1.1103 -0.9255  0.0054
 9521TIP3   OH250053   5.370   2.855   2.735 -0.2347  0.4502  0.3925
 9521TIP3    H150054   5.362   2.767   2.699 -1.0715  1.3158 -1.6898
 9521TIP3    H250055   5.324   2.851   2.819 -0.9030 -0.9135 -0.0220
 9522TIP3   OH250056   2.266   6.802   5.094  0.4847  0.2046  0.4557
 9522TIP3    H150057   2.273   6.865   5.023 -0.0108 -0.3594 -0.1078
 9522TIP3    H250058   2.282   6.853   5.173 -0.1098  1.0841  0.0275
 9523TIP3   OH250059   0.924   2.273   2.513  0.1634  0.4483  0.1124
 9523TIP3    H150060   0.836   2.238   2.507 -0.1217  1.3156 -0.9327
 9523TIP3    H250061   0.952   2.287   2.423  0.8413  1.4657  0.4537
 9524TIP3   OH250062   1.932   4.846  15.668  0.3235 -0.7106 -0.1448
 9524TIP3    H150063   1.922   4.791  15.745 -0.3890  0.2690  0.4842
 9524TIP3    H250064   1.855   4.828  15.615  0.0746 -0.3105  0.0753
 9525TIP3   OH250065   2.935   4.655   2.721 -0.1962  0.0584  0.3340
 9525TIP3    H150066   2.842   4.665   2.701 -0.0940  0.9208  0.2700
 9525TIP3    H250067   2.940   4.572   2.770 -0.6461 -1.2893 -1.7838
 9526TIP3   OH250068   0.035   0.753  12.285  0.2758 -0.1315 -0.0706
 9526TIP3    H150069   0.064   0.827  12.338 -1.6857  0.7582 -0.1632
 9526TIP3    H250070   0.029   0.788  12.196 -1.5240 -0.1092  0.0249
 9527TIP3   OH250071   0.640   2.873   3.238  0.3167 -0.0598 -0.6033
 9527TIP3    H150072   0.625   2.779   3.224 -1.6745  0.2616 -0.8745
 9527TIP3    H250073   0.642   2.883   3.333  1.7872 -0.5190 -0.5559
 9528TIP3   OH250074   2.394   3.996   3.438 -0.3621  0.4083  0.0576
 9528TIP3    H150075   2.485   3.970   3.428 -0.2926  0.5567  0.3083
 9528TIP3    H250076   2.380   4.002   3.533 -0.9220 -0.6276  0.0525
 9529TIP3   OH250077   6.661   2.779   3.362  0.0731  0.4904  0.0024
 9529TIP3    H150078   6.749   2.740   3.371 -0.3176 -0.0444  1.8991
 9529TIP3    H250079   6.634   2.799   3.452 -0.1229  4.4589 -0.7531
 9530TIP3   OH250080   4.731   2.266  14.568  0.1348  0.1773  0.3342
 9530TIP3    H150081   4.685   2.323  14.630 -3.0585 -0.8690 -0.8875
 9530TIP3    H250082   4.700   2.294  14.482 -0.3058 -2.3287 -0.3978
 9531TIP3   OH250083   2.088   0.811   5.452 -0.1587 -0.2387 -0.0609
 9531TIP3    H150084   2.059   0.829   5.541  0.7471  2.1247 -0.1618
 9531TIP3    H250085   2.061   0.887   5.402  2.0347 -0.0553 -1.1158
 9532TIP3   OH250086   1.357   5.871   4.370  0.0109  0.0299  0.4208
 9532TIP3    H150087   1.312   5.794   4.336 -0.0237  0.3946 -0.3821
 9532TIP3    H250088   1.444   5.839   4.395  0.9449  0.1541 -2.2645
 9533TIP3   OH250089   4.647   5.788  16.586 -0.1946 -0.0166  0.1087
 9533TIP3    H150090   4.630   5.735  16.665 -2.0762 -0.4693 -0.5373
 9533TIP3    H250091   4.726   5.838  16.607 -0.8275  0.1384  2.4325
 9534TIP3   OH250092   4.204   6.165  11.271  0.8586 -0.2096  0.2189
 9534TIP3    H150093   4.264   6.225  11.226  0.4511 -1.3482 -2.0283
 9534TIP3    H250094   4.257   6.088  11.291  0.8727  0.0275  1.1469
 9535TIP3   OH250095   1.386   5.817  15.279 -0.1838 -0.2632  1.0734
 9535TIP3    H150096   1.466   5.772  15.254  0.3924  1.2589  0.0161
 9535TIP3    H250097   1.345   5.841  15.196 -0.7396  0.6701  1.5995
 9536TIP3   OH250098   6.721   3.786   2.169  0.4203  0.3585 -0.4811
 9536TIP3    H150099   6.802   3.832   2.190  0.4438  0.5998 -1.0870
 9536TIP3    H250100   6.674   3.780   2.252  0.7094  0.9076 -0.2770
 9537TIP3   OH250101   6.668   5.267  15.210 -0.1036  0.7362  0.3323
 9537TIP3    H150102   6.612   5.215  15.153 -0.3732  0.6333  0.6886
 9537TIP3    H250103   6.608   5.327  15.254 -0.5402 -1.7088  3.3894
 9538TIP3   OH250104   0.465   0.049  14.941 -0.4037  0.1644  0.0786
 9538TIP3    H150105   0.433   0.086  15.023  0.5547  1.9173 -0.2777
 9538TIP3    H250106   0.387   0.039  14.887 -0.7792  1.1030  0.4261
 9539TIP3   OH250107   5.596   5.112  12.589  0.6903 -0.7265  0.3155
 9539TIP3    H150108   5.624   5.042  12.530 -0.8807 -0.8423 -0.3312
 9539TIP3    H250109   5.517   5.078  12.631  1.4007 -0.3814  2.0283
 9540TIP3   OH250110   4.505   2.697  13.023 -0.1206 -0.1267  0.0456
 9540TIP3    H150111   4.413   2.708  13.048  0.6831 -0.2064  3.4337
 9540TIP3    H250112   4.536   2.786  13.005 -1.1294 -0.2219 -2.6110
 9541TIP3   OH250113   4.074   2.992  13.337 -0.3707  0.2960  0.2003
 9541TIP3    H150114   4.145   3.043  13.297 -0.4246  0.7077  0.6166
 9541TIP3    H250115   4.089   2.902  13.307  1.1987  0.0968  1.4781
 9542TIP3   OH250116   4.568   4.026  10.679 -0.3804 -0.1644 -0.2071
 9542TIP3    H150117   4.562   4.112  10.639  0.0983 -1.3004 -2.9691
 9542TIP3    H250118   4.479   4.005  10.706 -0.4666  1.2326  0.6558
 9543TIP3   OH250119   6.606   6.064  11.850  0.6369 -0.8071  0.1964
 9543TIP3    H150120   6.558   6.123  11.908  0.5848  0.9706 -1.5474
 9543TIP3    H250121   6.697   6.069  11.881  1.1888  2.4547 -1.5209
 9544TIP3   OH250122   2.533   1.882   4.036  0.1329  0.9967  0.1192
 9544TIP3    H150123   2.558   1.972   4.018  0.4377  0.9322  0.2188
 9544TIP3    H250124   2.438   1.885   4.046  0.2053  1.4073  0.7170
 9545TIP3   OH250125   0.111   6.777   1.607 -0.2097  0.3611 -0.8013
 9545TIP3    H150126   0.123   6.858   1.657 -0.3868  0.6700 -1.2478
 9545TIP3    H250127   0.178   6.718   1.640  0.0954  0.7870 -0.6540
 9546TIP3   OH250128   6.631   1.725  13.960  0.4102  0.6546  0.4810
 9546TIP3    H150129   6.673   1.658  13.907 -0.0854 -0.7385  1.7545
 9546TIP3    H250130   6.595   1.787  13.897  2.8223  0.9837 -0.6819
 9547TIP3   OH250131   5.425   0.413  16.134  0.1236  0.4772 -0.2630
 9547TIP3    H150132   5.402   0.320  16.135  1.0219  0.2339 -0.9708
 9547TIP3    H250133   5.341   0.458  16.137 -0.2893 -0.3091  2.1097
 9548TIP3   OH250134   4.397   2.329   4.995  0.4555  0.7293  0.0262
 9548TIP3    H150135   4.303   2.338   5.013  0.2635  0.5810 -0.8507
 9548TIP3    H250136   4.437   2.321   5.082 -0.6918 -2.8073  0.3929
 9549TIP3   OH250137   4.404   6.276  14.544 -0.1671  0.0005  0.0662
 9549TIP3    H150138   4.332   6.317  14.495  0.0685  1.7022  1.0649
 9549TIP3    H250139   4.360   6.221  14.609 -0.5769  0.7352  0.4273
 9550TIP3   OH250140   0.732   0.629   2.959  0.2659  0.5090 -0.1453
 9550TIP3    H150141   0.800   0.587   3.011  0.1409 -0.1586 -0.5032
 9550TIP3    H250142   0.742   0.723   2.977  1.7081  0.4887 -0.7036
 9551TIP3   OH250143   6.415   4.662   2.006  0.2876 -0.8315 -0.0709
 9551TIP3    H150144   6.373   4.667   2.092  0.1909  1.9991 -0.2015
 9551TIP3    H250145   6.508   4.655   2.026  0.1436 -2.6430  0.1995
 9552TIP3   OH250146   0.153   5.477   1.887 -0.5211 -0.1171 -0.3032
 9552TIP3    H150147   0.228   5.417   1.897 -1.0278 -0.8859 -0.9692
 9552TIP3    H250148   0.192   5.557   1.852  0.1606 -0.0668  0.5373
 9553TIP3   OH250149   5.198   5.494  14.539  0.7115 -0.5765  0.3532
 9553TIP3    H150150   5.155   5.440  14.473 -2.5569  1.0329  0.9532
 9553TIP3    H250151   5.288   5.503  14.508  0.1282 -2.4132 -2.1911
 9554TIP3   OH250152   6.636   1.769   5.017  0.3063  0.1120  0.4781
 9554TIP3    H150153   6.682   1.693   4.981  0.3238  0.5762 -0.5072
 9554TIP3    H250154   6.596   1.736   5.098  0.3924 -0.9230  0.1191
 9555TIP3   OH250155   6.419   6.341  14.341 -0.3134 -0.5101  0.2325
 9555TIP3    H150156   6.343   6.380  14.299 -0.1622  0.3860  0.7602
 9555TIP3    H250157   6.383   6.291  14.415 -0.5709 -2.0194 -0.8706
 9556TIP3   OH250158   4.399   5.444  11.320 -0.0579 -0.1632 -0.1923
 9556TIP3    H150159   4.452   5.518  11.293 -0.4700  0.0273 -0.4792
 9556TIP3    H250160   4.331   5.436  11.253  0.5850 -1.4425 -0.7417
 9557TIP3   OH250161   3.680   3.763  15.733 -0.0019 -0.3319  0.5289
 9557TIP3    H150162   3.669   3.834  15.796  0.4687 -0.7946  1.1360
 9557TIP3    H250163   3.764   3.780  15.692  0.6346 -1.1412  1.4635
 9558TIP3   OH250164   5.874   0.072   3.864 -0.9587 -0.2308 -0.4954
 9558TIP3    H150165   5.878   0.158   3.905  1.4373  0.0051 -1.0721
 9558TIP3    H250166   5.830   0.017   3.928 -1.9675  1.2461  0.1525
 9559TIP3   OH250167   3.332   5.355   2.253 -0.8653 -0.1579 -1.1231
 9559TIP3    H150168   3.329   5.450   2.267 -0.4578 -0.2419 -0.4043
 9559TIP3    H250169   3.411   5.341   2.201 -1.2696 -0.0428 -1.7715
 9560TIP3   OH250170   5.231   4.748   5.413  0.1327 -0.1238 -0.6690
 9560TIP3    H150171   5.293   4.678   5.392  0.6164  0.6962 -2.1063
 9560TIP3    H250172   5.162   4.705   5.463 -1.3176 -2.4146 -4.2709
 9561TIP3   OH250173   3.610   4.602  12.139  0.0153  0.8535 -0.1717
 9561TIP3    H150174   3.548   4.541  12.098  0.2146  1.1080 -0.8473
 9561TIP3    H250175   3.689   4.550  12.153  0.8031  1.3695 -2.3282
 9562TIP3   OH250176   0.586   0.854  16.338 -0.2155 -0.6797  0.8491
 9562TIP3    H150177   0.655   0.849  16.404  2.3109  1.6154 -1.3755
 9562TIP3    H250178   0.618   0.800  16.266  0.3722  1.9251 -0.9911
 9563TIP3   OH250179   6.418   2.347  15.250 -0.0773  0.9846  0.4909
 9563TIP3    H150180   6.366   2.399  15.189 -0.8256 -0.8503 -0.5295
 9563TIP3    H250181   6.496   2.321  15.200 -0.7090 -0.5616  0.2567
 9564TIP3   OH250182   1.596   3.744  14.128 -0.4271  0.2573 -0.9662
 9564TIP3    H150183   1.578   3.837  14.137 -2.5602 -0.0957 -1.0437
 9564TIP3    H250184   1.552   3.704  14.203  0.4514 -0.6884 -0.9435
 9565TIP3   OH250185   6.056   3.257   0.951 -0.2086  0.1012 -0.1429
 9565TIP3    H150186   6.044   3.230   0.859  1.7145 -0.8434 -0.1709
 9565TIP3    H250187   6.149   3.276   0.957  0.1462 -1.8769  2.1016
 9566TIP3   OH250188   4.793   4.958  15.593  0.2497 -0.1675 -0.2063
 9566TIP3    H150189   4.702   4.986  15.603 -0.5391 -2.1924 -1.1643
 9566TIP3    H250190   4.788   4.863  15.583  2.2234 -0.1039 -2.9494
 9567TIP3   OH250191   6.769   0.213   3.818  0.8777 -0.0011  0.3137
 9567TIP3    H150192   6.776   0.233   3.911  0.6899 -0.6850  0.4833
 9567TIP3    H250193   6.688   0.162   3.811  0.7549  0.2744 -0.2609
 9568TIP3   OH250194   2.429   5.646  14.204  0.2766  0.1519 -0.2969
 9568TIP3    H150195   2.375   5.611  14.134 -0.0549  0.6524 -0.2999
 9568TIP3    H250196   2.388   5.614  14.284  1.6591 -1.8890 -0.3269
 9569TIP3   OH250197   2.817   0.818   2.657  0.4166  0.3917 -0.2651
 9569TIP3    H150198   2.767   0.805   2.576  0.3273 -0.5184 -0.0683
 9569TIP3    H250199   2.865   0.736   2.669  1.8798  1.1931 -0.3808
 9570TIP3   OH250200   5.985   4.305  14.142 -0.2919  0.4442  0.0489
 9570TIP3    H150201   6.021   4.219  14.164  0.6271  0.8973  0.3439
 9570TIP3    H250202   6.052   4.346  14.087 -0.3083  1.3179  0.6511
 9571TIP3   OH250203   1.676   3.462  14.760  0.1473  0.1926 -0.2539
 9571TIP3    H150204   1.677   3.513  14.680  0.1500  1.3652  0.4697
 9571TIP3    H250205   1.754   3.490  14.808  0.0037 -0.2901  0.2856
 9572TIP3   OH250206   2.102   5.037  16.184  0.2795 -0.4548  0.0684
 9572TIP3    H150207   2.032   5.063  16.125  0.5290 -0.5019 -0.2560
 9572TIP3    H250208   2.077   4.949  16.213  0.8916 -1.0639 -1.1605
 9573TIP3   OH250209   6.470   2.023   5.950 -0.1417  0.3365  0.5828
 9573TIP3    H150210   6.442   2.108   5.915 -0.4213 -0.1927 -0.5077
 9573TIP3    H250211   6.395   1.991   5.999 -1.3239 -0.7992 -1.8236
 9574TIP3   OH250212   5.428   3.268   4.380 -0.0599 -0.0420 -0.0213
 9574TIP3    H150213   5.348   3.224   4.408 -0.8496  0.2188 -1.7466
 9574TIP3    H250214   5.398   3.351   4.341  1.0466  0.1218 -0.5824
 9575TIP3   OH250215   3.016   3.602   2.640 -0.3035 -0.0613  0.7056
 9575TIP3    H150216   3.067   3.655   2.580 -1.3352  0.9570  0.7005
 9575TIP3    H250217   2.937   3.653   2.657 -0.5693 -0.8496  2.0093
 9576TIP3   OH250218   1.688   1.397  10.527 -0.5515 -0.5544  0.3644
 9576TIP3    H150219   1.780   1.419  10.517 -0.9089  1.0992  0.4131
 9576TIP3    H250220   1.641   1.470  10.486 -1.8449 -2.3996 -1.6263
 9577TIP3   OH250221   2.810   2.020   4.069 -0.2128 -0.6225 -0.8650
 9577TIP3    H150222   2.782   1.933   4.099 -1.4189  0.2105  0.5865
 9577TIP3    H250223   2.885   2.041   4.124 -0.1511 -0.5868 -0.9629
 9578TIP3   OH250224   5.038   6.688  11.402 -0.1824  0.2667 -0.2491
 9578TIP3    H150225   5.056   6.598  11.375 -1.4621 -0.1289  0.1140
 9578TIP3    H250226   5.124   6.729  11.409  0.5310 -1.3265  0.9540
 9579TIP3   OH250227   5.049   4.403   5.406 -0.0918 -0.5082  0.2323
 9579TIP3    H150228   5.077   4.378   5.494 -1.8500  0.5090  1.1338
 9579TIP3    H250229   5.034   4.497   5.411 -1.4331 -0.6363 -0.7838
 9580TIP3   OH250230   4.946   3.526  11.133 -0.5658 -0.5434  0.0042
 9580TIP3    H150231   4.978   3.493  11.217 -1.7722  0.5494  0.9473
 9580TIP3    H250232   5.006   3.597  11.110 -0.4123 -0.6387  0.1106
 9581TIP3   OH250233   4.241   3.059  16.800  0.2429 -0.5150 -0.0954
 9581TIP3    H150234   4.195   3.120  16.857 -0.9554  0.7220 -2.2428
 9581TIP3    H250235   4.173   3.025  16.742  1.7025  0.1978 -2.3781
 9582TIP3   OH250236   6.631   6.447  16.045  0.4519  0.3788 -1.1351
 9582TIP3    H150237   6.600   6.392  16.117  0.9850  0.2200 -1.0224
 9582TIP3    H250238   6.556   6.504  16.025  0.1183  0.0649 -0.8126
 9583TIP3   OH250239   6.499   2.288   0.013  1.0588  0.0842  0.4514
 9583TIP3    H150240   6.409   2.312  -0.010  1.2392 -0.5321 -1.0104
 9583TIP3    H250241   6.520   2.344   0.088  0.7110  2.9404 -1.4080
 9584TIP3   OH250242   6.744   3.527  11.990  0.4145 -0.9494  0.1042
 9584TIP3    H150243   6.694   3.544  12.070  1.6466  0.4532  0.5996
 9584TIP3    H250244   6.777   3.437  12.001 -0.9413 -1.4506  0.3072
 9585TIP3   OH250245   6.454   4.566  12.304 -0.0769  0.2312 -0.1935
 9585TIP3    H150246   6.386   4.538  12.365 -0.0341 -2.0887 -1.0909
 9585TIP3    H250247   6.418   4.546  12.217  1.0508  0.6317 -0.7752
 9586TIP3   OH250248   6.384   2.722  12.320  0.0600  0.3369 -0.5683
 9586TIP3    H150249   6.340   2.770  12.390  0.1769 -0.1574 -0.1563
 9586TIP3    H250250   6.324   2.728  12.246 -1.4245 -1.5593  0.3976
 9587TIP3   OH250251   5.683   5.648  16.133 -0.1374  0.3130 -0.1264
 9587TIP3    H150252   5.770   5.685  16.118  0.2365  0.7979  2.7001
 9587TIP3    H250253   5.626   5.696  16.073  1.2034  1.5665 -0.4568
 9588TIP3   OH250254   0.559   3.152   5.526 -0.0473  0.3484  0.0608
 9588TIP3    H150255   0.519   3.127   5.442 -0.2282  0.3985  0.1319
 9588TIP3    H250256   0.597   3.239   5.509  1.9450 -0.6081 -0.6356
 9589TIP3   OH250257   3.840   6.573  16.170 -0.0225  0.5249  0.3154
 9589TIP3    H150258   3.773   6.518  16.129 -0.1484 -0.2649  1.5227
 9589TIP3    H250259   3.922   6.524  16.158  0.6731  2.1343 -2.3999
 9590TIP3   OH250260   6.260   5.333  14.155  0.0993 -0.6416 -0.2564
 9590TIP3    H150261   6.335   5.385  14.185  0.7187 -2.3169  1.3157
 9590TIP3    H250262   6.214   5.390  14.094  1.7238  1.0619  0.0150
 9591TIP3   OH250263   3.018   5.124   0.901 -0.1238 -0.1179  0.1122
 9591TIP3    H150264   3.090   5.102   0.961  0.7249 -0.8159 -1.1213
 9591TIP3    H250265   3.014   5.050   0.841 -2.5989 -0.6036  0.7810
 9592TIP3   OH250266   5.671   6.480  15.228  0.0190 -0.2635 -0.1420
 9592TIP3    H150267   5.749   6.534  15.224  0.1672 -0.2822  1.7753
 9592TIP3    H250268   5.609   6.522  15.168  0.3928  1.6031  0.7130
 9593TIP3   OH250269   3.872   2.273  12.953  0.0740 -0.3263  0.4549
 9593TIP3    H150270   3.808   2.226  12.899  1.6119 -0.9756 -0.8646
 9593TIP3    H250271   3.865   2.364  12.924  0.0161 -0.4563  0.0608
 9594TIP3   OH250272   0.048   0.845  11.076 -0.6030  0.2440  0.4665
 9594TIP3    H150273   0.077   0.784  11.143  0.3779 -0.9941 -1.0194
 9594TIP3    H250274  -0.034   0.808  11.043 -2.2931  2.0068  2.3965
 9595TIP3   OH250275   5.853   1.606  11.081 -0.0854 -0.6926  0.2813
 9595TIP3    H150276   5.865   1.647  10.996  0.4424  1.9612  1.5314
 9595TIP3    H250277   5.760   1.617  11.101 -0.1521 -1.0507  0.1643
 9596TIP3   OH250278   3.111   1.955  15.999  0.2228 -0.7784 -0.4875
 9596TIP3    H150279   3.026   1.931  15.963  0.2789 -3.4005  0.8772
 9596TIP3    H250280   3.147   1.873  16.032  3.6253  0.0969 -1.6123
 9597TIP3   OH250281   2.066   6.382   0.645  0.2480  0.8230 -0.0959
 9597TIP3    H150282   2.053   6.440   0.719 -0.5107 -0.2954  0.6802
 9597TIP3    H250283   1.992   6.322   0.648  1.7650 -1.1606  0.0977
 9598TIP3   OH250284   5.341   5.684   3.878  0.5293  0.4263  0.4166
 9598TIP3    H150285   5.386   5.724   3.804  1.7371 -0.4910  0.6271
 9598TIP3    H250286   5.315   5.597   3.847 -1.5257  1.0807  0.1617
 9599TIP3   OH250287   1.981   6.420  14.190  0.5908 -0.3109 -0.1375
 9599TIP3    H150288   2.049   6.413  14.123  1.4029 -0.5186  0.6900
 9599TIP3    H250289   1.924   6.345  14.175  1.1203 -0.7005 -0.2064
 9600TIP3   OH250290   6.014   3.245   3.864  0.7272 -0.2016 -0.2006
 9600TIP3    H150291   6.031   3.239   3.770  0.8250 -5.4087 -0.0924
 9600TIP3    H250292   5.952   3.174   3.883  1.9027 -0.4046  3.8840
 9601TIP3   OH250293   5.959   4.248   5.977  0.5591 -0.1707  0.2934
 9601TIP3    H150294   5.993   4.255   6.066 -1.5838  2.3121  1.0434
 9601TIP3    H250295   6.014   4.306   5.925 -0.8055  1.8407  0.9838
 9602TIP3   OH250296   5.405   4.706  13.215 -0.0511 -0.0125  0.6476
 9602TIP3    H150297   5.467   4.636  13.193  0.8755  0.8983  0.2449
 9602TIP3    H250298   5.358   4.723  13.133 -1.0206 -0.8522  1.0077
 9603TIP3   OH250299   1.125   6.505  13.593 -0.5276  0.2693  0.7253
 9603TIP3    H150300   1.150   6.415  13.572 -2.7861  0.0431 -1.4497
 9603TIP3    H250301   1.127   6.508  13.689  3.7008 -0.7301  0.8788
 9604TIP3   OH250302   4.292   5.632  15.027  0.4550 -0.1128  0.0636
 9604TIP3    H150303   4.220   5.679  15.068  0.3074  0.2213 -0.5636
 9604TIP3    H250304   4.371   5.676  15.057  0.3055  0.7206 -0.7311
 9605TIP3   OH250305   0.085   4.101   1.574 -0.2711  0.0686 -0.4994
 9605TIP3    H150306   0.075   4.006   1.580  0.3855 -0.1425 -2.2496
 9605TIP3    H250307   0.031   4.135   1.646  2.1828 -1.6901  2.3804
 9606TIP3   OH250308   0.880   1.944  16.203  0.5725 -0.4758 -0.0032
 9606TIP3    H150309   0.889   2.036  16.179  2.3106 -0.4380  0.6776
 9606TIP3    H250310   0.788   1.935  16.230 -0.0882  0.6289 -1.6993
 9607TIP3   OH250311   4.721   5.770   1.123  0.0698  0.0535 -0.5090
 9607TIP3    H150312   4.628   5.770   1.101 -0.4734  0.9083  1.5039
 9607TIP3    H250313   4.755   5.849   1.083 -0.2191  0.0702 -0.7255
 9608TIP3   OH250314   6.353   0.475  13.296 -0.4682 -0.0383 -0.1458
 9608TIP3    H150315   6.326   0.445  13.209  0.8142 -1.0698 -0.2075
 9608TIP3    H250316   6.271   0.501  13.339 -1.1144  0.5432 -1.6669
 9609TIP3   OH250317   6.083   1.271  12.197  0.4941  0.3295  0.1756
 9609TIP3    H150318   6.166   1.300  12.160 -0.1884  2.2373  0.0394
 9609TIP3    H250319   6.108   1.219  12.274  1.8249 -0.7355 -0.9330
 9610TIP3   OH250320   1.782   6.503   1.484 -0.5504  0.1618 -0.3744
 9610TIP3    H150321   1.779   6.438   1.555  0.0288 -0.4263 -0.8781
 9610TIP3    H250322   1.697   6.493   1.440 -0.8979  0.5003  0.1915
 9611TIP3   OH250323   5.467   2.993  12.387  0.3018  0.0516 -0.4064
 9611TIP3    H150324   5.484   3.036  12.471 -0.5230  1.4921 -0.9275
 9611TIP3    H250325   5.520   2.914  12.389  0.1585 -0.0425  1.5401
 9612TIP3   OH250326   1.288   5.409   1.741  0.3447 -0.1175 -0.0777
 9612TIP3    H150327   1.250   5.425   1.827  1.8160  1.4228  0.3467
 9612TIP3    H250328   1.234   5.339   1.703 -0.2274 -0.9710  2.1432
 9613TIP3   OH250329   4.049   1.258   2.588  0.6375  0.2212  0.1827
 9613TIP3    H150330   4.127   1.271   2.642 -0.1484 -1.2533  1.7675
 9613TIP3    H250331   4.010   1.345   2.581  2.1428  0.8996 -0.2313
 9614TIP3   OH250332   6.517   5.190   3.657 -0.0728  0.4473 -0.4175
 9614TIP3    H150333   6.481   5.111   3.697  0.1478  0.5608  0.0109
 9614TIP3    H250334   6.532   5.166   3.565 -0.9460  0.3013 -0.5356
 9615TIP3   OH250335   2.478   4.761   2.848  0.0836 -0.2493  0.1956
 9615TIP3    H150336   2.521   4.837   2.886  0.8370  0.3811 -1.7643
 9615TIP3    H250337   2.386   4.787   2.839  0.0798 -0.0794  0.7321
 9616TIP3   OH250338   1.252   2.701   4.481  0.3983 -0.4948 -0.7590
 9616TIP3    H150339   1.315   2.639   4.518  0.3788 -0.7098 -1.0819
 9616TIP3    H250340   1.298   2.784   4.479  0.6770 -0.6538 -1.0002
 9617TIP3   OH250341   6.458   6.095   0.097 -0.2054 -0.4329 -0.5407
 9617TIP3    H150342   6.393   6.092   0.027 -1.0079 -2.8340  0.2168
 9617TIP3    H250343   6.408   6.075   0.177  1.0996 -0.1231  0.3852
 9618TIP3   OH250344   4.057   3.164   5.951 -0.0894  0.1605 -0.1665
 9618TIP3    H150345   4.067   3.251   5.914  1.5625  1.0827  2.1782
 9618TIP3    H250346   3.994   3.175   6.023  0.4635 -0.4663  0.4295
 9619TIP3   OH250347   3.676   0.137  16.211  0.0603 -0.2232  0.5827
 9619TIP3    H150348   3.625   0.184  16.276 -0.0421  1.6089 -0.7585
 9619TIP3    H250349   3.617   0.068  16.180 -0.6646  0.2509  0.8726
 9620TIP3   OH250350   3.601   4.280   5.828  0.1653  0.5569 -0.3469
 9620TIP3    H150351   3.556   4.281   5.912  0.7308  3.3954  0.0297
 9620TIP3    H250352   3.543   4.231   5.769 -1.5878  0.9307  1.0085
 9621TIP3   OH250353   2.239   1.844   4.811 -0.0295  0.0413  0.0230
 9621TIP3    H150354   2.301   1.826   4.881  1.1387  2.6674 -0.2190
 9621TIP3    H250355   2.277   1.919   4.764 -1.7960 -0.3218 -2.1348
 9622TIP3   OH250356   0.558   6.859  10.990 -0.2442  0.2363 -0.1315
 9622TIP3    H150357   0.559   6.764  10.998 -0.3116  0.1654 -0.9085
 9622TIP3    H250358   0.606   6.890  11.067  0.2095 -0.4395 -0.1335
 9623TIP3   OH250359   5.543   6.214   5.635  0.5916  0.2058 -0.3176
 9623TIP3    H150360   5.510   6.277   5.698 -0.6289  0.4711 -1.1846
 9623TIP3    H250361   5.494   6.233   5.555  1.1843 -0.9566 -0.9746
 9624TIP3   OH250362   6.661   3.818   1.911 -0.3085 -0.1893  0.1680
 9624TIP3    H150363   6.687   3.828   2.003 -0.3184  0.8457  0.0682
 9624TIP3    H250364   6.607   3.895   1.893 -0.6275 -0.5868 -0.5986
 9625TIP3   OH250365   5.918   4.724  11.523 -0.2298  0.5823 -0.3571
 9625TIP3    H150366   5.930   4.675  11.604  0.4006  1.2446 -0.0312
 9625TIP3    H250367   5.874   4.805  11.550  0.0535  0.8400 -0.6551
 9626TIP3   OH250368   6.726   2.866   0.552  0.5977 -0.2631  0.2895
 9626TIP3    H150369   6.721   2.958   0.527 -0.1755 -0.4687 -0.3800
 9626TIP3    H250370   6.654   2.825   0.503  0.8263 -1.1843  0.7168
 9627TIP3   OH250371   6.250   0.852   3.301 -0.4528 -0.0489  0.0941
 9627TIP3    H150372   6.244   0.760   3.328  1.4702 -0.5470 -0.9507
 9627TIP3    H250373   6.235   0.850   3.207  1.5894  0.3705 -0.2872
 9628TIP3   OH250374   6.645   2.823   1.433  0.2093  0.4149 -0.1228
 9628TIP3    H150375   6.623   2.916   1.432 -0.2429  0.3471  1.0718
 9628TIP3    H250376   6.648   2.800   1.526 -1.9204 -1.2543 -0.3635
 9629TIP3   OH250377   6.273   4.530  13.779 -0.0437 -0.4547 -0.2088
 9629TIP3    H150378   6.258   4.609  13.727 -2.1636 -1.0394 -0.5543
 9629TIP3    H250379   6.349   4.488  13.737  0.7461  1.0550 -0.3775
 9630TIP3   OH250380   4.278   1.887   5.876  0.5352 -0.1313  0.0620
 9630TIP3    H150381   4.232   1.887   5.960 -2.3648  3.0972 -1.2405
 9630TIP3    H250382   4.290   1.980   5.856 -0.0252 -0.6943 -3.5650
 9631TIP3   OH250383   6.498   1.341   0.164  0.2571  0.1872 -0.2988
 9631TIP3    H150384   6.527   1.424   0.202  1.4095  0.4601 -1.6851
 9631TIP3    H250385   6.419   1.318   0.214  0.2761  1.7784  0.5299
 9632TIP3   OH250386   1.485   5.894   1.292 -0.0233  0.1684  0.0219
 9632TIP3    H150387   1.530   5.813   1.316 -2.2607 -0.4665  2.5255
 9632TIP3    H250388   1.549   5.963   1.313  1.0938 -0.8228 -0.0013
 9633TIP3   OH250389   2.941   6.309  12.082  0.0378  0.1563  0.7977
 9633TIP3    H150390   2.982   6.390  12.052  0.6328  0.3525  2.0912
 9633TIP3    H250391   2.872   6.292  12.017  0.6818  1.0387 -0.1493
 9634TIP3   OH250392   4.874   6.792   3.800  0.0346 -0.1293  0.1303
 9634TIP3    H150393   4.780   6.808   3.808 -0.0172 -0.7094  0.7190
 9634TIP3    H250394   4.882   6.697   3.798  0.7324 -0.1374  1.8733
 9635TIP3   OH250395   4.429   6.762   4.367  0.2118  0.2767 -0.5088
 9635TIP3    H150396   4.435   6.695   4.435  2.8577 -0.1488 -1.0175
 9635TIP3    H250397   4.336   6.773   4.351 -0.3633 -1.9215  0.9250
 9636TIP3   OH250398   2.532   5.350  13.722  0.3584  0.2434  0.3841
 9636TIP3    H150399   2.606   5.323  13.776 -1.9888  0.9982  4.2994
 9636TIP3    H250400   2.467   5.280  13.733 -0.9236  1.3453  0.1191
 9637TIP3   OH250401   3.834   5.893  10.809 -0.5266  0.3958  0.2858
 9637TIP3    H150402   3.871   5.912  10.895  0.1003  0.2343  0.0541
 9637TIP3    H250403   3.897   5.929  10.747 -1.4937  1.4923 -0.1155
 9638TIP3   OH250404   3.980   3.068   2.953 -1.1584  0.1900  0.3994
 9638TIP3    H150405   3.972   2.995   2.892  2.9715  0.7793 -1.1846
 9638TIP3    H250406   3.937   3.141   2.908 -0.1870  0.0456 -0.8432
 9639TIP3   OH250407   2.572   6.202   0.965 -0.3839 -0.1406 -0.2510
 9639TIP3    H150408   2.632   6.134   0.936 -1.6083 -0.5025 -2.0743
 9639TIP3    H250409   2.506   6.207   0.897 -1.0633  1.9778  0.4792
 9640TIP3   OH250410   4.172   1.070   5.910 -0.0081 -0.1758  0.4719
 9640TIP3    H150411   4.103   1.007   5.934 -0.9036  0.6355  0.0708
 9640TIP3    H250412   4.140   1.154   5.943  2.0796 -0.1806  2.7995
 9641TIP3   OH250413   3.149   6.348   2.425 -0.3206 -0.3103  0.3601
 9641TIP3    H150414   3.185   6.314   2.507 -0.6247 -1.7319 -0.0775
 9641TIP3    H250415   3.064   6.305   2.417 -0.4884  0.1682 -0.4843
 9642TIP3   OH250416   3.405   5.095  13.842  0.0380 -0.1741 -0.0381
 9642TIP3    H150417   3.338   5.080  13.909  1.4991 -0.8826  1.3268
 9642TIP3    H250418   3.437   5.008  13.821 -0.6967  0.0003 -2.0272
 9643TIP3   OH250419   0.281   5.616   3.169 -0.1123 -0.2313  0.5724
 9643TIP3    H150420   0.221   5.559   3.122  1.6174 -1.7502  0.0887
 9643TIP3    H250421   0.338   5.653   3.101  0.5089 -0.0683  1.1652
 9644TIP3   OH250422   6.582   2.492  12.778  0.0196  0.0225  0.0204
 9644TIP3    H150423   6.492   2.487  12.744  0.4024 -0.9777 -0.8934
 9644TIP3    H250424   6.586   2.423  12.845 -0.6650  1.8366  2.0477
 9645TIP3   OH250425   6.431   3.140   4.260 -0.2914  0.3467  0.3061
 9645TIP3    H150426   6.438   3.189   4.178  2.0618 -0.7713 -0.2520
 9645TIP3    H250427   6.381   3.061   4.237 -1.3266  0.9466  0.4466
 9646TIP3   OH250428   1.325   5.316   0.266 -0.4330 -0.2880  0.4007
 9646TIP3    H150429   1.354   5.233   0.230  1.5174 -0.6290  2.4543
 9646TIP3    H250430   1.405   5.368   0.273 -1.5881  1.7927 -0.7643
 9647TIP3   OH250431   2.145   2.520  14.464  0.0606 -0.0310 -0.4186
 9647TIP3    H150432   2.120   2.574  14.389 -0.8385 -1.0759 -0.9059
 9647TIP3    H250433   2.077   2.538  14.529  0.8893  0.9415  0.2009
 9648TIP3   OH250434   2.142   3.498   3.732  0.6325  0.3178  0.6795
 9648TIP3    H150435   2.154   3.467   3.643  0.3027  0.0179  0.7353
 9648TIP3    H250436   2.077   3.568   3.725 -0.8577 -0.9708  0.8971
 9649TIP3   OH250437   2.717   1.115  12.199 -0.0022  0.7619 -0.4482
 9649TIP3    H150438   2.697   1.054  12.271 -0.6750  0.6346 -0.7370
 9649TIP3    H250439   2.776   1.065  12.142  0.6498  0.9125  0.0777
 9650TIP3   OH250440   1.799   1.403   5.937  0.0957 -0.1371  0.4330
 9650TIP3    H150441   1.837   1.488   5.916  0.0199 -0.6302 -2.0520
 9650TIP3    H250442   1.858   1.365   6.001  1.2089  0.9916  0.1103
 9651TIP3   OH250443   4.020   3.658  15.732  0.5111 -0.2097  0.6972
 9651TIP3    H150444   4.047   3.743  15.765  0.1240  0.6390 -1.0627
 9651TIP3    H250445   4.016   3.602  15.809 -1.3810  1.9148  2.2421
 9652TIP3   OH250446   4.433   4.123   0.328  0.5618 -0.3241 -0.1786
 9652TIP3    H150447   4.449   4.111   0.234  2.5880  1.2334 -0.0815
 9652TIP3    H250448   4.363   4.060   0.347 -0.2388 -0.3842 -2.8005
 9653TIP3   OH250449   5.116   2.916   3.939  0.0945 -0.4542 -0.2074
 9653TIP3    H150450   5.116   2.976   3.865  0.7245 -0.7934 -0.4869
 9653TIP3    H250451   5.034   2.934   3.985  0.1315  0.3955 -0.4670
 9654TIP3   OH250452   3.009   6.658   3.960 -0.7257 -1.1239 -0.0318
 9654TIP3    H150453   2.931   6.619   3.998 -1.5546 -1.4657 -1.9737
 9654TIP3    H250454   2.997   6.650   3.865 -0.4860  2.9529 -0.5896
 9655TIP3   OH250455   2.784   3.676   4.453 -0.2188  0.1201  0.7111
 9655TIP3    H150456   2.857   3.653   4.510 -0.1835 -0.3508  0.4774
 9655TIP3    H250457   2.780   3.606   4.389 -2.1159 -0.9168  1.8822
 9656TIP3   OH250458   0.130   0.328   0.374 -0.1142  0.0657  0.1091
 9656TIP3    H150459   0.115   0.354   0.465  0.9682 -0.1922  0.3815
 9656TIP3    H250460   0.216   0.285   0.376 -0.0232  0.1720 -1.0533
 9657TIP3   OH250461   5.431   2.422   1.371 -0.6617  0.0604  0.0057
 9657TIP3    H150462   5.367   2.351   1.374  1.8998 -2.4704  2.7603
 9657TIP3    H250463   5.501   2.389   1.315 -0.2453  1.2737 -0.2246
 9658TIP3   OH250464   2.090   5.739  14.056 -0.1693 -0.2044  0.3576
 9658TIP3    H150465   2.078   5.787  14.138 -0.3170 -0.5890  0.5640
 9658TIP3    H250466   2.113   5.806  13.992 -0.1902  0.1165  0.6843
 9659TIP3   OH250467   4.133   4.937   1.157  0.0828  0.1848 -0.5323
 9659TIP3    H150468   4.150   4.923   1.064  0.3733  0.9281 -0.6008
 9659TIP3    H250469   4.038   4.925   1.167  0.4243 -3.2239 -0.2903
 9660TIP3   OH250470   6.338   2.287   3.131 -0.1175 -0.0620 -0.4688
 9660TIP3    H150471   6.328   2.272   3.225 -0.1015 -1.3045 -0.6539
 9660TIP3    H250472   6.264   2.242   3.091  0.1005  0.1123 -1.0797
 9661TIP3   OH250473   2.231   4.649  11.500 -0.1888 -0.4041 -0.0803
 9661TIP3    H150474   2.229   4.566  11.453  0.4986 -0.3643 -0.1877
 9661TIP3    H250475   2.147   4.652  11.547 -0.0370 -1.3481  0.2661
 9662TIP3   OH250476   5.304   6.610  13.329  0.2276  0.3280  0.2903
 9662TIP3    H150477   5.302   6.622  13.234  1.8980 -2.9316 -0.3012
 9662TIP3    H250478   5.294   6.516  13.342 -1.4301  0.8117  3.4972
 9663TIP3   OH250479   5.888   4.864   3.108 -0.5423 -0.3544 -0.0997
 9663TIP3    H150480   5.807   4.904   3.139 -1.4815 -3.1629  1.5024
 9663TIP3    H250481   5.865   4.772   3.095  2.1707 -1.0616 -0.5135
 9664TIP3   OH250482   5.371   1.218  12.379 -0.4027  0.5591 -0.2535
 9664TIP3    H150483   5.330   1.304  12.379 -2.2948 -0.2845  0.2392
 9664TIP3    H250484   5.386   1.198  12.471 -1.9525 -0.4679 -0.1798
 9665TIP3   OH250485   3.126   0.043   5.646  0.0968  0.5694  0.2170
 9665TIP3    H150486   3.192   0.032   5.577  0.0562  1.6096 -0.0057
 9665TIP3    H250487   3.107  -0.046   5.675  0.9036  0.1869 -0.3723
 9666TIP3   OH250488   3.418   2.148  11.464  0.0157 -0.4634 -0.0670
 9666TIP3    H150489   3.500   2.156  11.513 -1.3440  1.0334  2.1748
 9666TIP3    H250490   3.445   2.143  11.372  2.5865  0.6308  0.5440
 9667TIP3   OH250491   6.761   5.888  14.472  0.3061  0.5330  0.5198
 9667TIP3    H150492   6.846   5.862  14.438  0.1254  0.5944  0.0176
 9667TIP3    H250493   6.698   5.844  14.416 -0.0492  3.2036 -1.3964
 9668TIP3   OH250494   3.277   5.644   2.168 -0.2435  0.5456  0.5919
 9668TIP3    H150495   3.295   5.738   2.167  0.8104  0.3942  1.9763
 9668TIP3    H250496   3.273   5.619   2.076  0.9992  1.6783  0.2065
 9669TIP3   OH250497   5.488   4.643  14.228 -0.4107  0.1125 -0.2980
 9669TIP3    H150498   5.488   4.681  14.141 -0.5024 -2.3799 -1.4877
 9669TIP3    H250499   5.580   4.644  14.255 -0.6175  2.8245  0.5820
 9670TIP3   OH250500   0.276   3.749   5.185 -0.0015 -0.5478 -0.6511
 9670TIP3    H150501   0.328   3.829   5.180  0.5565 -0.9701 -2.3181
 9670TIP3    H250502   0.207   3.769   5.248  0.1826  1.2114 -0.9572
 9671TIP3   OH250503   3.930   4.501   1.606  0.2209 -0.2259 -0.7462
 9671TIP3    H150504   3.949   4.589   1.573 -0.1749  0.5073  0.9043
 9671TIP3    H250505   4.014   4.469   1.638  0.2178 -0.1418 -0.6526
 9672TIP3   OH250506   3.711   5.190   1.918 -0.2787 -0.0646 -0.3855
 9672TIP3    H150507   3.761   5.118   1.956 -1.2515 -1.0540 -0.9003
 9672TIP3    H250508   3.747   5.202   1.830  0.3766  0.6021 -0.0388
 9673TIP3   OH250509   0.252   3.600   0.746 -0.1530 -0.1687  0.0126
 9673TIP3    H150510   0.174   3.618   0.800  0.1419  0.8014  0.1361
 9673TIP3    H250511   0.284   3.516   0.778 -1.1450 -0.5782 -0.0345
 9674TIP3   OH250512   4.425   3.917   4.957 -0.4789 -0.4354 -0.2464
 9674TIP3    H150513   4.477   3.839   4.938  0.7524  0.3199 -0.0863
 9674TIP3    H250514   4.428   3.924   5.053  0.2112  0.3146 -0.3105
 9675TIP3   OH250515   1.138   2.779  15.207 -0.5165  0.1323  0.1494
 9675TIP3    H150516   1.217   2.764  15.155 -0.1780  0.7890  0.4521
 9675TIP3    H250517   1.087   2.699  15.197 -1.2939  0.8707 -2.6078
 9676TIP3   OH250518   5.168   0.925  11.329  0.0566 -0.5088  0.1208
 9676TIP3    H150519   5.170   0.837  11.290 -1.1796  0.3685 -2.0448
 9676TIP3    H250520   5.168   0.984  11.254  1.0007  1.3888  1.5448
 9677TIP3   OH250521   1.814   6.476  10.705  0.1058  0.2240  0.4371
 9677TIP3    H150522   1.872   6.511  10.637  1.8702 -1.9718  0.7144
 9677TIP3    H250523   1.751   6.423  10.657 -0.7615  1.3593  0.2748
 9678TIP3   OH250524   1.548   1.052  10.514  0.2639 -0.0651 -0.6162
 9678TIP3    H150525   1.462   1.011  10.505 -1.0127  2.7748 -3.3068
 9678TIP3    H250526   1.590   1.038  10.428 -0.2751  3.9330 -1.7140
 9679TIP3   OH250527   0.412   5.643   2.944 -0.5022 -0.0906 -0.2385
 9679TIP3    H150528   0.361   5.696   2.883 -0.3987 -1.0484 -1.1746
 9679TIP3    H250529   0.496   5.690   2.950 -0.7459  0.3651 -0.3041
 9680TIP3   OH250530   3.443   2.468   1.869 -0.2279  0.2566 -0.5867
 9680TIP3    H150531   3.538   2.478   1.870 -0.2269  0.2902 -1.0541
 9680TIP3    H250532   3.422   2.434   1.956  0.3996 -1.4317 -1.0582
 9681TIP3   OH250533   5.752   0.537  10.571 -0.7718 -0.0212 -0.2546
 9681TIP3    H150534   5.661   0.555  10.548 -0.7771  0.2967  0.0112
 9681TIP3    H250535   5.797   0.621  10.557  0.4606 -1.1545 -5.0071
 9682TIP3   OH250536   3.593   6.760   0.148  0.2339 -0.2566 -0.6382
 9682TIP3    H150537   3.685   6.770   0.126  0.4934 -2.5057 -0.7652
 9682TIP3    H250538   3.549   6.752   0.063  0.1832 -0.9476 -0.5570
 9683TIP3   OH250539   4.361   3.717  12.686  0.6017  0.5146 -0.0610
 9683TIP3    H150540   4.384   3.683  12.772 -0.7725 -0.4145 -0.0171
 9683TIP3    H250541   4.443   3.716  12.636  1.3346  0.7178  1.1127
 9684TIP3   OH250542   1.069   5.930   4.076 -0.1425 -0.1682  0.0681
 9684TIP3    H150543   1.036   5.928   4.166  3.3992  2.0783  1.6319
 9684TIP3    H250544   1.164   5.937   4.086  0.5032 -1.2091 -3.9320
 9685TIP3   OH250545   3.604   0.629  14.945  0.1211  0.1247  0.4964
 9685TIP3    H150546   3.666   0.623  15.018  1.4116  0.2833 -0.5518
 9685TIP3    H250547   3.632   0.706  14.896 -0.9158  0.1989 -0.0085
 9686TIP3   OH250548   3.531   4.861   5.461 -0.4073 -0.0777 -0.6824
 9686TIP3    H150549   3.531   4.946   5.417  0.8006  0.8435  0.9791
 9686TIP3    H250550   3.622   4.830   5.454  0.4230  1.1021  2.8037
 9687TIP3   OH250551   4.179   5.417   3.088 -0.2673 -0.8326 -0.2618
 9687TIP3    H150552   4.239   5.354   3.049  0.7410 -0.9835  1.4540
 9687TIP3    H250553   4.222   5.502   3.078 -0.8683 -0.6025 -1.0849
 9688TIP3   OH250554   1.034   5.857   3.374  0.1076 -0.2898  0.5764
 9688TIP3    H150555   1.005   5.920   3.441  2.4873  2.1214 -0.5111
 9688TIP3    H250556   0.976   5.873   3.300 -0.0493 -0.2399  0.7070
 9689TIP3   OH250557   0.384   1.838  14.317 -0.3599  0.1388 -0.4906
 9689TIP3    H150558   0.416   1.897  14.249 -1.6065  2.3197  0.7051
 9689TIP3    H250559   0.292   1.860  14.327 -0.4420 -0.7852  1.2429
 9690TIP3   OH250560   3.776   3.484  13.089 -0.3547 -0.5358 -0.0956
 9690TIP3    H150561   3.754   3.391  13.083  0.3764 -0.6367 -1.3440
 9690TIP3    H250562   3.839   3.489  13.161 -1.7451 -0.7240  1.1928
 9691TIP3   OH250563   4.630   6.038   0.807 -0.0304  0.1083 -0.4249
 9691TIP3    H150564   4.636   6.078   0.894  0.5058  3.2615 -1.7725
 9691TIP3    H250565   4.562   6.088   0.762  0.9425 -0.2193 -2.3858
 9692TIP3   OH250566   2.520   3.209  15.498  0.2463  0.0630  0.4502
 9692TIP3    H150567   2.461   3.150  15.545  0.3228 -0.1703  0.2567
 9692TIP3    H250568   2.532   3.283  15.557  0.6833 -0.4235  0.9881
 9693TIP3   OH250569   4.626   2.180   3.168 -0.1096 -0.6450  0.0609
 9693TIP3    H150570   4.544   2.226   3.188  0.9813  1.1210  0.8025
 9693TIP3    H250571   4.658   2.221   3.087  1.6312  1.1059  1.5313
 9694TIP3   OH250572   5.779   1.397  15.247 -0.3842  0.3665 -0.6251
 9694TIP3    H150573   5.702   1.340  15.252 -0.5102  0.3856 -1.8496
 9694TIP3    H250574   5.837   1.352  15.185  0.1717  0.8291 -0.4499
 9695TIP3   OH250575   6.018   6.583   2.600 -0.1190 -0.3375 -0.2296
 9695TIP3    H150576   6.105   6.575   2.562  0.6384  0.6419  1.2149
 9695TIP3    H250577   6.028   6.548   2.689 -1.3990 -0.9098 -0.2843
 9696TIP3   OH250578   1.501   0.200   0.547 -0.9106  0.1057 -0.2179
 9696TIP3    H150579   1.441   0.128   0.530  1.4366 -1.8460 -0.6838
 9696TIP3    H250580   1.540   0.180   0.632  0.9439 -0.0701 -1.0764
 9697TIP3   OH250581   3.605   1.207   4.147  0.4853  0.3250  0.0957
 9697TIP3    H150582   3.596   1.189   4.053  3.3706 -0.2110 -0.1456
 9697TIP3    H250583   3.608   1.302   4.153  0.6342  0.3517 -0.3986
 9698TIP3   OH250584   2.558   1.058   5.677 -0.2591  0.4561  0.2024
 9698TIP3    H150585   2.525   0.980   5.632  0.6380  0.2456 -0.1144
 9698TIP3    H250586   2.481   1.099   5.715 -0.6614 -0.9538  0.9471
 9699TIP3   OH250587   0.275   5.477  15.177  0.1551  0.5195 -0.2266
 9699TIP3    H150588   0.221   5.446  15.105 -1.2495  0.4139  0.8172
 9699TIP3    H250589   0.251   5.420  15.251  1.7932  0.4020  0.2562
 9700TIP3   OH250590   4.745   3.654   4.555 -0.5095  0.0862 -0.3572
 9700TIP3    H150591   4.695   3.633   4.634  0.2060 -0.3415 -0.0065
 9700TIP3    H250592   4.777   3.570   4.524  0.0910  0.3588 -0.4990
 9701TIP3   OH250593   0.496   1.882   5.900 -0.1989  0.2897 -0.0553
 9701TIP3    H150594   0.491   1.962   5.951 -2.1683  0.7966 -0.9440
 9701TIP3    H250595   0.525   1.815   5.962 -2.7170  0.8276  1.8601
 9702TIP3   OH250596   2.478   2.921   4.898 -0.0487  0.3165 -0.0225
 9702TIP3    H150597   2.548   2.886   4.954 -1.1012 -0.5106  0.8129
 9702TIP3    H250598   2.401   2.868   4.920 -0.8265  0.8883 -1.2789
 9703TIP3   OH250599   0.155   3.795  16.860 -0.9463 -0.5130 -0.3437
 9703TIP3    H150600   0.116   3.758  16.939  0.7031  0.0515  0.7789
 9703TIP3    H250601   0.092   3.863  16.833 -0.5872  0.7316  1.7099
 9704TIP3   OH250602   2.842   6.546   4.169 -0.3338  0.1726 -0.3859
 9704TIP3    H150603   2.784   6.475   4.142  0.6668 -0.6433 -0.4472
 9704TIP3    H250604   2.899   6.506   4.235 -0.0533  1.0464 -0.0916
 9705TIP3   OH250605   4.714   2.648  14.527  0.2042 -0.0147 -0.0717
 9705TIP3    H150606   4.627   2.657  14.565 -1.0870 -1.1377 -2.4980
 9705TIP3    H250607   4.710   2.565  14.479  1.7749  1.0817 -2.2722
 9706TIP3   OH250608   5.445   5.205  15.234  0.4718 -0.3126  0.4917
 9706TIP3    H150609   5.449   5.288  15.281  2.0195 -0.5302  0.7796
 9706TIP3    H250610   5.517   5.154  15.269  0.3916 -1.2622 -0.6724
 9707TIP3   OH250611   4.452   2.180  11.679 -0.5803  0.1404 -0.0454
 9707TIP3    H150612   4.402   2.135  11.747 -0.7910  0.6823  0.1591
 9707TIP3    H250613   4.395   2.179  11.602  0.4803 -2.3928 -0.9128
 9708TIP3   OH250614   4.624   5.127   2.288 -0.0415  0.3412 -0.4800
 9708TIP3    H150615   4.599   5.139   2.380 -0.6553  0.3551 -0.6439
 9708TIP3    H250616   4.686   5.198   2.271 -0.0911  0.4718 -0.1368
 9709TIP3   OH250617   1.837   5.584  12.618 -0.4188  0.0429  0.3905
 9709TIP3    H150618   1.754   5.625  12.594 -0.1037  0.8188  0.5918
 9709TIP3    H250619   1.816   5.491  12.629 -1.5037  0.3977  1.5905
 9710TIP3   OH250620   2.125   2.577   3.995 -0.2487 -0.3714  0.1315
 9710TIP3    H150621   2.162   2.662   3.974 -0.7466  0.1235  1.1797
 9710TIP3    H250622   2.034   2.595   4.019 -0.2750 -1.1497  0.6747
 9711TIP3   OH250623   4.508   3.573   0.241  0.1798  0.1635 -0.0392
 9711TIP3    H150624   4.436   3.559   0.303  0.1980  0.4394  0.0486
 9711TIP3    H250625   4.547   3.656   0.269 -1.5270  1.7867 -2.0751
 9712TIP3   OH250626   5.395   2.007   4.194 -0.3677 -0.3677  0.1988
 9712TIP3    H150627   5.455   1.934   4.182  3.7218  2.7195 -0.0888
 9712TIP3    H250628   5.386   2.046   4.107 -1.3885  0.2998  0.5743
 9713TIP3   OH250629   0.442   4.848  13.728  0.2979  0.4037 -0.0068
 9713TIP3    H150630   0.402   4.764  13.751 -0.1946  0.7451  0.3958
 9713TIP3    H250631   0.535   4.836  13.748  0.3114 -0.2028 -0.3993
 9714TIP3   OH250632   4.975   1.399  12.533  0.0411  0.1951  0.0487
 9714TIP3    H150633   4.892   1.437  12.507  0.8212  0.1747 -2.8042
 9714TIP3    H250634   4.952   1.318  12.578 -1.4926  1.8277  2.4535
 9715TIP3   OH250635   2.484   5.701   4.477 -0.1519  0.2761 -0.3029
 9715TIP3    H150636   2.451   5.654   4.400 -2.2908  1.3271 -0.0921
 9715TIP3    H250637   2.441   5.658   4.551  2.4926 -1.2453  0.4658
 9716TIP3   OH250638   1.426   6.629   2.932  0.1204  0.2346 -0.0404
 9716TIP3    H150639   1.417   6.625   3.027 -2.4671 -1.6468 -0.2392
 9716TIP3    H250640   1.400   6.718   2.909  1.8463  1.0728  1.0145
 9717TIP3   OH250641   0.699   6.739  14.963 -0.1528 -0.0437 -0.1308
 9717TIP3    H150642   0.635   6.803  14.933 -0.8703  0.1727  1.7393
 9717TIP3    H250643   0.660   6.654  14.941 -1.5058  0.0566  1.6201
 9718TIP3   OH250644   1.633   5.783   0.920  0.7143 -0.1896  0.6051
 9718TIP3    H150645   1.658   5.729   0.845 -0.5593 -0.2297  0.1812
 9718TIP3    H250646   1.560   5.736   0.960 -0.4626  1.2045  0.1973
 9719TIP3   OH250647   3.578   3.492   5.657  0.1274 -0.2597  0.4773
 9719TIP3    H150648   3.589   3.549   5.581  0.1428 -1.8411 -0.7610
 9719TIP3    H250649   3.521   3.421   5.627  2.6811 -2.6735  0.8607
 9720TIP3   OH250650   4.419   6.311   0.246  0.4205  0.5506  0.3066
 9720TIP3    H150651   4.387   6.401   0.241 -1.3206 -0.0808 -1.2481
 9720TIP3    H250652   4.343   6.260   0.276  1.7429 -0.2727  2.5180
 9721TIP3   OH250653   6.373   6.686  15.189 -0.1838  0.4454  0.1107
 9721TIP3    H150654   6.376   6.627  15.113  0.8760  0.2146  0.3109
 9721TIP3    H250655   6.363   6.627  15.264 -1.1553  0.6684  0.1666
 9722TIP3   OH250656   4.989   4.395   3.308 -0.6986 -0.0009 -0.2567
 9722TIP3    H150657   5.054   4.447   3.262  1.2754 -1.1243  1.1067
 9722TIP3    H250658   4.905   4.423   3.271  0.4756  1.9973 -1.6027
 9723TIP3   OH250659   4.370   6.590   0.039 -0.2843  0.3831  0.6115
 9723TIP3    H150660   4.324   6.553   0.114  0.4603 -0.2734  0.7534
 9723TIP3    H250661   4.303   6.640  -0.008 -0.9315  0.1697  1.2888
 9724TIP3   OH250662   1.994   0.190   0.458 -0.3237  0.4795 -0.2874
 9724TIP3    H150663   2.088   0.178   0.469 -0.0211  0.5889 -2.2941
 9724TIP3    H250664   1.966   0.233   0.538  1.0929 -0.6798  0.8919
 9725TIP3   OH250665   1.073   6.040  14.739  0.5901  0.1545 -0.0171
 9725TIP3    H150666   1.031   6.007  14.659  1.8328  0.4540 -0.8201
 9725TIP3    H250667   1.144   5.978  14.755  0.1557 -0.0852  1.0630
 9726TIP3   OH250668   5.400   2.147  15.693 -0.4021  0.9125  0.4203
 9726TIP3    H150669   5.455   2.174  15.619 -0.3024  2.3723  0.9979
 9726TIP3    H250670   5.420   2.054  15.705 -2.1396 -0.0642 -2.8695
 9727TIP3   OH250671   1.069   4.573  13.253 -0.9726  0.1622 -0.1186
 9727TIP3    H150672   1.000   4.613  13.201  0.8613  1.7642 -1.4625
 9727TIP3    H250673   1.081   4.632  13.327  0.8801  1.5601 -1.4436
 9728TIP3   OH250674   6.359   1.252   3.400  0.4000  0.3104 -0.8830
 9728TIP3    H150675   6.420   1.293   3.461 -0.1984  0.4101 -0.3432
 9728TIP3    H250676   6.402   1.172   3.373 -0.0695 -0.6622  1.0625
 9729TIP3   OH250677   1.078   6.120  12.633  0.3671 -0.0024  0.0292
 9729TIP3    H150678   0.994   6.149  12.667 -0.3311 -1.5972 -0.2498
 9729TIP3    H250679   1.073   6.024  12.633  1.2855 -0.1191 -2.1854
 9730TIP3   OH250680   0.467   4.869   5.514 -1.0070 -0.2232 -0.3803
 9730TIP3    H150681   0.413   4.880   5.593 -0.5300 -0.8598  0.0438
 9730TIP3    H250682   0.403   4.856   5.444 -1.4459  0.8044 -0.1796
 9731TIP3   OH250683   0.992   4.533  14.230  0.0917 -0.2509 -0.3631
 9731TIP3    H150684   0.975   4.548  14.323  0.2853 -1.5021 -0.1102
 9731TIP3    H250685   1.023   4.443  14.225 -1.0754 -0.6160 -1.8020
 9732TIP3   OH250686   6.121   5.001   5.776 -0.2654  0.1060 -0.0070
 9732TIP3    H150687   6.052   5.035   5.833 -1.3742 -0.1563 -1.1359
 9732TIP3    H250688   6.191   4.975   5.835 -0.9112  0.8734  1.1431
 9733TIP3   OH250689   5.537   5.157   0.075  0.5096  0.7886 -0.1875
 9733TIP3    H150690   5.610   5.186   0.020  0.4792  0.7350 -0.2553
 9733TIP3    H250691   5.513   5.235   0.125 -0.1795  1.1391 -1.0381
 9734TIP3   OH250692   3.531   0.529   3.707 -0.4729 -0.0643  0.5106
 9734TIP3    H150693   3.527   0.508   3.614  1.8034 -1.6619  0.7067
 9734TIP3    H250694   3.620   0.561   3.721 -0.6241 -0.3018  2.2404
 9735TIP3   OH250695   6.551   6.257  12.763 -0.3004  0.3027 -0.2905
 9735TIP3    H150696   6.529   6.316  12.691 -0.7947  0.5263  0.0389
 9735TIP3    H250697   6.576   6.314  12.835  1.2176  0.0531 -0.5992
 9736TIP3   OH250698   2.781   0.415   2.214 -0.5277 -0.3194  0.2927
 9736TIP3    H150699   2.689   0.407   2.188 -0.7535 -1.5592  1.3513
 9736TIP3    H250700   2.789   0.503   2.249 -1.2412 -0.1149 -0.0446
 9737TIP3   OH250701   1.832   1.111   0.085  0.4869 -0.1597 -0.3582
 9737TIP3    H150702   1.791   1.179   0.031 -2.9961 -2.2510 -0.6938
 9737TIP3    H250703   1.874   1.053   0.021  0.8477  0.1016 -0.3565
 9738TIP3   OH250704   6.365   0.526   3.294 -0.6506  0.1925 -0.1795
 9738TIP3    H150705   6.308   0.488   3.362  0.0070 -0.3268  0.0981
 9738TIP3    H250706   6.437   0.463   3.286  0.4960  1.3927  0.3081
 9739TIP3   OH250707   6.193   5.693   5.502 -0.2342  0.2125  0.0260
 9739TIP3    H150708   6.133   5.645   5.559  0.4690 -0.0977  0.5175
 9739TIP3    H250709   6.144   5.772   5.477 -0.5786  0.3193  0.9961
 9740TIP3   OH250710   0.977   3.028   1.589  0.6288 -0.1852 -0.0290
 9740TIP3    H150711   1.059   3.044   1.636  0.5535  0.8633 -0.2241
 9740TIP3    H250712   0.932   2.961   1.640  0.3028  1.3110  1.7117
 9741TIP3   OH250713   0.394   2.448   4.251  0.1910 -0.4171  0.5513
 9741TIP3    H150714   0.311   2.441   4.299  0.7481 -0.9423  1.4764
 9741TIP3    H250715   0.441   2.519   4.295 -0.2485  0.7183 -0.7510
 9742TIP3   OH250716   3.630   0.691  11.385  0.3432  0.2924 -0.2325
 9742TIP3    H150717   3.585   0.608  11.401  0.3200 -0.1108 -2.0735
 9742TIP3    H250718   3.714   0.682  11.429 -0.8777  0.6149  2.3374
 9743TIP3   OH250719   3.288   5.753   5.223  0.0982  0.6303 -0.5704
 9743TIP3    H150720   3.304   5.826   5.164  0.0637  2.5287  1.6294
 9743TIP3    H250721   3.209   5.777   5.271  0.6360 -0.3703  0.8979
 9744TIP3   OH250722   0.757   6.403  14.172 -0.3906 -0.6346  0.0245
 9744TIP3    H150723   0.782   6.418  14.263 -0.2517  0.9927 -0.2534
 9744TIP3    H250724   0.749   6.491  14.134 -1.6613 -1.2346 -1.2101
 9745TIP3   OH250725   3.068   0.566   3.556 -0.8124 -0.1450  0.7008
 9745TIP3    H150726   2.985   0.518   3.559 -0.7357 -0.3180  0.2317
 9745TIP3    H250727   3.131   0.502   3.523 -0.2782 -0.3012  1.9645
 9746TIP3   OH250728   5.022   0.874   0.759 -0.0044 -0.0733 -0.4708
 9746TIP3    H150729   5.100   0.910   0.717 -1.3863  0.9188 -2.3519
 9746TIP3    H250730   4.956   0.943   0.750 -0.4228  0.2903  3.5753
 9747TIP3   OH250731   6.631   0.452   3.945  0.6673  0.5209 -0.1109
 9747TIP3    H150732   6.558   0.430   4.002 -0.1647  0.8080 -1.0442
 9747TIP3    H250733   6.609   0.411   3.861  0.9652  1.6701 -0.7595
 9748TIP3   OH250734   0.587   5.385  12.423 -0.3484  0.1385  0.5334
 9748TIP3    H150735   0.633   5.317  12.374 -1.9139 -0.5838 -0.0012
 9748TIP3    H250736   0.626   5.467  12.393  0.9195 -0.4672  0.4878
 9749TIP3   OH250737   3.542   6.543  14.938  0.5656  0.1410 -0.1705
 9749TIP3    H150738   3.552   6.472  15.003 -0.2583 -0.6759 -0.9127
 9749TIP3    H250739   3.626   6.545  14.892  0.9126  0.2612  0.4566
 9750TIP3   OH250740   3.002   3.307   0.696 -0.4227  0.5370  0.0511
 9750TIP3    H150741   2.989   3.393   0.656 -0.7853  0.7266  0.5553
 9750TIP3    H250742   2.923   3.293   0.748 -2.0016 -1.5838 -2.6206
 9751TIP3   OH250743   4.717   0.084  10.871 -0.0998  0.3217 -0.3117
 9751TIP3    H150744   4.705   0.004  10.923  0.4292 -0.2708 -1.0743
 9751TIP3    H250745   4.794   0.126  10.908 -1.0822  1.1385  0.8832
 9752TIP3   OH250746   6.340   5.359   4.339 -0.3140 -0.2344 -0.5153
 9752TIP3    H150747   6.366   5.288   4.397 -0.9961  0.1120  0.2465
 9752TIP3    H250748   6.321   5.317   4.255 -1.0978 -1.0152  0.0412
 9753TIP3   OH250749   2.714   5.704  15.916  0.3515 -0.0091  0.1056
 9753TIP3    H150750   2.703   5.764  15.989  0.7916  0.3376 -0.1077
 9753TIP3    H250751   2.626   5.695  15.880  0.0134 -0.7031  1.0717
 9754TIP3   OH250752   1.745   5.079   4.936  0.2260  0.1432  0.2752
 9754TIP3    H150753   1.732   4.994   4.894 -0.5323  0.4724 -0.1754
 9754TIP3    H250754   1.820   5.117   4.891  0.6026 -0.3095  0.5156
 9755TIP3   OH250755   0.099   4.990   2.933 -0.5164  1.0167 -0.2929
 9755TIP3    H150756   0.074   4.901   2.957 -0.2183  0.9144 -0.3557
 9755TIP3    H250757   0.194   4.992   2.946 -0.2991  0.8933 -1.6752
 9756TIP3   OH250758   2.614   5.294  12.355  0.2367  0.1771 -0.2832
 9756TIP3    H150759   2.618   5.272  12.262  2.2726  1.1927 -0.5082
 9756TIP3    H250760   2.535   5.348  12.363 -0.6141 -0.8870 -1.1663
 9757TIP3   OH250761   1.713   3.933  13.178 -0.1418  0.1240  0.4355
 9757TIP3    H150762   1.734   3.850  13.221  1.4053  1.0274  1.5466
 9757TIP3    H250763   1.744   3.921  13.088 -4.0318 -2.0319 -0.8545
 9758TIP3   OH250764   4.608   3.797  11.315 -0.0119 -0.4778 -0.5545
 9758TIP3    H150765   4.542   3.728  11.322 -0.8726  0.1445 -2.0600
 9758TIP3    H250766   4.650   3.781  11.230  2.1686 -1.1752  0.6065
 9759TIP3   OH250767   5.763   6.825   4.377 -0.8728  0.3257  0.1396
 9759TIP3    H150768   5.769   6.767   4.452 -1.5773  0.1099  0.0312
 9759TIP3    H250769   5.790   6.911   4.410 -1.6679  0.3396  0.7590
 9760TIP3   OH250770   4.316   3.919  16.209 -0.2319  0.0772 -0.1472
 9760TIP3    H150771   4.401   3.878  16.195 -0.1333  0.2613 -0.0935
 9760TIP3    H250772   4.335   3.995  16.265 -0.3546  0.4254 -0.5695
 9761TIP3   OH250773   1.994   1.870   0.009  0.0075 -1.0309 -0.3242
 9761TIP3    H150774   1.960   1.845  -0.076 -0.7222 -1.3420  0.0514
 9761TIP3    H250775   2.007   1.965   0.003  0.9680 -1.1962 -1.1194
 9762TIP3   OH250776   5.235   5.274   0.820 -0.7616  0.4152 -0.0394
 9762TIP3    H150777   5.164   5.296   0.880 -1.9509 -0.3453 -1.1118
 9762TIP3    H250778   5.296   5.224   0.873 -1.6049  0.0718  0.6371
 9763TIP3   OH250779   6.803   4.246   1.346  0.0123  0.0855  0.1812
 9763TIP3    H150780   6.758   4.195   1.414 -1.2944  0.0201 -0.7006
 9763TIP3    H250781   6.870   4.294   1.394 -0.6579 -0.2081  1.4825
 9764TIP3   OH250782   0.092   3.028   2.603  0.0756 -0.1848 -0.4215
 9764TIP3    H150783   0.168   3.030   2.662  0.8255  0.8876 -1.3778
 9764TIP3    H250784   0.034   3.096   2.636  0.1636 -0.0760 -0.4896
 9765TIP3   OH250785   4.402   5.772   2.760  0.3064 -0.2517  0.1175
 9765TIP3    H150786   4.422   5.682   2.732  1.3763 -0.0556  0.2240
 9765TIP3    H250787   4.470   5.825   2.719  0.2032  0.4032  0.7845
 9766TIP3   OH250788   6.238   1.470   1.680 -0.0914 -0.4750  0.6474
 9766TIP3    H150789   6.296   1.426   1.743 -0.6599 -2.1256  0.0768
 9766TIP3    H250790   6.217   1.402   1.616 -2.3387  0.1615  0.6285
 9767TIP3   OH250791   6.389   2.750  14.856  0.0034  0.3071  0.6770
 9767TIP3    H150792   6.371   2.837  14.892  0.3142  0.3913  0.6370
 9767TIP3    H250793   6.365   2.689  14.925 -0.7533  0.3941  0.5014
 9768TIP3   OH250794   1.650   2.775  12.580 -0.2313  0.0992  0.4253
 9768TIP3    H150795   1.723   2.835  12.565  1.4951 -1.5257  1.8952
 9768TIP3    H250796   1.576   2.833  12.597  0.8552  1.8045 -0.3101
 9769TIP3   OH250797   4.362   6.360  16.789 -0.2277  0.1313  0.3709
 9769TIP3    H150798   4.351   6.430  16.724  0.5000 -0.7085 -0.6884
 9769TIP3    H250799   4.398   6.404  16.866  1.3532  0.7753 -0.6811
 9770TIP3   OH250800   2.760   0.088   0.007  0.1207 -0.2986  0.1946
 9770TIP3    H150801   2.675   0.046  -0.005  0.6531 -1.7398  1.1918
 9770TIP3    H250802   2.740   0.166   0.061 -0.6777 -0.0776 -0.4017
 9771TIP3   OH250803   2.902   4.199   5.311  0.3306  0.0051  0.2153
 9771TIP3    H150804   2.917   4.106   5.293  0.1938  0.2061 -0.9676
 9771TIP3    H250805   2.810   4.213   5.288  0.1917  0.3256  0.9208
 9772TIP3   OH250806   4.342   0.128  12.306  0.1407  0.0267  0.1070
 9772TIP3    H150807   4.362   0.184  12.231 -0.5212 -0.3596 -0.3646
 9772TIP3    H250808   4.408   0.059  12.303  0.1653  0.0580 -0.0676
 9773TIP3   OH250809   6.639   2.598   0.829 -0.2260 -0.1182 -0.0701
 9773TIP3    H150810   6.620   2.611   0.922  0.7530 -0.7966  0.2389
 9773TIP3    H250811   6.574   2.536   0.799 -1.3173  1.0208 -0.1559
 9774TIP3   OH250812   2.469   0.745  12.836 -0.6622  0.3780  0.5128
 9774TIP3    H150813   2.375   0.732  12.822 -0.2023 -0.0908 -3.3023
 9774TIP3    H250814   2.491   0.819  12.779  1.6742 -1.2251 -0.8187
 9775TIP3   OH250815   5.721   4.613   3.164 -0.2058  0.3925 -0.3400
 9775TIP3    H150816   5.793   4.614   3.226 -0.1300 -0.8715 -0.3786
 9775TIP3    H250817   5.643   4.630   3.218  0.0485  1.0871 -0.1912
 9776TIP3   OH250818   4.558   0.697  12.510 -0.2432  0.2988  0.7157
 9776TIP3    H150819   4.542   0.755  12.584  1.3795  1.2878  0.3330
 9776TIP3    H250820   4.631   0.642  12.537 -0.7454 -0.5081  0.4789
 9777TIP3   OH250821   5.145   4.814  14.911  0.2877 -0.0463  0.0141
 9777TIP3    H150822   5.107   4.899  14.888 -2.2054 -0.5574  1.7523
 9777TIP3    H250823   5.130   4.806  15.005  0.2118 -2.5046 -0.1403
 9778TIP3   OH250824   6.273   5.722   2.550  0.4170 -0.4355  0.2380
 9778TIP3    H150825   6.178   5.719   2.562  0.2952  0.1621 -0.5300
 9778TIP3    H250826   6.286   5.751   2.460  1.3288 -1.6140 -0.0348
 9779TIP3   OH250827   3.510   0.176  11.799  0.0208 -0.3203  0.6746
 9779TIP3    H150828   3.426   0.137  11.775 -0.4719  0.9712  0.2049
 9779TIP3    H250829   3.571   0.146  11.731  0.1430 -1.8166  1.3893
 9780TIP3   OH250830   5.220   5.158   1.906  0.6551 -0.2295  0.0094
 9780TIP3    H150831   5.271   5.236   1.886 -0.3833  0.8670  1.3723
 9780TIP3    H250832   5.137   5.171   1.861 -0.3437  0.5546  1.9714
 9781TIP3   OH250833   4.320   2.532  13.607 -0.2851 -0.4705 -0.0437
 9781TIP3    H150834   4.245   2.474  13.593 -0.2339 -0.3027 -1.1132
 9781TIP3    H250835   4.389   2.495  13.550 -0.3116  0.7286 -0.8838
 9782TIP3   OH250836   0.134   3.893  15.444  0.2125  0.5125 -0.8385
 9782TIP3    H150837   0.149   3.981  15.410 -4.6939  1.0178 -2.4098
 9782TIP3    H250838   0.055   3.900  15.497 -0.3270 -2.9320 -0.9400
 9783TIP3   OH250839   6.602   3.862   6.239  0.0402 -0.0432 -0.0342
 9783TIP3    H150840   6.625   3.944   6.194 -0.1628 -1.2974 -2.5649
 9783TIP3    H250841   6.588   3.889   6.330 -0.8821  2.8919 -0.9173
 9784TIP3   OH250842   5.262   3.210   2.898  0.1214 -0.1033 -0.3154
 9784TIP3    H150843   5.224   3.126   2.924 -0.4005  0.7061  1.7065
 9784TIP3    H250844   5.186   3.266   2.880  0.4172  0.4026 -0.0317
 9785TIP3   OH250845   6.608   3.962  15.412  0.0247  0.3041  0.0487
 9785TIP3    H150846   6.618   3.890  15.349 -1.4875  0.5868 -0.5495
 9785TIP3    H250847   6.575   3.919  15.492 -0.5198  0.2738 -0.1883
 9786TIP3   OH250848   2.483   4.487   6.145 -0.4891 -0.0429  0.4645
 9786TIP3    H150849   2.468   4.557   6.208  2.5162 -0.3531  1.6880
 9786TIP3    H250850   2.496   4.531   6.061 -2.7628  0.4893  0.3287
 9787TIP3   OH250851   5.864   4.259   5.614  0.0741 -0.0326  0.2840
 9787TIP3    H150852   5.792   4.277   5.674  0.8305  0.9570  0.9216
 9787TIP3    H250853   5.849   4.319   5.541  0.6276  0.6920  0.7507
 9788TIP3   OH250854   6.809   1.819   0.271  0.3307 -0.2251 -0.0419
 9788TIP3    H150855   6.883   1.775   0.229  0.7310 -0.1142  0.5343
 9788TIP3    H250856   6.849   1.889   0.322 -0.3332  1.1487 -1.3232
 9789TIP3   OH250857   5.228   1.064  13.755 -0.5218 -0.0812  0.0665
 9789TIP3    H150858   5.320   1.046  13.736 -0.1985  0.1506  1.3377
 9789TIP3    H250859   5.220   1.159  13.751  0.0273  0.1719  2.8727
 9790TIP3   OH250860   3.788   6.816  15.696 -0.4666  0.5422 -0.2639
 9790TIP3    H150861   3.791   6.724  15.670 -0.5262  0.7839 -1.1466
 9790TIP3    H250862   3.695   6.837  15.700 -0.4509  0.5943 -0.1510
 9791TIP3   OH250863   2.778   2.720  16.207  0.1549  0.1136 -0.5253
 9791TIP3    H150864   2.700   2.690  16.162 -1.0082  0.0266  1.4356
 9791TIP3    H250865   2.762   2.813  16.224  0.0762 -0.0921  0.6159
 9792TIP3   OH250866   6.370   1.275  12.156  0.4364 -0.2137  0.2299
 9792TIP3    H150867   6.425   1.265  12.079 -0.1677  0.5901 -0.3202
 9792TIP3    H250868   6.401   1.356  12.198 -0.8690  0.7529 -0.5792
 9793TIP3   OH250869   3.431   4.134   1.692  0.2949 -0.3979 -0.2763
 9793TIP3    H150870   3.358   4.094   1.644  0.8477  0.4342 -1.9047
 9793TIP3    H250871   3.390   4.194   1.753 -0.4531 -1.6953  0.5275
 9794TIP3   OH250872   4.832   4.872   3.159  0.2067  0.1353 -0.1355
 9794TIP3    H150873   4.871   4.940   3.214 -0.6918  0.5314  0.0362
 9794TIP3    H250874   4.833   4.909   3.071  2.6115 -0.9174 -0.6242
 9795TIP3   OH250875   5.451   1.535  15.926 -0.7116 -0.2111 -0.0285
 9795TIP3    H150876   5.515   1.506  15.991  0.4703  0.7380 -0.7230
 9795TIP3    H250877   5.371   1.550  15.976 -0.2960 -1.0524  0.9250
 9796TIP3   OH250878   5.034   2.416  12.330  0.3137 -0.0902 -0.0461
 9796TIP3    H150879   4.999   2.467  12.257  2.2798  1.0123 -0.3047
 9796TIP3    H250880   5.099   2.473  12.370  0.7397 -1.4508  1.3019
 9797TIP3   OH250881   6.068   4.985  15.915  0.6481 -0.2833  0.2577
 9797TIP3    H150882   6.103   4.934  15.988  2.0417 -0.3658 -0.4371
 9797TIP3    H250883   6.144   5.030  15.878 -0.1257  0.2160 -0.7909
 9798TIP3   OH250884   2.903   3.985  11.615  0.5853 -0.0682  0.1731
 9798TIP3    H150885   2.844   4.050  11.653  1.4629  0.2049  1.1054
 9798TIP3    H250886   2.926   4.020  11.529  0.8910  0.7650  0.5870
 9799TIP3   OH250887   5.318   3.689  15.126  0.3504  0.3832 -0.0684
 9799TIP3    H150888   5.254   3.634  15.081 -0.0659  1.3048 -0.6245
 9799TIP3    H250889   5.380   3.715  15.058  0.2614  1.0007  0.0782
 9800TIP3   OH250890   4.191   1.943   1.168 -0.3164  0.1993  0.4497
 9800TIP3    H150891   4.097   1.958   1.153 -0.2565  1.6924  1.3864
 9800TIP3    H250892   4.232   1.965   1.084 -0.7148  0.5650  0.3457
 9801TIP3   OH250893   4.346   4.479   1.513 -0.1971 -0.2015  0.4991
 9801TIP3    H150894   4.314   4.404   1.464 -0.8738 -0.0180  0.6565
 9801TIP3    H250895   4.294   4.480   1.593  0.5510 -0.1976  0.9933
 9802TIP3   OH250896   0.633   0.089   1.762 -0.3699 -0.1372 -0.3523
 9802TIP3    H150897   0.577   0.026   1.718  1.5407 -2.0693 -0.1983
 9802TIP3    H250898   0.627   0.066   1.855 -0.4658  0.6247 -0.1587
 9803TIP3   OH250899   4.779   2.824  11.740  0.1173  0.0316  0.4710
 9803TIP3    H150900   4.695   2.782  11.757  0.6571 -3.5337 -3.8791
 9803TIP3    H250901   4.844   2.763  11.774  0.9075 -0.1635 -1.2911
 9804TIP3   OH250902   3.426   1.770   0.572 -0.1233 -0.0503  0.0819
 9804TIP3    H150903   3.419   1.715   0.494 -1.9776 -0.5953  0.5942
 9804TIP3    H250904   3.488   1.724   0.628  1.4501  0.4836 -1.1285
 9805TIP3   OH250905   3.624   1.233  15.794  0.0873 -0.9379 -0.2882
 9805TIP3    H150906   3.655   1.301  15.735 -1.5523  0.2093  0.1271
 9805TIP3    H250907   3.532   1.252  15.808  0.2781 -1.4491  2.2507
 9806TIP3   OH250908   2.467   0.667  15.547  0.0230 -0.1892 -0.2715
 9806TIP3    H150909   2.389   0.692  15.497  0.4792  0.3864 -0.7034
 9806TIP3    H250910   2.493   0.583  15.509 -0.4277 -0.4302 -0.0663
 9807TIP3   OH250911   6.256   1.731  14.408 -0.0132 -0.0262 -0.5706
 9807TIP3    H150912   6.218   1.649  14.377 -2.3748  0.9969 -0.6346
 9807TIP3    H250913   6.217   1.798  14.352  1.2897  1.2219 -0.0523
 9808TIP3   OH250914   2.528   1.910   2.085  0.3133 -0.1774 -0.3871
 9808TIP3    H150915   2.533   1.879   1.995 -2.5957  1.1814 -1.1537
 9808TIP3    H250916   2.536   1.831   2.138  1.5932 -1.0649 -1.8344
 9809TIP3   OH250917   1.092   5.725   2.919  0.5804  0.0596  0.4682
 9809TIP3    H150918   1.037   5.725   2.841 -1.7712 -0.7827  2.0004
 9809TIP3    H250919   1.122   5.634   2.927  1.5655  0.3396  0.0878
 9810TIP3   OH250920   1.510   1.317  14.867 -0.4577 -0.6704  0.6815
 9810TIP3    H150921   1.539   1.386  14.808 -1.3794 -2.3322 -1.8602
 9810TIP3    H250922   1.445   1.360  14.924  0.9981  1.1436  1.0710
 9811TIP3   OH250923   4.157   3.309  11.100 -0.6427  0.3099  0.0213
 9811TIP3    H150924   4.243   3.352  11.098  0.5132 -1.8375  1.0251
 9811TIP3    H250925   4.151   3.264  11.016  1.4130 -3.3883  1.6261
 9812TIP3   OH250926   1.048   2.956   3.790 -0.1043  0.2158 -0.4061
 9812TIP3    H150927   0.979   2.925   3.849  0.0394  0.0951 -0.2992
 9812TIP3    H250928   1.009   2.954   3.703 -0.1343 -0.1549 -0.3844
 9813TIP3   OH250929   0.649   2.276  15.801  0.4996 -0.6411  0.1958
 9813TIP3    H150930   0.612   2.196  15.839 -1.1672 -0.5817 -1.1473
 9813TIP3    H250931   0.581   2.307  15.742  1.8099  0.8555 -0.5922
 9814TIP3   OH250932   4.592   5.194  13.011 -0.5065  0.1633  0.7106
 9814TIP3    H150933   4.631   5.162  12.930 -0.4362 -1.7537  1.4293
 9814TIP3    H250934   4.665   5.236  13.058 -0.7084  1.8986 -0.4848
 9815TIP3   OH250935   4.108   5.158  11.579  0.3596  0.1322  0.0632
 9815TIP3    H150936   4.132   5.196  11.663 -2.5128  1.2896  0.4617
 9815TIP3    H250937   4.051   5.084  11.602 -0.1030  0.1950 -0.8379
 9816TIP3   OH250938   0.395   1.118  12.303  0.4603  0.7469  0.7522
 9816TIP3    H150939   0.320   1.170  12.275  1.2044  0.4204 -2.1510
 9816TIP3    H250940   0.358   1.035  12.332 -0.3850  1.1354  0.8117
 9817TIP3   OH250941   2.685   1.981  14.373  0.0103  0.0735 -0.1565
 9817TIP3    H150942   2.749   1.911  14.385 -0.6853 -0.9578 -2.0948
 9817TIP3    H250943   2.602   1.941  14.398 -0.6204 -0.3512 -2.7139
 9818TIP3   OH250944   1.074   4.618  15.347 -0.4422  0.5993  0.5013
 9818TIP3    H150945   0.993   4.661  15.321 -1.4211 -2.2106 -1.6740
 9818TIP3    H250946   1.137   4.642  15.279 -0.9949 -1.2013 -0.7271
 9819TIP3   OH250947   5.074   0.684  13.487 -0.1417  0.0518  0.6935
 9819TIP3    H150948   5.045   0.600  13.523  0.1710  0.0815  1.0175
 9819TIP3    H250949   5.140   0.715  13.549  1.0906 -0.3370 -0.4002
 9820TIP3   OH250950   5.419   3.825   3.171 -0.1225  0.2867  0.1439
 9820TIP3    H150951   5.470   3.767   3.228  0.0932 -0.1052 -0.4296
 9820TIP3    H250952   5.341   3.774   3.149  0.5145 -0.1884 -1.1279
 9821TIP3   OH250953   5.106   5.419  11.206  0.3016 -0.4735  0.4663
 9821TIP3    H150954   5.015   5.411  11.233  0.4306 -0.6513  0.8525
 9821TIP3    H250955   5.103   5.417  11.110 -0.0995 -0.4675  0.4780
 9822TIP3   OH250956   0.818   6.668   4.124  0.2173 -0.1417 -0.2643
 9822TIP3    H150957   0.776   6.681   4.039  0.7223  1.7765 -0.2672
 9822TIP3    H250958   0.820   6.756   4.164  0.7971 -0.8372  1.3441
 9823TIP3   OH250959   3.710   0.435  10.478  0.2325 -0.1667  0.3459
 9823TIP3    H150960   3.640   0.462  10.419  0.5027 -0.7833 -0.2590
 9823TIP3    H250961   3.712   0.340  10.472  1.5115 -0.1252 -0.1022
 9824TIP3   OH250962   0.822   1.314   0.065 -0.0496  0.5511  0.3217
 9824TIP3    H150963   0.905   1.268   0.074 -0.1408  0.3989  0.3904
 9824TIP3    H250964   0.844   1.395   0.020  0.1768  0.6279  0.5679
 9825TIP3   OH250965   5.016   2.295   4.402 -0.1922 -0.2880 -0.1827
 9825TIP3    H150966   5.093   2.240   4.391 -0.8890 -1.7014  1.4925
 9825TIP3    H250967   5.010   2.311   4.496 -0.7119  1.7023 -0.4867
 9826TIP3   OH250968   5.214   5.012  13.244 -0.0405  0.4999  0.7320
 9826TIP3    H150969   5.299   4.982  13.276 -1.2387 -0.6910  2.9726
 9826TIP3    H250970   5.219   4.999  13.149  2.9191  2.2726  0.4905
 9827TIP3   OH250971   6.135   0.568  13.446  0.3408 -0.2283  0.1605
 9827TIP3    H150972   6.061   0.576  13.506  1.5318 -0.3126  1.6998
 9827TIP3    H250973   6.142   0.654  13.405 -1.0493 -0.4372 -0.5879
 9828TIP3   OH250974   2.485   1.642   0.842 -0.0021 -0.4003 -0.6480
 9828TIP3    H150975   2.471   1.709   0.909 -0.0773 -1.7640  0.7470
 9828TIP3    H250976   2.427   1.668   0.770 -2.6858 -0.8183  1.2282
 9829TIP3   OH250977   1.948   1.338   6.384 -0.2429 -0.1978  0.2823
 9829TIP3    H150978   2.002   1.269   6.422 -1.0225 -0.7332  0.4325
 9829TIP3    H250979   1.888   1.364   6.454  0.1191  0.7276  0.2697
 9830TIP3   OH250980   3.027   3.855  12.238 -0.1138 -0.1327 -0.0311
 9830TIP3    H150981   3.095   3.845  12.305  1.3545  2.4160 -1.0023
 9830TIP3    H250982   3.074   3.862  12.156 -1.7030 -0.3710 -1.0072
 9831TIP3   OH250983   5.984   1.065   5.569  0.0224  0.1772  0.2385
 9831TIP3    H150984   6.020   1.153   5.578 -0.9097  0.8480 -1.8557
 9831TIP3    H250985   5.889   1.078   5.569 -0.1233 -0.7174 -0.8873
 9832TIP3   OH250986   2.233   4.850  14.494 -0.0553  0.6445 -0.4146
 9832TIP3    H150987   2.167   4.849  14.424 -3.0281 -1.0036  2.1583
 9832TIP3    H250988   2.197   4.910  14.559  0.9890 -0.2919  1.0847
 9833TIP3   OH250989   6.314   2.430  12.694 -0.0325 -0.2508 -0.2758
 9833TIP3    H150990   6.245   2.377  12.733 -0.8122 -1.7016 -3.2811
 9833TIP3    H250991   6.268   2.508  12.662  0.4424  0.5279  0.8772
 9834TIP3   OH250992   0.294   5.375  11.945 -0.4712 -0.4177  0.1660
 9834TIP3    H150993   0.257   5.415  11.866 -0.9547  0.1916  0.6972
 9834TIP3    H250994   0.249   5.417  12.017  1.4183  0.5422  0.8661
 9835TIP3   OH250995   1.069   1.520  16.055 -0.5799  0.0021 -0.3313
 9835TIP3    H150996   1.030   1.601  16.020 -0.1082  0.2561 -0.2826
 9835TIP3    H250997   1.025   1.507  16.139 -2.6035 -1.2726 -1.5022
 9836TIP3   OH250998   3.797   1.247   2.939  0.5673 -0.3319 -0.2196
 9836TIP3    H150999   3.777   1.223   2.849  1.2802  1.1441 -0.8084
 9836TIP3    H251000   3.829   1.337   2.933  1.9668 -0.6732  1.3288
 9837TIP3   OH251001   3.928   3.043   0.571  0.0202 -0.1750 -0.0183
 9837TIP3    H151002   4.012   3.024   0.530 -0.0650  0.3074 -0.4136
 9837TIP3    H251003   3.863   3.012   0.509 -0.1088 -1.7532  0.8449
 9838TIP3   OH251004   1.040   4.471   4.812 -0.1273  0.4163  0.7029
 9838TIP3    H151005   0.947   4.448   4.804 -0.0049  0.2085 -0.3234
 9838TIP3    H251006   1.059   4.518   4.731  1.1914 -1.4154 -0.1244
 9839TIP3   OH251007   4.566   1.083   1.396  0.1385 -0.4127 -0.6063
 9839TIP3    H151008   4.516   1.004   1.417  1.0978 -0.5303  1.4593
 9839TIP3    H251009   4.637   1.084   1.460 -0.5006  2.7077  0.2197
 9840TIP3   OH251010   2.286   3.047   0.634  0.2402 -0.2348 -0.0994
 9840TIP3    H151011   2.304   3.104   0.708  1.3268  0.1665 -0.6524
 9840TIP3    H251012   2.366   3.048   0.582 -1.0865  1.0514 -2.3099
 9841TIP3   OH251013   2.161   2.766  16.048  0.2854 -0.0132  0.1204
 9841TIP3    H151014   2.135   2.675  16.061  1.1279 -0.5395 -1.4925
 9841TIP3    H251015   2.220   2.786  16.121 -1.9763  0.1733  2.0069
 9842TIP3   OH251016   4.956   6.816   1.604  0.1513  0.3234 -0.1188
 9842TIP3    H151017   4.917   6.734   1.576 -0.7998  0.0984  1.7085
 9842TIP3    H251018   4.975   6.804   1.697  2.5744  1.2246 -0.4179
 9843TIP3   OH251019   1.924   5.445  11.245  0.1854  0.2916  0.0248
 9843TIP3    H151020   1.832   5.422  11.256  0.2752  0.9929  3.2317
 9843TIP3    H251021   1.932   5.467  11.152 -2.3659 -1.7350 -0.7963
 9844TIP3   OH251022   1.661   3.568  12.863 -0.0596 -0.2328  0.3293
 9844TIP3    H151023   1.588   3.586  12.804  0.4924 -0.4438 -0.4258
 9844TIP3    H251024   1.621   3.521  12.936 -1.0482  1.5596  1.0088
 9845TIP3   OH251025   4.394   3.048   1.966 -0.4383  0.3830 -0.0391
 9845TIP3    H151026   4.373   2.955   1.970 -0.2515  0.3049 -0.8055
 9845TIP3    H251027   4.357   3.078   1.883 -1.2569  1.1927  0.5836
 9846TIP3   OH251028   3.541   5.390   0.109  0.1838  0.0438  0.1624
 9846TIP3    H151029   3.447   5.372   0.112 -0.0067  0.7961 -0.8932
 9846TIP3    H251030   3.552   5.473   0.155  0.0774  0.8240 -1.1574
 9847TIP3   OH251031   2.825   5.136   2.982 -0.2672  0.3035 -0.6450
 9847TIP3    H151032   2.892   5.145   3.049  0.1475  1.1087 -1.1479
 9847TIP3    H251033   2.855   5.065   2.926  0.1230  0.5955 -0.8091
 9848TIP3   OH251034   4.618   5.077   1.235  0.4959 -0.5932  0.7494
 9848TIP3    H151035   4.619   5.049   1.326 -0.2171 -1.4201  0.5119
 9848TIP3    H251036   4.542   5.034   1.197  1.0410 -0.6225 -0.3532
 9849TIP3   OH251037   1.022   4.191  15.025  0.1498  0.2930  0.2204
 9849TIP3    H151038   0.987   4.144  14.950  2.0241 -0.1327 -0.4495
 9849TIP3    H251039   1.103   4.143  15.047  0.9906  1.9421  0.8524
 9850TIP3   OH251040   2.223   5.216   5.348  0.3442 -0.2669  0.7445
 9850TIP3    H151041   2.135   5.197   5.382  0.2771  1.0145  1.3566
 9850TIP3    H251042   2.259   5.280   5.410  0.7274  1.1639 -0.8884
 9851TIP3   OH251043   2.686   5.495  15.620 -0.3886  0.5070  0.2466
 9851TIP3    H151044   2.632   5.438  15.675 -2.1099  0.0031 -1.8340
 9851TIP3    H251045   2.683   5.454  15.533  1.0955  1.9971 -0.5644
 9852TIP3   OH251046   0.525   5.952   2.680 -0.4166 -0.4451  0.2513
 9852TIP3    H151047   0.615   5.943   2.712 -0.0458 -0.2156 -0.6878
 9852TIP3    H251048   0.535   5.968   2.586 -1.4197  0.1463  0.2347
 9853TIP3   OH251049   3.365   5.584  15.426  0.6278 -0.3618 -0.1446
 9853TIP3    H151050   3.419   5.662  15.440  1.1926 -0.8237  0.3217
 9853TIP3    H251051   3.293   5.614  15.371 -0.3248  0.9685  1.7139
 9854TIP3   OH251052   2.752   4.274   1.487  0.3941 -0.4963 -0.1010
 9854TIP3    H151053   2.728   4.183   1.503  1.6680 -0.6832  0.9371
 9854TIP3    H251054   2.748   4.284   1.391 -0.0970 -1.5346 -0.1942
 9855TIP3   OH251055   2.087   3.695  16.571 -0.0004 -0.3152  0.0719
 9855TIP3    H151056   2.104   3.687  16.477  0.2859 -1.1244  0.1774
 9855TIP3    H251057   1.992   3.702  16.578 -0.2618 -2.6159 -0.1838
 9856TIP3   OH251058   0.357   4.410  16.681 -0.1992 -0.2649 -0.1209
 9856TIP3    H151059   0.279   4.439  16.635 -0.6843  1.1663  1.4858
 9856TIP3    H251060   0.327   4.341  16.740  0.2212 -1.3689 -1.1732
 9857TIP3   OH251061   0.252   1.474   2.364  0.2410  0.5787  0.0901
 9857TIP3    H151062   0.318   1.439   2.423 -1.2079  1.0210  2.0751
 9857TIP3    H251063   0.202   1.397   2.336 -0.8632  0.6226  1.8033
 9858TIP3   OH251064   6.079   3.534   1.830 -0.2754  0.7814  0.5523
 9858TIP3    H151065   6.052   3.447   1.859  2.1390  0.1070  0.9883
 9858TIP3    H251066   6.032   3.547   1.747 -3.6447  0.7546  2.2661
 9859TIP3   OH251067   3.582   6.468  14.349  0.0846  0.7953  0.1908
 9859TIP3    H151068   3.661   6.522  14.345  0.8846 -0.2703  1.0270
 9859TIP3    H251069   3.576   6.440  14.441 -1.9622  1.8462  0.4352
 9860TIP3   OH251070   1.779   6.821   3.324 -0.3580 -1.2222  0.3038
 9860TIP3    H151071   1.843   6.884   3.358 -0.0655 -1.5536  0.3663
 9860TIP3    H251072   1.748   6.774   3.401  1.1848 -2.8028  0.0242
 9861TIP3   OH251073   1.355   0.550  16.400  0.9379  0.1827 -0.1836
 9861TIP3    H151074   1.416   0.550  16.474  0.6854  0.2594  0.0259
 9861TIP3    H251075   1.286   0.611  16.426  1.5802  1.3419 -1.0856
 9862TIP3   OH251076   4.974   1.971  14.220 -0.0486 -0.3935 -0.2470
 9862TIP3    H151077   5.051   1.980  14.164 -0.8119  1.1552 -1.1164
 9862TIP3    H251078   5.009   1.981  14.309  0.8030 -0.0263 -0.6054
 9863TIP3   OH251079   3.960   4.346   0.264  0.1590 -0.0875  0.2575
 9863TIP3    H151080   3.949   4.251   0.259  0.8579 -0.1369 -0.9966
 9863TIP3    H251081   4.051   4.358   0.292  1.7486  0.0556 -4.0668
 9864TIP3   OH251082   2.986   4.473  15.672 -0.0779 -0.0193 -0.1247
 9864TIP3    H151083   2.927   4.458  15.599 -0.2958  1.7822 -0.3654
 9864TIP3    H251084   2.990   4.389  15.718  1.0021 -1.5801 -2.8495
 9865TIP3   OH251085   2.415   6.565   5.249  0.3335 -0.0349 -0.0720
 9865TIP3    H151086   2.364   6.514   5.186 -0.5613  0.0253  0.5920
 9865TIP3    H251087   2.352   6.625   5.288  0.8670 -0.0924  0.9133
 9866TIP3   OH251088   2.290   5.424  13.858  0.1570 -0.7646 -0.1691
 9866TIP3    H151089   2.358   5.380  13.909  1.7771  0.1960 -1.4220
 9866TIP3    H251090   2.300   5.390  13.769  0.1137  0.6050 -0.7247
 9867TIP3   OH251091   0.210   6.334  13.347  0.4197 -0.2597  0.1742
 9867TIP3    H151092   0.229   6.316  13.255  1.7492  1.1329  0.1273
 9867TIP3    H251093   0.230   6.252  13.392  1.3135 -0.4936 -0.6043
 9868TIP3   OH251094   2.364   3.757   1.990 -0.1766  0.9110 -0.8126
 9868TIP3    H151095   2.397   3.771   2.079  0.0469 -0.1741 -0.7114
 9868TIP3    H251096   2.335   3.666   1.989 -1.0540  1.1888 -1.5855
 9869TIP3   OH251097   3.137   0.799  15.470  0.3436  0.4350 -0.4541
 9869TIP3    H151098   3.108   0.862  15.536  1.0618  0.4091 -0.1050
 9869TIP3    H251099   3.111   0.838  15.387 -1.2218  0.1223 -0.1289
 9870TIP3   OH251100   6.458   1.056  14.783  0.0531  0.4925 -0.0500
 9870TIP3    H151101   6.505   1.081  14.703  0.8724 -1.5646 -0.2593
 9870TIP3    H251102   6.528   1.043  14.848 -0.5624  1.4845  0.8489
 9871TIP3   OH251103   1.832   4.680  12.091 -0.1776  0.0684  0.0477
 9871TIP3    H151104   1.765   4.721  12.036 -0.9221 -1.2167 -0.0414
 9871TIP3    H251105   1.809   4.705  12.180 -0.8801 -0.4861  0.0295
 9872TIP3   OH251106   3.475   1.591  13.345 -0.1090  0.3856 -0.2326
 9872TIP3    H151107   3.481   1.519  13.407 -0.4380 -0.9046 -1.6278
 9872TIP3    H251108   3.487   1.550  13.259 -1.4416  1.8063 -1.1658
 9873TIP3   OH251109   5.633   0.717   3.397  0.2566  0.1326 -0.6031
 9873TIP3    H151110   5.607   0.798   3.440  0.3327 -0.0467 -0.2221
 9873TIP3    H251111   5.729   0.715   3.404  0.1856 -0.4575  0.2235
 9874TIP3   OH251112   6.622   1.133   5.905  0.6711 -0.2846  0.0542
 9874TIP3    H151113   6.592   1.045   5.926  2.0219 -0.1945  2.8424
 9874TIP3    H251114   6.717   1.129   5.912  1.1289  0.5532 -3.7176
 9875TIP3   OH251115   4.116   2.036   0.137 -0.4219 -0.0011  0.4290
 9875TIP3    H151116   4.036   2.020   0.188 -0.3153  0.0837  0.6267
 9875TIP3    H251117   4.087   2.090   0.064 -0.8754 -1.4669 -0.5219
 9876TIP3   OH251118   1.385   0.402  11.698 -0.1548  0.0778 -0.1595
 9876TIP3    H151119   1.374   0.308  11.716  1.1684  0.2247  1.6499
 9876TIP3    H251120   1.403   0.406  11.604  1.5897 -1.6985  0.0266
 9877TIP3   OH251121   0.781   3.371  16.061  0.3772  0.3385 -0.3800
 9877TIP3    H151122   0.721   3.365  16.135  0.1169  0.4779 -0.5758
 9877TIP3    H251123   0.748   3.307  15.998  1.9937 -1.5346  0.5861
 9878TIP3   OH251124   1.564   6.137  12.006  0.0598  0.0660 -0.3612
 9878TIP3    H151125   1.501   6.174  12.068  0.1728 -1.1102  0.4945
 9878TIP3    H251126   1.634   6.102  12.061 -1.1246 -3.4750 -0.8452
 9879TIP3   OH251127   6.871   4.620   0.105  0.6273 -0.4097 -0.0970
 9879TIP3    H151128   6.911   4.545   0.060 -1.0360 -1.6940  0.4895
 9879TIP3    H251129   6.778   4.598   0.112 -0.0851  2.0858 -0.6359
 9880TIP3   OH251130   5.384   2.060   1.983  0.1517  0.6272  0.2183
 9880TIP3    H151131   5.312   2.101   1.935 -0.1729 -0.2742 -0.1028
 9880TIP3    H251132   5.352   2.055   2.073  0.0176  0.6936  0.1746
 9881TIP3   OH251133   2.924   0.867   4.865  0.1385  0.1311 -0.4845
 9881TIP3    H151134   2.975   0.859   4.784  0.6339 -0.7391 -0.0975
 9881TIP3    H251135   2.841   0.904   4.837  0.7580  1.0285 -1.2162
 9882TIP3   OH251136   3.458   6.132   3.393 -0.2735 -0.6411 -0.4573
 9882TIP3    H151137   3.398   6.068   3.431  0.6244 -1.3761 -0.2491
 9882TIP3    H251138   3.540   6.085   3.383  0.2217  0.2952 -0.9216
 9883TIP3   OH251139   2.887   3.457  14.888  0.4211 -0.0911  0.4832
 9883TIP3    H151140   2.811   3.489  14.937  2.0125  1.8626  1.8295
 9883TIP3    H251141   2.913   3.377  14.934  0.1066  0.0966  0.9933
 9884TIP3   OH251142   2.931   4.504   0.183 -1.0483  0.1915 -0.0176
 9884TIP3    H151143   2.899   4.502   0.274 -3.0271 -1.3008 -0.6769
 9884TIP3    H251144   3.002   4.440   0.182  0.9913  2.2683  1.0557
 9885TIP3   OH251145   2.862   4.153  13.444 -0.2345  0.5267 -0.5614
 9885TIP3    H151146   2.870   4.082  13.507  1.2855 -0.5878 -1.9286
 9885TIP3    H251147   2.807   4.218  13.488  2.7247  0.9949  2.9610
 9886TIP3   OH251148   4.346   4.855   1.738 -0.2236 -0.3827 -0.0111
 9886TIP3    H151149   4.401   4.819   1.807 -0.7302 -0.0350  0.5848
 9886TIP3    H251150   4.372   4.808   1.659  0.5181 -0.6276  0.3730
 9887TIP3   OH251151   2.643   4.896  16.706  0.0270 -0.0747  0.0704
 9887TIP3    H151152   2.687   4.959  16.650 -0.8408 -1.3059 -2.1040
 9887TIP3    H251153   2.700   4.819  16.706  1.1852  0.6278  2.8743
 9888TIP3   OH251154   0.240   6.596  16.875  0.2333 -0.3575  0.4423
 9888TIP3    H151155   0.329   6.580  16.907  0.3177  1.1145  1.0372
 9888TIP3    H251156   0.235   6.551  16.791  1.2756 -1.1199  0.7803
 9889TIP3   OH251157   2.710   6.301  11.935  0.9831 -0.3617 -0.2955
 9889TIP3    H151158   2.665   6.384  11.919  3.6803  0.8435 -2.5563
 9889TIP3    H251159   2.641   6.240  11.959 -1.5284  1.8373 -1.4424
 9890TIP3   OH251160   1.680   6.867  11.704  0.2052 -0.4136 -0.8585
 9890TIP3    H151161   1.742   6.794  11.713 -0.6702 -0.9569  1.1694
 9890TIP3    H251162   1.733   6.945  11.722  0.2786 -0.9025  1.2839
 9891TIP3   OH251163   0.890   2.664   3.852 -0.1152 -0.4523 -0.7317
 9891TIP3    H151164   0.860   2.747   3.890 -0.6099 -0.6561 -0.6652
 9891TIP3    H251165   0.815   2.605   3.862  0.5475 -1.1856  0.0867
 9892TIP3   OH251166   2.194   3.857  11.048  0.4892 -0.2085  0.4514
 9892TIP3    H151167   2.149   3.877  10.966  0.1153 -0.6794  0.5317
 9892TIP3    H251168   2.282   3.891  11.036  0.1115  0.7613  0.3008
 9893TIP3   OH251169   1.817   2.445   0.522 -0.6505 -0.1703 -0.4049
 9893TIP3    H151170   1.869   2.517   0.558  0.7607 -2.3075  2.2691
 9893TIP3    H251171   1.775   2.482   0.444  1.3718  2.9688 -0.2010
 9894TIP3   OH251172   3.069   1.388   5.618  0.1166 -0.1110  0.0365
 9894TIP3    H151173   3.033   1.427   5.539  0.6730 -0.9636 -0.6580
 9894TIP3    H251174   3.013   1.420   5.689  0.1200  1.3421 -0.5865
 9895TIP3   OH251175   0.247   5.465   4.679  0.2331 -0.2511 -0.3468
 9895TIP3    H151176   0.207   5.390   4.634 -0.2105 -0.8405  0.9862
 9895TIP3    H251177   0.174   5.522   4.700  0.6093  0.7899 -1.6955
 9896TIP3   OH251178   5.644   0.199  12.976 -0.0393 -0.0690  0.1133
 9896TIP3    H151179   5.580   0.234  12.914  1.5728  0.9492 -1.0603
 9896TIP3    H251180   5.651   0.266  13.044  1.8116  1.2175 -1.2571
 9897TIP3   OH251181   1.915   1.949   5.775 -0.4376  0.0462 -0.0385
 9897TIP3    H151182   1.915   1.910   5.863 -2.7924  0.8651  0.4028
 9897TIP3    H251183   1.992   2.007   5.775 -0.3306 -0.0557  1.4582
 9898TIP3   OH251184   2.115   4.874   1.299  0.3559 -0.3801  0.2307
 9898TIP3    H151185   2.169   4.863   1.377  0.8584  0.6624  0.0454
 9898TIP3    H251186   2.145   4.806   1.239  0.0288 -1.1287  0.8956
 9899TIP3   OH251187   5.516   1.342   0.980 -0.8030  0.3140 -0.0309
 9899TIP3    H151188   5.449   1.397   1.021 -0.5834 -0.6862  1.7494
 9899TIP3    H251189   5.470   1.262   0.956 -0.5620  0.2075 -0.1371
 9900TIP3   OH251190   2.773   6.557   0.257  0.6355  0.1990 -0.7312
 9900TIP3    H151191   2.678   6.558   0.245  0.4557  0.4858  0.5313
 9900TIP3    H251192   2.791   6.635   0.310  1.6987  0.6428 -1.7144
 9901TIP3   OH251193   3.541   2.379  13.840 -0.2646 -0.2401 -0.2639
 9901TIP3    H151194   3.619   2.410  13.884  0.5378 -0.4671 -1.4780
 9901TIP3    H251195   3.471   2.438  13.869  0.2814 -0.2328  1.0739
 9902TIP3   OH251196   2.485   5.265  14.366 -0.3530  0.1042 -0.1804
 9902TIP3    H151197   2.393   5.287  14.386 -0.2749  0.8619 -0.6208
 9902TIP3    H251198   2.524   5.248  14.452 -0.4450  1.6753  0.2134
 9903TIP3   OH251199   2.141   4.992   6.121 -0.3270  0.2574  0.2350
 9903TIP3    H151200   2.146   4.982   6.216  0.6824  2.2686  0.4569
 9903TIP3    H251201   2.048   5.007   6.103 -0.5040 -0.0050  0.9109
 9904TIP3   OH251202   2.650   1.079  16.056 -0.0061 -1.0658 -0.0903
 9904TIP3    H151203   2.715   1.104  16.121 -0.4171  0.1489 -0.1324
 9904TIP3    H251204   2.663   1.140  15.984 -0.9262 -1.0616 -0.2700
 9905TIP3   OH251205   4.696   1.178  14.838 -0.0218  0.2441 -0.4971
 9905TIP3    H151206   4.610   1.199  14.875  0.9412  1.3400  1.2914
 9905TIP3    H251207   4.750   1.254  14.859  1.4352 -0.5032 -1.4097
 9906TIP3   OH251208   5.384   4.279   1.436  0.2972 -0.7353  0.0769
 9906TIP3    H151209   5.345   4.260   1.521 -0.6798 -1.8898 -0.6016
 9906TIP3    H251210   5.451   4.211   1.425  1.9344  0.6814  0.8258
 9907TIP3   OH251211   5.668   0.861   1.732  0.0435 -0.3543  0.0373
 9907TIP3    H151212   5.646   0.939   1.681 -1.2033 -0.5726  0.2068
 9907TIP3    H251213   5.595   0.801   1.717  0.4630 -1.0682  0.7642
 9908TIP3   OH251214   1.765   3.642  13.279  0.1321 -0.8499  0.2728
 9908TIP3    H151215   1.785   3.549  13.292 -2.1842 -1.4535 -0.0048
 9908TIP3    H251216   1.692   3.642  13.217  0.9188  1.2478 -0.7651
 9909TIP3   OH251217   5.523   4.226   1.082 -0.5870  0.1549  0.2514
 9909TIP3    H151218   5.537   4.276   1.002 -1.8320  1.2381  0.6625
 9909TIP3    H251219   5.488   4.290   1.144 -0.1442 -0.7746  1.4956
 9910TIP3   OH251220   5.983   3.556   1.542 -0.3103 -0.5388  0.0785
 9910TIP3    H151221   5.952   3.468   1.521  1.3488 -1.0172 -0.6003
 9910TIP3    H251222   5.939   3.613   1.479 -0.1619 -1.1282 -0.5738
 9911TIP3   OH251223   2.677   1.675   1.640 -0.2411  0.3784 -0.1124
 9911TIP3    H151224   2.645   1.678   1.730 -0.0040  0.1866 -0.0204
 9911TIP3    H251225   2.598   1.680   1.586 -0.4955 -0.8133  0.1218
 9912TIP3   OH251226   2.539   0.226  10.052 -0.6335  0.3818  0.6294
 9912TIP3    H151227   2.475   0.214  10.122  0.1720 -2.1611  1.0401
 9912TIP3    H251228   2.579   0.139  10.041  2.7781  1.8202  0.4553
 9913TIP3   OH251229   4.111   2.770  12.256 -0.2799  0.4297 -0.1141
 9913TIP3    H151230   4.078   2.835  12.193  1.8446  0.0408 -1.7372
 9913TIP3    H251231   4.149   2.701  12.202 -0.3577 -1.0292  1.6083
 9914TIP3   OH251232   5.921   4.927  13.653  0.4879  0.8765 -0.1970
 9914TIP3    H151233   5.996   4.923  13.593  1.6260 -0.6088  1.2443
 9914TIP3    H251234   5.954   4.891  13.735 -2.2578 -1.4929  0.0167
 9915TIP3   OH251235   1.233   1.884   4.593 -0.3034  0.7134  0.0114
 9915TIP3    H151236   1.262   1.813   4.652 -2.4418  0.1469  0.4892
 9915TIP3    H251237   1.224   1.842   4.508 -3.2516 -0.1957  0.6275
 9916TIP3   OH251238   3.716   5.153  16.649  0.4069  0.2600  0.3435
 9916TIP3    H151239   3.705   5.068  16.606  2.6457  1.5051 -3.1179
 9916TIP3    H251240   3.626   5.185  16.662 -0.4891 -0.6690 -2.6993
 9917TIP3   OH251241   4.126   2.631  16.443 -0.0797 -0.0595  0.1188
 9917TIP3    H151242   4.043   2.623  16.489 -0.0608  1.7524  0.5462
 9917TIP3    H251243   4.135   2.725  16.426  2.4959 -0.0117  1.2849
 9918TIP3   OH251244   0.365   3.549   0.495  0.1047  0.5024 -0.2070
 9918TIP3    H151245   0.439   3.528   0.552 -0.0112  0.7653  0.0415
 9918TIP3    H251246   0.308   3.604   0.549 -0.0207  0.7262 -0.5649
 9919TIP3   OH251247   0.256   5.815  16.272 -0.1307  0.0918  0.1232
 9919TIP3    H151248   0.271   5.810  16.366 -0.0614 -0.5930  0.0825
 9919TIP3    H251249   0.162   5.832  16.263 -0.5470 -1.8484  0.3112
 9920TIP3   OH251250   6.516   1.236   4.692  0.5764 -0.1796  0.0598
 9920TIP3    H151251   6.452   1.249   4.761 -1.7181  0.2435 -1.9949
 9920TIP3    H251252   6.476   1.171   4.634  1.6473  0.6424 -1.7041
 9921TIP3   OH251253   4.349   2.692  12.756  0.1676  0.1413 -0.1119
 9921TIP3    H151254   4.384   2.778  12.733 -0.0838  0.6081  1.2083
 9921TIP3    H251255   4.426   2.642  12.785 -0.0722  0.8697  1.8963
 9922TIP3   OH251256   0.195   6.653  13.689  0.2180  0.2851  0.1682
 9922TIP3    H151257   0.141   6.698  13.754  0.6927  2.5457 -0.8899
 9922TIP3    H251258   0.133   6.612  13.630 -0.2346 -0.5891  1.2262
 9923TIP3   OH251259   3.492   2.812  10.992  0.0414 -0.0876  0.4666
 9923TIP3    H151260   3.430   2.805  10.919  0.5293 -0.9366  0.1192
 9923TIP3    H251261   3.563   2.867  10.958 -0.7263  1.3092  1.0313
 9924TIP3   OH251262   2.114   6.632   2.917 -0.2145  0.2235 -0.0357
 9924TIP3    H151263   2.071   6.562   2.967 -0.5971  0.8217  0.5014
 9924TIP3    H251264   2.184   6.589   2.869  0.8641 -0.2443  1.8473
 9925TIP3   OH251265   0.091   0.956   3.959  0.5325 -0.4324 -0.2127
 9925TIP3    H151266   0.049   1.040   3.940  1.0986 -0.1886 -0.3954
 9925TIP3    H251267   0.176   0.979   3.996  0.6291 -0.9224 -0.1238
 9926TIP3   OH251268   0.758   6.461  13.296 -0.5432  0.5479 -0.4930
 9926TIP3    H151269   0.820   6.512  13.245  1.4507 -1.7222 -0.5230
 9926TIP3    H251270   0.794   6.372  13.297 -1.5926 -0.0221  3.0102
 9927TIP3   OH251271   4.907   1.450   2.222  0.1291 -0.2685  0.3159
 9927TIP3    H151272   4.833   1.508   2.236 -0.0009 -0.4582  0.4204
 9927TIP3    H251273   4.924   1.454   2.128 -0.4509 -0.7555  0.1863
 9928TIP3   OH251274   5.565   0.964  16.175 -0.5252 -0.3010 -0.1300
 9928TIP3    H151275   5.545   0.879  16.134 -0.6299  0.3071 -1.4063
 9928TIP3    H251276   5.488   0.983  16.228  0.1233 -1.6825  1.4250
 9929TIP3   OH251277   3.365   3.336   5.591 -0.1465 -0.9240  0.1451
 9929TIP3    H151278   3.380   3.337   5.497  1.0414  1.0303  0.3094
 9929TIP3    H251279   3.310   3.259   5.605  0.5898 -1.9336 -1.9792
 9930TIP3   OH251280   3.348   5.858   2.325 -0.3850  0.2433  0.2256
 9930TIP3    H151281   3.387   5.778   2.360 -1.1086 -0.2409 -0.0502
 9930TIP3    H251282   3.275   5.877   2.383 -0.7477  0.2128 -0.2116
 9931TIP3   OH251283   3.291   3.946  11.470 -0.2836 -0.5091 -0.3093
 9931TIP3    H151284   3.217   4.005  11.460 -0.6663 -0.8350  0.4542
 9931TIP3    H251285   3.253   3.858  11.462  0.1115 -0.6699 -0.4676
 9932TIP3   OH251286   2.732   3.154   2.298  0.4936 -0.6875 -0.4925
 9932TIP3    H151287   2.789   3.124   2.227  0.2832  1.9623 -1.8955
 9932TIP3    H251288   2.733   3.249   2.291 -2.3703 -0.4644  0.8164
 9933TIP3   OH251289   3.309   2.029  14.546 -0.3143  0.1328  0.4719
 9933TIP3    H151290   3.379   2.048  14.483 -0.4554  1.1533  0.6158
 9933TIP3    H251291   3.282   2.114  14.579  1.1582 -0.4355  3.4828
 9934TIP3   OH251292   5.271   2.083   1.441  0.1859  0.3844  0.0919
 9934TIP3    H151293   5.305   2.040   1.362 -1.2008  0.3112 -0.4851
 9934TIP3    H251294   5.254   2.173   1.414 -0.6470  0.2633  0.1797
 9935TIP3   OH251295   4.933   5.628  11.571  0.0746  0.3265  0.2443
 9935TIP3    H151296   4.865   5.660  11.631  0.2591  1.2207 -0.0103
 9935TIP3    H251297   4.980   5.561  11.622 -0.4624  0.2961  0.7124
 9936TIP3   OH251298   4.228   3.150   4.216  0.1761  0.1700 -0.3381
 9936TIP3    H151299   4.213   3.243   4.238 -0.4838 -0.0332  0.1055
 9936TIP3    H251300   4.195   3.141   4.126 -2.3585 -0.2169  0.5312
 9937TIP3   OH251301   5.204   0.566  14.111 -0.2595  0.4014 -0.1281
 9937TIP3    H151302   5.238   0.605  14.031  1.4138  2.3422  1.4135
 9937TIP3    H251303   5.255   0.486  14.122  0.1301  0.5865 -0.5653
 9938TIP3   OH251304   1.436   3.993   4.132  0.1382 -0.7067 -0.2293
 9938TIP3    H151305   1.525   4.009   4.099 -0.1123  1.5945  0.0480
 9938TIP3    H251306   1.393   3.945   4.062  0.4696  1.6197 -2.1529
 9939TIP3   OH251307   6.154   2.843  11.399  0.1550  0.3953 -0.2950
 9939TIP3    H151308   6.221   2.911  11.390  1.4666 -0.7324  0.5438
 9939TIP3    H251309   6.148   2.803  11.312  1.3612 -0.1728 -0.1379
 9940TIP3   OH251310   2.895   1.673   4.529  0.0439  0.6575  0.2289
 9940TIP3    H151311   2.870   1.595   4.578 -1.0109 -0.7286 -2.3081
 9940TIP3    H251312   2.946   1.640   4.455  0.5102  2.4895 -0.3294
 9941TIP3   OH251313   3.373   1.413  14.219 -0.3430 -0.3803  0.3245
 9941TIP3    H151314   3.447   1.393  14.161 -1.0983  1.3250 -1.3039
 9941TIP3    H251315   3.407   1.394  14.307  1.8074 -0.2974 -0.4159
 9942TIP3   OH251316   3.407   1.146  11.789  0.1559  0.5883  0.1623
 9942TIP3    H151317   3.492   1.162  11.829  1.0591 -1.4020 -0.8210
 9942TIP3    H251318   3.374   1.068  11.835  0.1325 -0.2904 -1.2954
 9943TIP3   OH251319   4.731   4.985   3.806  0.5344  0.4583 -0.2426
 9943TIP3    H151320   4.808   4.969   3.862  0.2777  0.0350 -0.0022
 9943TIP3    H251321   4.756   4.948   3.721 -0.0671 -1.3253  0.3235
 9944TIP3   OH251322   4.973   0.080  11.272  0.4144 -0.2380 -0.2810
 9944TIP3    H151323   4.925   0.135  11.334  0.6778  0.2402 -0.4945
 9944TIP3    H251324   4.944  -0.009  11.291 -0.7561  0.0675 -0.5974
 9945TIP3   OH251325   4.684   1.335  13.771 -0.1798 -0.3254 -0.3473
 9945TIP3    H151326   4.648   1.255  13.731 -0.8477  0.9822 -2.4825
 9945TIP3    H251327   4.696   1.311  13.863 -0.7332 -2.7588 -0.8227
 9946TIP3   OH251328   1.582   1.484   5.122  0.2962 -0.3827  0.1871
 9946TIP3    H151329   1.665   1.457   5.081  0.7630  1.5662 -0.2215
 9946TIP3    H251330   1.515   1.437   5.072  1.0459 -0.5996 -0.6410
 9947TIP3   OH251331   3.364   3.398   5.020 -0.4304 -0.3911 -0.2358
 9947TIP3    H151332   3.435   3.342   5.052 -1.1634 -0.5771  1.1281
 9947TIP3    H251333   3.401   3.487   5.023 -0.3454 -0.4445  0.8222
 9948TIP3   OH251334   4.627   5.845   2.195 -0.9152 -0.3317 -0.0222
 9948TIP3    H151335   4.716   5.853   2.230 -0.8815  1.0767 -0.3744
 9948TIP3    H251336   4.574   5.902   2.250 -1.0035  1.3096 -1.7051
 9949TIP3   OH251337   3.025   2.539  13.921 -0.2410  0.7104 -0.5914
 9949TIP3    H151338   3.054   2.611  13.865 -1.7860  1.6702 -0.2209
 9949TIP3    H251339   2.957   2.496  13.870  0.1184  0.0048 -0.4758
 9950TIP3   OH251340   6.880   1.695  16.512  0.1502  0.0773  0.0360
 9950TIP3    H151341   6.854   1.729  16.597 -0.2581 -1.5103  0.5778
 9950TIP3    H251342   6.798   1.679  16.465  0.3751  1.1603 -0.7723
 9951TIP3   OH251343   6.536   3.484   2.244  0.4823  0.6032  0.0646
 9951TIP3    H151344   6.482   3.541   2.298 -1.5590 -1.4561  0.3470
 9951TIP3    H251345   6.497   3.397   2.254  4.6344 -1.4084  1.3765
 9952TIP3   OH251346   6.814   6.110   0.480  0.1288  0.3276  0.2472
 9952TIP3    H151347   6.876   6.169   0.524  0.1428  0.4505  0.0636
 9952TIP3    H251348   6.740   6.166   0.457  0.4039  0.4071 -0.4697
 9953TIP3   OH251349   2.550   1.888  13.568 -0.3277 -0.4012  0.6110
 9953TIP3    H151350   2.497   1.844  13.501 -1.0596  0.3669  0.6702
 9953TIP3    H251351   2.578   1.970  13.527  0.3520 -0.5440  0.7797
 9954TIP3   OH251352   5.738   4.192  11.575  0.2746  0.0667  0.3405
 9954TIP3    H151353   5.804   4.137  11.618  1.7287  1.1114 -0.4609
 9954TIP3    H251354   5.731   4.157  11.486  0.1658  0.3021  0.2551
 9955TIP3   OH251355   5.430   1.630   6.112 -0.3844 -0.2568 -0.2054
 9955TIP3    H151356   5.380   1.643   6.192 -1.7169 -1.1608 -0.8390
 9955TIP3    H251357   5.400   1.700   6.054  1.6497  1.3038  0.5157
 9956TIP3   OH251358   3.097   1.175  10.755 -0.3266  0.1627  0.0864
 9956TIP3    H151359   3.162   1.245  10.746 -0.1801  0.0381  0.1717
 9956TIP3    H251360   3.149   1.095  10.769 -0.4123 -0.2191 -1.5429
 9957TIP3   OH251361   6.343   1.180   4.894  0.2301 -0.3564  0.4382
 9957TIP3    H151362   6.288   1.243   4.941  3.1861  1.6320  1.5140
 9957TIP3    H251363   6.416   1.163   4.954  2.2397 -0.6569 -1.9646
 9958TIP3   OH251364   0.466   6.213  14.788 -0.1682 -0.4384  0.5222
 9958TIP3    H151365   0.493   6.296  14.827 -0.4821 -0.1291  0.0842
 9958TIP3    H251366   0.505   6.147  14.845  1.2936 -0.0062  0.0657
 9959TIP3   OH251367   4.417   0.058   1.004 -0.7177  0.0499 -0.2297
 9959TIP3    H151368   4.472   0.101   0.939 -0.9236 -0.1031 -0.5073
 9959TIP3    H251369   4.398   0.127   1.068  0.0818  0.0105  0.0561
 9960TIP3   OH251370   4.356   1.264   1.393 -0.5565 -0.3281  0.0877
 9960TIP3    H151371   4.363   1.351   1.433 -0.7153  0.3769 -1.3645
 9960TIP3    H251372   4.433   1.217   1.424 -0.3108  0.4233  0.6489
 9961TIP3   OH251373   4.479   0.240   4.403  0.4233 -0.4094  0.4641
 9961TIP3    H151374   4.495   0.203   4.490 -1.1521  0.6626  1.2706
 9961TIP3    H251375   4.541   0.313   4.397 -0.8672  0.8463  1.6279
 9962TIP3   OH251376   2.951   4.905   0.445  0.1945  0.1218  0.4607
 9962TIP3    H151377   2.958   4.988   0.398  0.0286 -0.3403 -0.3866
 9962TIP3    H251378   2.863   4.873   0.424 -1.0188  1.2212  3.2957
 9963TIP3   OH251379   6.821   2.687   1.102  0.5323  0.1208  0.0879
 9963TIP3    H151380   6.829   2.700   1.008 -0.6514 -1.8303 -0.3330
 9963TIP3    H251381   6.829   2.593   1.115 -3.4704 -0.2609  1.3537
 9964TIP3   OH251382   5.076   0.387   1.661  0.4370 -0.3597  0.3640
 9964TIP3    H151383   4.989   0.421   1.639  1.1183  1.2480  0.0377
 9964TIP3    H251384   5.060   0.324   1.731 -0.7930  1.4957  1.8407
 9965TIP3   OH251385   3.748   1.060   6.100  0.4275 -0.6786  0.6319
 9965TIP3    H151386   3.659   1.027   6.111  0.0161 -0.6688 -2.0433
 9965TIP3    H251387   3.757   1.128   6.168 -1.3257 -1.1717  1.4075
 9966TIP3   OH251388   4.471   4.290  11.896  0.6734  0.3177 -0.5738
 9966TIP3    H151389   4.410   4.264  11.965  0.6379  0.3383 -0.5973
 9966TIP3    H251390   4.437   4.374  11.865  0.4800  0.1336 -0.8664
 9967TIP3   OH251391   5.867   4.613   3.391  0.3688  0.2081  0.3639
 9967TIP3    H151392   5.828   4.555   3.457 -0.1928 -0.1527 -0.2744
 9967TIP3    H251393   5.961   4.595   3.397  0.2846 -0.1280  0.7773
 9968TIP3   OH251394   5.881   4.428   4.066  0.7101 -0.0330 -0.1401
 9968TIP3    H151395   5.946   4.367   4.101  0.6130  0.2900  0.6392
 9968TIP3    H251396   5.797   4.393   4.095  0.7011  0.8883  1.0409
 9969TIP3   OH251397   4.667   5.621  10.355  0.3387  0.5733 -0.4086
 9969TIP3    H151398   4.572   5.620  10.353  0.3315  1.1769 -1.6414
 9969TIP3    H251399   4.691   5.545  10.408 -0.8240  0.6855  0.3016
 9970TIP3   OH251400   3.543   0.295  12.069  0.0004 -0.0205 -0.1868
 9970TIP3    H151401   3.516   0.221  12.123  3.1755 -0.0571  1.6229
 9970TIP3    H251402   3.525   0.267  11.980 -1.8467 -1.6115  0.6191
 9971TIP3   OH251403   3.551   5.920  14.797  0.6363 -0.1740 -0.1531
 9971TIP3    H151404   3.551   5.964  14.713 -0.9346  1.0121  0.4154
 9971TIP3    H251405   3.631   5.949  14.840  0.4063  0.8756 -0.4220
 9972TIP3   OH251406   3.651   2.160   2.782  0.2759 -0.0415  0.0927
 9972TIP3    H151407   3.697   2.150   2.699 -0.2493 -1.6147 -0.0404
 9972TIP3    H251408   3.567   2.117   2.768  0.8948 -2.0907  1.9962
 9973TIP3   OH251409   6.870   4.186  12.372 -0.3740 -0.1800  0.4146
 9973TIP3    H151410   6.822   4.104  12.387 -1.9682  0.2968 -1.5718
 9973TIP3    H251411   6.910   4.174  12.285 -1.4473  1.4733 -0.3529
 9974TIP3   OH251412   6.147   0.404  16.624  0.5331  0.3894 -0.6786
 9974TIP3    H151413   6.211   0.387  16.555 -0.3082 -0.4981 -1.2738
 9974TIP3    H251414   6.063   0.410  16.578  0.1261  1.1587  0.1269
 9975TIP3   OH251415   4.235   5.970   0.680 -0.2910 -0.4612 -0.0330
 9975TIP3    H151416   4.203   5.988   0.769 -0.1328 -0.2580 -0.0181
 9975TIP3    H251417   4.322   6.010   0.677 -1.1691  1.5226 -0.9950
 9976TIP3   OH251418   5.322   2.943   6.810 -0.1157 -0.4435  0.5500
 9976TIP3    H151419   5.382   2.914   6.741 -1.7905 -0.9260 -0.7909
 9976TIP3    H251420   5.374   3.002   6.865  1.1381  0.4436 -1.4766
 9977TIP3   OH251421   5.963   6.807   4.703 -0.4835  0.7760 -0.2177
 9977TIP3    H151422   5.944   6.889   4.658 -0.6203  1.9031  1.7339
 9977TIP3    H251423   5.888   6.751   4.685 -0.2127  0.9175 -1.8835
 9978TIP3   OH251424   2.939   4.207  15.294 -0.4812  0.4633 -0.1341
 9978TIP3    H151425   2.953   4.203  15.200  0.0885  0.7703 -0.0690
 9978TIP3    H251426   2.845   4.190  15.306 -0.2581 -1.2894 -0.6224
 9979TIP3   OH251427   0.377   2.206   1.541  0.8393  0.0463  0.3160
 9979TIP3    H151428   0.379   2.162   1.456  0.0235  3.0331 -1.4121
 9979TIP3    H251429   0.298   2.172   1.584  1.6025 -1.9644  0.2116
 9980TIP3   OH251430   0.236   5.229  12.762 -0.2827 -0.2913  0.2400
 9980TIP3    H151431   0.171   5.290  12.726 -0.8111 -0.7627  0.3755
 9980TIP3    H251432   0.314   5.243  12.709 -1.4934 -2.0876 -2.2213
 9981TIP3   OH251433   1.843   5.663  12.278  0.0942 -0.0722 -0.1227
 9981TIP3    H151434   1.815   5.621  12.197  1.7709 -0.5159 -0.5156
 9981TIP3    H251435   1.934   5.687  12.261  0.3745  0.1053  1.5328
 9982TIP3   OH251436   0.554   1.933   0.944  0.3235  0.3133 -0.2524
 9982TIP3    H151437   0.540   1.914   0.851  0.7664  1.9514 -0.6857
 9982TIP3    H251438   0.607   2.012   0.944 -1.8913  1.9168  1.4019
 9983TIP3   OH251439   2.017   0.123  10.617 -0.1820 -0.2019 -0.5798
 9983TIP3    H151440   2.002   0.204  10.568  0.3864 -0.5572 -1.3618
 9983TIP3    H251441   2.065   0.067  10.557 -0.2757 -1.0033  0.0715
 9984TIP3   OH251442   1.881   3.407  13.280 -0.1743  0.2365  0.0766
 9984TIP3    H151443   1.896   3.427  13.187 -0.6298  1.7230  0.3030
 9984TIP3    H251444   1.967   3.381  13.313  0.2495  0.8989 -0.4779
 9985TIP3   OH251445   4.596   0.747   1.039 -0.2327  0.5968  0.3807
 9985TIP3    H151446   4.610   0.751   0.944 -3.4089 -2.5737 -0.4650
 9985TIP3    H251447   4.654   0.677   1.069 -3.0237 -2.3171 -0.4452
 9986TIP3   OH251448   2.689   4.987  14.767  0.2457 -0.4517 -0.2961
 9986TIP3    H151449   2.779   4.989  14.735  0.1185 -0.7220 -0.6904
 9986TIP3    H251450   2.660   4.898  14.750  0.2123 -0.6372  0.7235
 9987TIP3   OH251451   5.403   5.019  14.116 -0.3598 -0.1108  0.5143
 9987TIP3    H151452   5.350   4.964  14.059 -0.7865 -1.8885  2.4987
 9987TIP3    H251453   5.494   4.999  14.091 -0.5133 -1.5451  0.9853
 9988TIP3   OH251454   2.431   0.310   1.184 -0.1361  0.2304 -0.6059
 9988TIP3    H151455   2.496   0.241   1.170 -0.9124 -0.3281 -1.5472
 9988TIP3    H251456   2.459   0.352   1.266 -0.1548 -1.7741  0.4982
 9989TIP3   OH251457   6.281   4.503   5.472  0.2112 -0.0623 -0.6119
 9989TIP3    H151458   6.283   4.515   5.567  1.7816  0.0201 -0.6172
 9989TIP3    H251459   6.373   4.488   5.448 -0.1355  0.0388 -2.1320
 9990TIP3   OH251460   6.105   4.339   5.249 -0.2715  0.0437 -0.0497
 9990TIP3    H151461   6.152   4.314   5.169 -2.5422 -1.6669 -0.9811
 9990TIP3    H251462   6.127   4.271   5.312 -1.8108 -1.0706 -0.6612
 9991TIP3   OH251463   5.304   4.306  16.154  0.0498 -0.1197 -0.5902
 9991TIP3    H151464   5.295   4.241  16.085  1.2737  0.9997 -1.8768
 9991TIP3    H251465   5.223   4.357  16.150 -0.5405 -0.9926 -0.1426
 9992TIP3   OH251466   6.247   6.017  14.908  0.1101  0.2367  0.3353
 9992TIP3    H151467   6.255   6.078  14.981  0.3724 -0.5964  1.0261
 9992TIP3    H251468   6.335   5.980  14.898  0.4237  1.3379 -1.3169
 9993TIP3   OH251469   0.443   2.706   6.472  0.3525 -0.4040  0.2106
 9993TIP3    H151470   0.448   2.801   6.463  0.8891 -0.2707  1.5412
 9993TIP3    H251471   0.376   2.679   6.410  1.2929  0.6557 -1.3259
 9994TIP3   OH251472   0.446   1.199   6.002 -0.4060  0.2967 -0.0709
 9994TIP3    H151473   0.373   1.230   6.055  1.0833  1.2256  1.5492
 9994TIP3    H251474   0.503   1.276   5.994  0.3412 -0.3696 -1.3944
 9995TIP3   OH251475   1.651   5.464  15.406 -0.5678  0.1779  0.4909
 9995TIP3    H151476   1.579   5.501  15.456 -0.0127  2.0732 -0.0079
 9995TIP3    H251477   1.725   5.463  15.467 -0.8788 -1.3865  0.8836
 9996TIP3   OH251478   6.356   4.236   3.817 -0.0833  0.3966 -0.3666
 9996TIP3    H151479   6.313   4.153   3.834  0.3206  0.2163 -0.2202
 9996TIP3    H251480   6.354   4.245   3.722  1.6000 -0.7229 -0.5470
 9997TIP3   OH251481   3.004   4.957  11.679  0.0750 -0.1541  0.5536
 9997TIP3    H151482   3.069   4.940  11.611  0.8134 -2.2461  1.6941
 9997TIP3    H251483   3.042   5.029  11.731  0.0503  0.6587 -0.5372
 9998TIP3   OH251484   6.880   0.658   2.282  0.5296  0.7634  0.6191
 9998TIP3    H151485   6.830   0.588   2.324 -0.3438  1.5999  1.0208
 9998TIP3    H251486   6.901   0.719   2.354  3.1030 -0.0845  0.6744
 9999TIP3   OH251487   2.358   6.787   3.776  0.2947  0.2761 -0.4972
 9999TIP3    H151488   2.406   6.745   3.705  2.6144 -0.5352  1.4112
 9999TIP3    H251489   2.380   6.880   3.769 -3.7120  1.2603 -3.8602
10000TIP3   OH251490   3.110   6.351   2.083  0.2987 -0.2898  0.0033
10000TIP3    H151491   3.200   6.329   2.060 -0.7897 -2.8586 -2.4404
10000TIP3    H251492   3.076   6.273   2.127 -0.6391  0.8069  1.3074
10001TIP3   OH251493   2.497   0.014  11.262  0.1506 -0.3304  0.3280
10001TIP3    H151494   2.479  -0.023  11.175  0.4260  1.9070 -0.7582
10001TIP3    H251495   2.451   0.098  11.262  1.0494  0.2116  1.9571
10002TIP3   OH251496   3.482   3.761  15.236  0.4675  0.5516  0.5077
10002TIP3    H151497   3.391   3.780  15.212 -0.2435 -0.4849  2.1774
10002TIP3    H251498   3.479   3.743  15.330  2.1029 -1.1452  0.3109
10003TIP3   OH251499   1.635   5.753   1.950  0.5061  0.0734  0.6778
10003TIP3    H151500   1.699   5.707   2.004  0.9503  0.1490  0.2266
10003TIP3    H251501   1.685   5.824   1.909 -0.0327  0.5830  0.8870
10004TIP3   OH251502   5.508   0.859   0.941 -0.1890  0.0474  0.4874
10004TIP3    H151503   5.511   0.774   0.898 -1.5569  0.1212  0.1807
10004TIP3    H251504   5.451   0.845   1.017 -0.8768  0.7885  0.1341
10005TIP3   OH251505   3.886   6.447   3.231 -0.0165  0.1539 -0.1541
10005TIP3    H151506   3.960   6.410   3.184  1.8663  1.8433  1.3185
10005TIP3    H251507   3.833   6.489   3.163 -0.0389 -1.6005 -1.2964
10006TIP3   OH251508   0.931   5.900   4.502 -0.3726  0.1031 -0.1794
10006TIP3    H151509   0.879   5.862   4.572 -0.3102 -0.2441 -0.3171
10006TIP3    H251510   0.996   5.955   4.546 -1.3376  1.1773 -0.0323
10007TIP3   OH251511   4.766   6.128   2.872  0.6575 -0.1349  0.2191
10007TIP3    H151512   4.792   6.195   2.935 -1.0299 -1.0344  1.9542
10007TIP3    H251513   4.730   6.177   2.798 -3.1708  1.0459  2.5696
10008TIP3   OH251514   2.893   6.559   5.189 -0.0029 -0.2335 -1.0884
10008TIP3    H151515   2.866   6.650   5.181 -0.3168 -0.3459 -1.3322
10008TIP3    H251516   2.824   6.517   5.241  0.3642 -0.2348 -0.5961
10009TIP3   OH251517   2.332   5.554  14.925 -0.5317 -0.2511 -0.5642
10009TIP3    H151518   2.315   5.491  14.996  0.0989  1.0170  0.7581
10009TIP3    H251519   2.311   5.639  14.963  0.7143  0.5541 -1.5956
10010TIP3   OH251520   3.727   2.727  13.003 -0.3675 -0.0569  0.1242
10010TIP3    H151521   3.681   2.643  13.002 -0.2853 -0.1123 -1.0020
10010TIP3    H251522   3.662   2.790  12.972 -0.4775  0.3374  1.1197
10011TIP3   OH251523   6.250   6.325   1.997 -0.3310 -0.2733 -0.4531
10011TIP3    H151524   6.202   6.341   1.916  0.6477 -0.8393 -1.1555
10011TIP3    H251525   6.199   6.257   2.042 -0.0483 -1.0617 -1.3168
10012TIP3   OH251526   3.131   3.350   5.194  0.0608  0.2196  0.4430
10012TIP3    H151527   3.183   3.279   5.233 -0.2379 -1.3836 -1.8707
10012TIP3    H251528   3.184   3.381   5.121 -0.4672  1.4164  0.5458
10013TIP3   OH251529   2.047   1.549  16.709  0.0267  0.2689  0.7096
10013TIP3    H151530   2.017   1.475  16.657 -1.6825  1.0686  0.4970
10013TIP3    H251531   2.125   1.580  16.663 -1.5750  1.1189 -1.5999
10014TIP3   OH251532   0.143   2.954  10.582 -0.5499 -0.2920  0.1478
10014TIP3    H151533   0.055   2.932  10.552 -0.6403  0.7351 -0.3790
10014TIP3    H251534   0.138   3.046  10.605  0.4805 -0.1417 -0.2127
10015TIP3   OH251535   5.170   1.116  13.332 -0.1992 -0.1376  0.6275
10015TIP3    H151536   5.213   1.031  13.338 -0.6884 -0.3767  0.8111
10015TIP3    H251537   5.076   1.095  13.328 -0.3816  0.4314  1.6173
10016TIP3   OH251538   0.794   1.674  12.590  0.9783 -0.3271  0.1403
10016TIP3    H151539   0.744   1.647  12.667  0.1205  2.3179  0.6269
10016TIP3    H251540   0.820   1.764  12.610  3.0114 -0.4780 -1.5875
10017TIP3   OH251541   0.088   5.397  16.670 -0.2678 -0.0569  0.0078
10017TIP3    H151542   0.159   5.343  16.703 -1.0207 -0.5275  0.8924
10017TIP3    H251543   0.009   5.345  16.684 -0.9004  0.8639 -0.0351
10018TIP3   OH251544   3.253   6.712  13.423  0.0744  0.3179 -0.3362
10018TIP3    H151545   3.328   6.682  13.475 -0.1595 -0.1304 -0.2479
10018TIP3    H251546   3.183   6.724  13.487 -1.0482 -2.8507 -0.7554
10019TIP3   OH251547   3.159   5.392  14.514  0.1776  0.0564 -0.7283
10019TIP3    H151548   3.074   5.368  14.552  0.0699 -1.3529 -1.7644
10019TIP3    H251549   3.164   5.340  14.434  1.0882  1.7406 -1.8120
10020TIP3   OH251550   3.225   5.199  14.831 -0.1424 -0.1832  0.1708
10020TIP3    H151551   3.164   5.157  14.892 -1.2441  1.2244  0.0694
10020TIP3    H251552   3.173   5.263  14.784  1.1781  0.2803 -0.7305
10021TIP3   OH251553   4.934   2.666  14.938 -0.0132 -0.5938 -0.1037
10021TIP3    H151554   4.916   2.574  14.916  0.3868 -0.9010  0.7982
10021TIP3    H251555   4.862   2.691  14.995 -0.8748  0.0999 -1.4512
10022TIP3   OH251556   2.818   1.989  11.268 -0.0115 -0.4535  0.2467
10022TIP3    H151557   2.866   2.012  11.188  1.3495  0.9394  1.3913
10022TIP3    H251558   2.726   1.999  11.245  0.2397 -1.8835 -1.6402
10023TIP3   OH251559   4.378   3.772  12.291 -0.2811  0.0987  0.7232
10023TIP3    H151560   4.397   3.719  12.214 -1.2562 -0.1728  0.6620
10023TIP3    H251561   4.329   3.714  12.349 -1.6799  1.0185  0.5065
10024TIP3   OH251562   2.240   0.739  14.782  0.3820 -0.2343  0.1029
10024TIP3    H151563   2.173   0.671  14.778  0.2760 -0.2583  1.5781
10024TIP3    H251564   2.197   0.817  14.746 -0.1630 -0.4527  0.2706
10025TIP3   OH251565   2.332   5.614   5.864 -0.1733  0.0047  0.3024
10025TIP3    H151566   2.280   5.613   5.944 -0.8981 -1.9801 -0.1431
10025TIP3    H251567   2.420   5.640   5.893  0.2736 -3.1458  2.2684
10026TIP3   OH251568   5.756   2.206   1.550  0.4031 -0.2608 -0.5773
10026TIP3    H151569   5.671   2.164   1.537 -0.9249  1.8783  0.6706
10026TIP3    H251570   5.765   2.211   1.645  2.2667 -1.0291 -0.6757
10027TIP3   OH251571   1.377   4.978  15.360  0.2108  0.3143  0.2042
10027TIP3    H151572   1.297   4.949  15.316 -0.7935  0.7461  1.6687
10027TIP3    H251573   1.367   5.072  15.369  0.4012  0.2362  1.3233
10028TIP3   OH251574   0.102   3.612  15.593 -0.4953 -0.5086 -0.0712
10028TIP3    H151575   0.055   3.687  15.629  0.0605  0.0974 -0.5760
10028TIP3    H251576   0.193   3.641  15.590 -0.2763 -1.2051 -0.2844
10029TIP3   OH251577   3.088   1.965  15.571  0.2582  0.4020 -0.0253
10029TIP3    H151578   3.180   1.956  15.596 -0.4199 -1.8786  2.0707
10029TIP3    H251579   3.068   1.882  15.527 -0.9309  0.6335  0.0696
10030TIP3   OH251580   3.151   4.395  11.247 -0.1117 -0.6989  0.2806
10030TIP3    H151581   3.194   4.385  11.333 -1.0923 -1.2737  0.7200
10030TIP3    H251582   3.059   4.411  11.268 -0.3806 -0.9480 -0.6692
10031TIP3   OH251583   6.746   6.529  11.712 -0.5267 -0.1596 -0.2492
10031TIP3    H151584   6.719   6.621  11.713  1.2406  0.4819 -2.5525
10031TIP3    H251585   6.842   6.533  11.720 -0.4100 -1.7941 -0.5736
10032TIP3   OH251586   0.438   5.682   4.140 -0.2112 -0.0610 -0.0105
10032TIP3    H151587   0.432   5.625   4.217 -0.9728 -0.6399 -0.4851
10032TIP3    H251588   0.525   5.665   4.104 -0.0094 -0.0877  0.4830
10033TIP3   OH251589   0.573   4.976   4.977  0.2742  0.1744  0.5284
10033TIP3    H151590   0.561   4.956   5.070 -2.6401 -2.4179 -0.2571
10033TIP3    H251591   0.516   5.051   4.961 -0.7365 -0.5799  0.5006
10034TIP3   OH251592   2.720   5.945  12.234 -0.2012 -0.3891  0.6160
10034TIP3    H151593   2.783   6.014  12.250  0.4120 -0.8936  0.4398
10034TIP3    H251594   2.723   5.931  12.139 -0.3720 -0.6048  0.6399
10035TIP3   OH251595   5.900   3.922   4.886  0.4220 -0.4335  0.5676
10035TIP3    H151596   5.894   4.010   4.849  0.4217 -0.0854  1.3745
10035TIP3    H251597   5.948   3.933   4.968  0.2040 -1.1472  0.8051
10036TIP3   OH251598   1.062   2.976  10.197  0.7977 -0.4654 -0.0392
10036TIP3    H151599   1.132   3.037  10.219 -0.2987  0.4678  1.0299
10036TIP3    H251600   0.996   3.031  10.154 -1.1281 -0.3900  2.7707
10037TIP3   OH251601   4.879   1.589  15.122  0.7025 -0.0558 -0.1446
10037TIP3    H151602   4.870   1.681  15.146  0.0722  0.0819 -0.8387
10037TIP3    H251603   4.920   1.592  15.035 -1.9323 -0.2584 -1.4974
10038TIP3   OH251604   5.310   1.206  15.915 -0.3157 -0.1966  0.5335
10038TIP3    H151605   5.278   1.289  15.880 -0.9344 -0.5187  0.3104
10038TIP3    H251606   5.405   1.209  15.904  0.0287  1.6972  3.1116
10039TIP3   OH251607   2.219   0.285   3.121  0.2910 -0.0760  0.6217
10039TIP3    H151608   2.295   0.245   3.163  2.4418  1.5122 -1.4748
10039TIP3    H251609   2.175   0.333   3.191  2.5718  0.8279  1.5288
10040TIP3   OH251610   5.888   4.357   3.548  0.1064  0.3302  0.3392
10040TIP3    H151611   5.796   4.337   3.564 -0.4984  2.0099 -0.8071
10040TIP3    H251612   5.921   4.387   3.632 -1.1953  2.4851  0.1425
10041TIP3   OH251613   2.379   3.958  14.180 -0.1041  0.2699  0.4505
10041TIP3    H151614   2.427   3.881  14.148 -0.2980 -0.0292  0.8655
10041TIP3    H251615   2.446   4.026  14.188 -0.3806  1.0544 -2.7059
10042TIP3   OH251616   0.386   0.637   3.274  0.1682  0.2180 -0.4176
10042TIP3    H151617   0.296   0.668   3.291  0.5869  2.4984 -1.9757
10042TIP3    H251618   0.434   0.716   3.250  2.8190 -0.8345  1.0589
10043TIP3   OH251619   2.001   6.511  10.917  0.5407 -0.1454  0.3358
10043TIP3    H151620   2.070   6.557  10.868 -0.5386  1.2183  0.0499
10043TIP3    H251621   1.930   6.500  10.854 -0.7439  1.3459  1.4635
10044TIP3   OH251622   4.175   3.930  12.532  0.0096 -0.6846 -0.2377
10044TIP3    H151623   4.239   3.859  12.543  0.2203 -0.7019 -1.4463
10044TIP3    H251624   4.186   3.958  12.442 -2.0384 -1.0288 -0.6501
10045TIP3   OH251625   6.402   6.441   2.616  0.1039  0.1498 -0.5207
10045TIP3    H151626   6.476   6.456   2.558  0.4696  0.9431  0.1252
10045TIP3    H251627   6.384   6.526   2.655 -3.0151  0.6849 -2.7712
10046TIP3   OH251628   1.559   2.443  13.575 -0.9542 -0.1856 -0.3915
10046TIP3    H151629   1.522   2.451  13.487  0.4559 -1.2701 -1.1309
10046TIP3    H251630   1.613   2.364  13.571  1.5683  1.3485  0.5345
10047TIP3   OH251631   2.211   1.312  12.067 -0.0440 -0.4210  0.0873
10047TIP3    H151632   2.299   1.298  12.032  0.4232  0.9434  0.6564
10047TIP3    H251633   2.170   1.374  12.007  0.1038  0.4837  0.8966
10048TIP3   OH251634   3.859   4.300  13.528 -0.1230  0.2175  0.0374
10048TIP3    H151635   3.927   4.354  13.489  0.1292  0.1415  0.3703
10048TIP3    H251636   3.827   4.352  13.602 -1.0832  0.6688 -0.6766
10049TIP3   OH251637   2.873   3.561   3.758 -0.1465  0.2516 -0.0510
10049TIP3    H151638   2.828   3.489   3.713 -0.2064  0.1860  0.1138
10049TIP3    H251639   2.965   3.552   3.731  0.0735 -0.6467  0.9521
10050TIP3   OH251640   6.748   2.238  13.898 -0.3998 -0.1633 -0.4731
10050TIP3    H151641   6.737   2.280  13.812 -1.7327 -1.5095 -1.0115
10050TIP3    H251642   6.720   2.148  13.884 -3.0216  0.1371  1.9136
10051TIP3   OH251643   6.154   0.223  14.528  0.3297  0.0435  0.0036
10051TIP3    H151644   6.232   0.190  14.482  1.4975 -0.9737  2.5357
10051TIP3    H251645   6.188   0.265  14.607 -1.6739 -1.2674  1.6877
10052TIP3   OH251646   0.473   5.303   4.831  0.0665 -0.9338  0.4573
10052TIP3    H151647   0.411   5.337   4.767  0.2795 -2.4359 -0.5917
10052TIP3    H251648   0.527   5.379   4.855 -0.4379 -0.2058 -0.6454
10053TIP3   OH251649   2.231   6.594   0.104 -0.4103  0.1621  0.2077
10053TIP3    H151650   2.307   6.641   0.069 -1.4493  1.8241  0.0884
10053TIP3    H251651   2.252   6.581   0.197 -0.5933  1.9818  0.5361
10054TIP3   OH251652   5.073   2.993  12.126 -0.4231 -0.8449  0.0481
10054TIP3    H151653   5.059   3.087  12.113 -1.1570 -0.8524  0.7130
10054TIP3    H251654   4.989   2.953  12.104 -0.7308 -1.1438  1.6091
10055TIP3   OH251655   1.101   0.427   4.686 -0.0985  0.1043 -0.0479
10055TIP3    H151656   1.047   0.415   4.765  0.2448  0.3398  0.2242
10055TIP3    H251657   1.183   0.464   4.718  0.9951 -2.0192 -0.2136
10056TIP3   OH251658   4.534   3.381   3.158  0.3861 -0.2917  0.1933
10056TIP3    H151659   4.473   3.415   3.093 -1.0066 -2.1755  0.4353
10056TIP3    H251660   4.561   3.296   3.123 -0.0735 -1.1536  1.8493
10057TIP3   OH251661   5.611   5.461   4.837  0.0273 -0.2455 -0.1616
10057TIP3    H151662   5.553   5.470   4.912  1.3321  0.6384  0.7734
10057TIP3    H251663   5.552   5.465   4.761 -1.1060  0.9933  0.7414
10058TIP3   OH251664   6.201   1.815   2.672  0.3174 -0.6236  0.1685
10058TIP3    H151665   6.181   1.903   2.639 -0.0520 -0.8714 -0.2763
10058TIP3    H251666   6.205   1.761   2.593  0.3639 -1.0390  0.4571
10059TIP3   OH251667   4.312   1.528  16.525  0.0195  0.3176  0.8964
10059TIP3    H151668   4.254   1.602  16.507 -0.0418  0.0842  0.1199
10059TIP3    H251669   4.295   1.507  16.617  0.6853  1.8137  1.3873
10060TIP3   OH251670   2.394   2.244  14.816  0.3104 -0.0144 -0.6029
10060TIP3    H151671   2.411   2.181  14.886 -1.5880  2.8944  2.8286
10060TIP3    H251672   2.454   2.317  14.834 -2.0353  1.9541 -0.1878
10061TIP3   OH251673   1.964   6.385   2.107  0.4128  0.7774  0.1636
10061TIP3    H151674   1.947   6.425   2.022  0.3050  0.5841  0.0921
10061TIP3    H251675   1.974   6.292   2.087  0.1813  0.7032  0.3889
10062TIP3   OH251676   2.277   1.363  11.665 -0.1044  0.6386 -0.1152
10062TIP3    H151677   2.324   1.322  11.593 -0.5923 -4.1058  1.8588
10062TIP3    H251678   2.337   1.357  11.739 -1.9781 -1.1864  1.3673
10063TIP3   OH251679   5.240   0.267   4.576  0.3494 -0.0824 -0.4273
10063TIP3    H151680   5.247   0.207   4.651  0.5371 -0.0663 -0.4309
10063TIP3    H251681   5.331   0.287   4.554  0.2862  0.1596 -0.4631
10064TIP3   OH251682   0.841   1.953  15.841  0.5189  0.0767 -0.1190
10064TIP3    H151683   0.759   1.997  15.863  0.6443  0.0564  0.4012
10064TIP3    H251684   0.909   2.009  15.878  0.7014 -0.3003  0.1199
10065TIP3   OH251685   0.179   3.339   2.421 -0.2214  0.3188 -0.1754
10065TIP3    H151686   0.255   3.314   2.369 -0.0149  1.1122 -0.2553
10065TIP3    H251687   0.162   3.430   2.398  0.2673  0.9115  1.5923
10066TIP3   OH251688   5.572   5.782   6.397 -0.1344  0.2330 -0.2841
10066TIP3    H151689   5.602   5.836   6.470 -0.8595 -0.7376  0.7683
10066TIP3    H251690   5.651   5.760   6.349  0.3057  1.2418 -0.0336
10067TIP3   OH251691   2.996   2.082  15.285  0.3065 -0.5615  0.7783
10067TIP3    H151692   2.972   1.998  15.325 -0.7995 -1.2621 -1.2254
10067TIP3    H251693   2.923   2.102  15.226  0.6450  1.7266  1.0471
10068TIP3   OH251694   1.498   3.426   4.377  0.2805 -0.3632  0.2903
10068TIP3    H151695   1.497   3.335   4.348 -1.8936  0.0715 -1.2103
10068TIP3    H251696   1.591   3.445   4.392  0.7899 -2.8249  0.8069
10069TIP3   OH251697   4.302   4.612  13.043  0.2593  0.3188 -0.3636
10069TIP3    H151698   4.386   4.629  13.000  0.8439  0.1325  0.6526
10069TIP3    H251699   4.326   4.593  13.134 -0.6783 -2.1986 -0.5800
10070TIP3   OH251700   4.430   4.934   4.656 -0.3600 -0.4366 -0.2799
10070TIP3    H151701   4.428   4.980   4.572  1.7748 -0.3283 -0.3204
10070TIP3    H251702   4.386   4.850   4.638 -1.6855  0.3587 -0.9488
10071TIP3   OH251703   0.824   2.953   4.818  0.0644  0.0994  0.1412
10071TIP3    H151704   0.875   3.022   4.860  1.5779 -0.7871 -0.1460
10071TIP3    H251705   0.857   2.872   4.857 -0.1236 -0.6000 -1.1019
10072TIP3   OH251706   5.275   2.341  14.549  0.8631 -0.4020  0.1696
10072TIP3    H151707   5.301   2.249  14.554  2.1331 -0.1800 -1.2905
10072TIP3    H251708   5.180   2.340  14.555  0.9311 -1.6537  1.6807
10073TIP3   OH251709   3.890   2.237   0.475 -0.4364  0.1408  1.1249
10073TIP3    H151710   3.852   2.168   0.421  1.1512  0.6768 -0.8044
10073TIP3    H251711   3.922   2.192   0.553 -0.7710 -1.0500  0.5930
10074TIP3   OH251712   2.041   4.477  15.795 -0.3984 -0.1374 -0.0111
10074TIP3    H151713   1.968   4.532  15.767 -0.1763  0.6383  0.8792
10074TIP3    H251714   2.040   4.483  15.890 -0.5691 -1.9592  0.1262
10075TIP3   OH251715   1.862   6.867  12.932 -0.7667 -0.1373  0.0380
10075TIP3    H151716   1.904   6.907  13.008 -2.1167  0.8111  0.3192
10075TIP3    H251717   1.819   6.940  12.888 -1.4304 -0.9522 -0.6806
10076TIP3   OH251718   2.736   1.383   1.312  0.1122  0.0247  0.3017
10076TIP3    H151719   2.688   1.317   1.363  1.5038 -0.9199  0.4615
10076TIP3    H251720   2.802   1.416   1.373  0.1811  0.7243 -0.1449
10077TIP3   OH251721   6.811   6.027  16.044 -0.1769 -0.0894 -0.3714
10077TIP3    H151722   6.896   6.039  16.003  0.0895 -0.2818  0.1117
10077TIP3    H251723   6.831   6.015  16.137 -0.8222  1.3107 -0.0237
10078TIP3   OH251724   1.363   5.620  11.037  0.2695  0.1324 -0.0298
10078TIP3    H151725   1.437   5.670  11.004  0.3663 -0.2802 -0.4441
10078TIP3    H251726   1.350   5.550  10.973  1.1326 -1.3269  1.3150
10079TIP3   OH251727   5.284   0.070  10.585 -0.2560  0.2308 -0.2364
10079TIP3    H151728   5.325   0.121  10.515 -1.6235 -0.4638 -1.6129
10079TIP3    H251729   5.227   0.008  10.539 -0.5628 -0.8292  1.4766
10080TIP3   OH251730   0.233   1.025  13.449  0.4784 -0.3568 -0.1419
10080TIP3    H151731   0.169   0.961  13.480  0.7440 -0.6603 -0.2106
10080TIP3    H251732   0.271   1.062  13.529  0.9890 -0.9633 -0.0957
10081TIP3   OH251733   5.498   6.546   5.243  0.2809 -0.2108  0.3595
10081TIP3    H151734   5.555   6.621   5.257 -1.0905  0.6303  1.8048
10081TIP3    H251735   5.547   6.489   5.183  1.0789  2.1394 -1.3850
10082TIP3   OH251736   3.406   4.252   0.546 -0.3295 -0.3932  0.4447
10082TIP3    H151737   3.410   4.327   0.486  0.4061 -0.4850  0.3731
10082TIP3    H251738   3.337   4.275   0.608 -0.9490 -0.1920 -0.2950
10083TIP3   OH251739   6.477   0.203  14.467 -0.2784  0.2608  0.3562
10083TIP3    H151740   6.468   0.258  14.544  2.3510  2.0762 -0.4892
10083TIP3    H251741   6.455   0.261  14.394  1.4296 -0.1067 -0.4921
10084TIP3   OH251742   3.454   0.421  10.845 -0.4158  0.0670  0.0633
10084TIP3    H151743   3.525   0.467  10.798  0.4403 -1.8963 -0.6589
10084TIP3    H251744   3.390   0.400  10.776 -0.4757 -0.4102  0.2628
10085TIP3   OH251745   1.706   3.132   2.011 -0.0536  0.2316  0.2094
10085TIP3    H151746   1.678   3.218   2.043  1.4685  0.9200 -0.2122
10085TIP3    H251747   1.685   3.133   1.918 -0.4183 -0.0271  0.2866
10086TIP3   OH251748   6.444   2.772   3.054 -0.0013  0.6001 -0.4722
10086TIP3    H151749   6.398   2.711   2.997  0.0708  0.3231 -0.2341
10086TIP3    H251750   6.471   2.720   3.130 -1.8173  1.3522  0.7801
10087TIP3   OH251751   4.673   1.714   5.389 -0.0370  0.0025 -0.0942
10087TIP3    H151752   4.694   1.794   5.436 -1.4548  0.4254 -0.1419
10087TIP3    H251753   4.726   1.647   5.431 -1.4210  0.3123  2.2930
10088TIP3   OH251754   1.611   1.101  14.642 -0.0134  0.0175  0.0830
10088TIP3    H151755   1.539   1.107  14.704 -0.1314 -0.5718  0.0052
10088TIP3    H251756   1.594   1.022  14.592 -0.9065  1.4300 -1.9845
10089TIP3   OH251757   0.471   1.949   3.206  0.8487  0.2067  0.4577
10089TIP3    H151758   0.408   1.879   3.190  0.5616  0.5482  0.0904
10089TIP3    H251759   0.546   1.905   3.247  0.6239 -0.2947  0.3343
10090TIP3   OH251760   0.117   5.024  16.883 -0.4784 -0.1180 -0.3089
10090TIP3    H151761   0.038   4.975  16.861 -1.4562 -0.1256  2.7294
10090TIP3    H251762   0.158   4.971  16.952  0.6111  1.3282  0.1865
10091TIP3   OH251763   3.228   5.386  16.490  0.2952 -0.3590  0.4368
10091TIP3    H151764   3.177   5.441  16.550 -0.6600 -1.5807  0.8037
10091TIP3    H251765   3.163   5.330  16.448  1.2132 -1.1163 -0.0153
10092TIP3   OH251766   4.566   5.660  13.608 -0.0186  0.0742 -0.5212
10092TIP3    H151767   4.549   5.571  13.639  0.8854 -0.4752 -1.5258
10092TIP3    H251768   4.613   5.648  13.525  1.2963  1.4635 -0.0350
10093TIP3   OH251769   3.088   1.744  16.903  0.2677 -0.5533 -0.4966
10093TIP3    H151770   3.010   1.701  16.867  1.0607 -2.4123 -0.0956
10093TIP3    H251771   3.139   1.770  16.826 -0.6311  0.5253 -0.7559
10094TIP3   OH251772   4.953   4.028   4.827  0.0404  0.0109 -0.2228
10094TIP3    H151773   5.046   4.006   4.822 -0.2581 -1.5560  0.7187
10094TIP3    H251774   4.909   3.945   4.842 -1.4013  0.9021  0.7065
10095TIP3   OH251775   6.868   6.431   3.593  0.2094  0.0518  0.0598
10095TIP3    H151776   6.858   6.411   3.500  0.9724 -0.9141  0.1637
10095TIP3    H251777   6.877   6.526   3.596  1.7438 -0.0128 -1.0321
10096TIP3   OH251778   1.167   0.835   1.685  0.1578 -0.4890  0.1309
10096TIP3    H151779   1.179   0.896   1.757  0.0683  1.7633 -1.6617
10096TIP3    H251780   1.072   0.825   1.677  0.1143  0.2267 -0.3895
10097TIP3   OH251781   3.797   6.180  10.322 -0.0034  0.6664 -0.4764
10097TIP3    H151782   3.830   6.167  10.410  2.0129  0.5044 -1.2060
10097TIP3    H251783   3.764   6.095  10.295  3.6156 -0.6036 -1.4685
10098TIP3   OH251784   6.865   4.273   1.768 -0.0531  0.3322 -0.1886
10098TIP3    H151785   6.804   4.347   1.776 -0.9366 -0.4697  0.9147
10098TIP3    H251786   6.890   4.253   1.858 -0.5403 -1.2640 -0.3775
10099TIP3   OH251787   4.952   6.035  15.714 -0.2891 -0.1064  0.3116
10099TIP3    H151788   5.030   6.082  15.687 -0.2833 -0.3182 -0.0509
10099TIP3    H251789   4.945   6.052  15.808 -0.6111  1.0753  0.0881
10100TIP3   OH251790   1.423   3.778   4.332 -0.5685 -0.2569  0.1954
10100TIP3    H151791   1.357   3.709   4.330 -1.3737  0.4799  0.7340
10100TIP3    H251792   1.419   3.818   4.245 -0.2446 -0.7456 -0.0477
10101TIP3   OH251793   5.055   5.146   4.382  0.4305 -0.0804 -0.0653
10101TIP3    H151794   5.150   5.143   4.364  0.4934 -1.9652  0.3008
10101TIP3    H251795   5.048   5.138   4.477 -0.0744 -1.9158 -0.2030
10102TIP3   OH251796   2.090   4.440  11.802 -1.1452 -0.7633  0.4770
10102TIP3    H151797   2.179   4.412  11.783 -0.6305 -0.7465  2.6836
10102TIP3    H251798   2.100   4.514  11.862 -2.6513 -1.2294  1.3364
10103TIP3   OH251799   1.407   1.050  14.284  0.3351  0.3535  0.1735
10103TIP3    H151800   1.455   1.131  14.265 -0.1109  0.5262 -0.2762
10103TIP3    H251801   1.318   1.080  14.304 -1.0593 -0.1371 -4.0745
10104TIP3   OH251802   0.312   2.819   5.325 -0.4544  0.6539 -0.3753
10104TIP3    H151803   0.357   2.903   5.315  2.2493 -0.2305  2.7865
10104TIP3    H251804   0.260   2.828   5.404 -0.9392 -0.3634 -0.5574
10105TIP3   OH251805   6.209   1.196   2.997 -0.3848 -0.0929  0.5362
10105TIP3    H151806   6.193   1.113   3.043 -2.2247  0.3863  0.8214
10105TIP3    H251807   6.264   1.246   3.057  1.1526 -1.2501  0.1593
10106TIP3   OH251808   1.804   2.086  15.656 -0.3464  0.2406 -0.4881
10106TIP3    H151809   1.772   2.166  15.614 -1.3195 -0.8307 -1.8887
10106TIP3    H251810   1.845   2.037  15.585  0.2070 -0.5400  0.3484
10107TIP3   OH251811   2.251   3.143   5.667 -0.2879 -0.4685 -0.8012
10107TIP3    H151812   2.168   3.179   5.635 -0.6411 -0.9936 -0.5082
10107TIP3    H251813   2.231   3.051   5.685 -0.1138 -0.2052  0.9181
10108TIP3   OH251814   5.545   6.198  12.974  0.2260  0.2068 -0.4396
10108TIP3    H151815   5.597   6.145  12.914 -0.1224  0.1198 -0.6709
10108TIP3    H251816   5.593   6.195  13.057  1.2777  1.1877 -0.9784
10109TIP3   OH251817   1.957   4.938   4.475  0.3074 -0.2069 -0.3258
10109TIP3    H151818   1.869   4.904   4.489  0.5826 -0.5970  0.4997
10109TIP3    H251819   1.989   4.891   4.398  0.5044 -1.4962  0.5082
10110TIP3   OH251820   4.471   2.284   5.964 -0.0813  0.1202  0.3802
10110TIP3    H151821   4.444   2.371   5.995  1.1530  0.7526 -0.2323
10110TIP3    H251822   4.563   2.278   5.990 -0.5255 -1.6373  1.7147
10111TIP3   OH251823   4.032   3.509  12.956  0.6293 -0.2385  0.7447
10111TIP3    H151824   4.081   3.448  13.011  1.8632 -1.3492 -1.4353
10111TIP3    H251825   3.942   3.480  12.961  1.1653 -2.1756 -0.0651
10112TIP3   OH251826   1.161   1.075   5.326  0.5319 -0.8451  0.2187
10112TIP3    H151827   1.181   1.159   5.367  0.4203 -0.7956  0.1719
10112TIP3    H251828   1.165   1.093   5.232  0.2729 -0.8351  0.2085
10113TIP3   OH251829   6.791   5.674   1.617 -0.0499  0.3048 -0.4343
10113TIP3    H151830   6.818   5.765   1.632 -0.8398  0.9724 -2.6091
10113TIP3    H251831   6.719   5.660   1.679  1.1477  0.5662  1.0726
10114TIP3   OH251832   0.258   1.566   2.917  0.0699 -0.1331  0.3029
10114TIP3    H151833   0.296   1.506   2.981  1.2559 -2.1055 -2.1135
10114TIP3    H251834   0.164   1.568   2.939  0.3593 -1.1505  1.7563
10115TIP3   OH251835   2.482   3.838  13.328  0.6773  0.4900  0.4621
10115TIP3    H151836   2.553   3.778  13.353 -0.8187 -0.9873  1.4114
10115TIP3    H251837   2.522   3.896  13.264  2.4378 -1.0304  0.0644
10116TIP3   OH251838   5.839   1.648  15.320 -0.1153  0.1746 -0.0849
10116TIP3    H151839   5.858   1.569  15.269  1.2038  0.9342 -0.8095
10116TIP3    H251840   5.749   1.635  15.351  0.0142 -1.5248 -0.3294
10117TIP3   OH251841   6.826   6.145  12.002 -0.4004  0.0096  0.0420
10117TIP3    H151842   6.785   6.087  12.065 -0.1607 -1.6212 -1.2542
10117TIP3    H251843   6.916   6.154  12.033  0.5776 -3.1577 -1.5369
10118TIP3   OH251844   3.243   1.661   3.819  0.5857 -0.3602  0.1443
10118TIP3    H151845   3.296   1.580   3.816 -1.6654 -1.8991 -2.2247
10118TIP3    H251846   3.232   1.686   3.727 -3.1394 -0.4537  0.4093
10119TIP3   OH251847   1.836   2.439  12.117 -0.4995 -0.8249 -0.2030
10119TIP3    H151848   1.827   2.347  12.142 -0.3562 -0.6905  0.3469
10119TIP3    H251849   1.859   2.484  12.198 -1.9993 -0.0757 -0.1606
10120TIP3   OH251850   0.529   4.726   2.879  0.5250  0.2328 -0.2871
10120TIP3    H151851   0.619   4.724   2.913  0.9767  0.2048 -1.4475
10120TIP3    H251852   0.478   4.679   2.945  1.5958 -0.9827 -0.2894
10121TIP3   OH251853   3.598   0.112   5.352  0.1500 -0.5551  0.2063
10121TIP3    H151854   3.688   0.079   5.353  0.9466  1.2668 -2.0101
10121TIP3    H251855   3.555   0.064   5.282 -0.0402 -0.1615  0.0476
10122TIP3   OH251856   2.086   0.761   6.063 -0.4949 -0.3217 -0.8398
10122TIP3    H151857   2.129   0.684   6.099 -0.3489 -0.2290 -0.8138
10122TIP3    H251858   2.035   0.796   6.136  0.0070  0.0140 -0.6475
10123TIP3   OH251859   1.569   3.498   5.450  0.2431  0.4330  0.2807
10123TIP3    H151860   1.495   3.448   5.415  0.4452 -0.3659  0.9736
10123TIP3    H251861   1.564   3.486   5.544  1.6720 -0.2411  0.2985
10124TIP3   OH251862   4.479   6.371   5.295  0.3653 -0.4886 -0.4124
10124TIP3    H151863   4.506   6.459   5.322 -0.1668 -0.0934 -1.1383
10124TIP3    H251864   4.561   6.327   5.271  0.6561 -0.2725  0.1426
10125TIP3   OH251865   6.123   1.384   4.831  0.1027  0.1425 -0.4961
10125TIP3    H151866   6.036   1.364   4.865  0.3607 -1.9377 -0.9619
10125TIP3    H251867   6.170   1.423   4.906  0.1212 -2.7443  1.1414
10126TIP3   OH251868   0.681   5.832   0.897  0.1969 -0.6933 -0.1241
10126TIP3    H151869   0.737   5.849   0.821 -1.4495  1.5280 -0.9446
10126TIP3    H251870   0.615   5.771   0.865 -0.2969 -0.0194 -0.4225
10127TIP3   OH251871   3.512   5.268  15.289  0.0078  0.8999 -0.0624
10127TIP3    H151872   3.588   5.217  15.258 -0.4617  0.0897  0.0785
10127TIP3    H251873   3.539   5.359  15.280  0.4602  0.6538 -1.3840
10128TIP3   OH251874   6.474   4.362   2.891 -0.0871 -0.0590 -0.4205
10128TIP3    H151875   6.419   4.354   2.969  1.6300  0.3205  0.8904
10128TIP3    H251876   6.436   4.435   2.842 -1.9894 -1.1537 -0.6706
10129TIP3   OH251877   5.171   6.557   2.201 -0.1742 -0.7146 -0.2439
10129TIP3    H151878   5.122   6.635   2.226 -0.1401 -0.4745 -0.8938
10129TIP3    H251879   5.159   6.552   2.106  0.3280 -1.1573 -0.2825
10130TIP3   OH251880   1.104   2.585   5.100 -0.6495  0.3258 -0.2355
10130TIP3    H151881   1.084   2.671   5.137  1.8640  0.7081  0.3619
10130TIP3    H251882   1.182   2.598   5.047 -1.1203 -1.3091 -1.4400
10131TIP3   OH251883   5.849   2.748   3.339  0.4991  0.0523 -0.0271
10131TIP3    H151884   5.770   2.742   3.393  0.7957 -0.9372  0.3319
10131TIP3    H251885   5.829   2.696   3.262  2.3459 -4.3998  2.1281
10132TIP3   OH251886   3.522   4.630  11.752  0.5399  0.5558  0.4055
10132TIP3    H151887   3.492   4.569  11.820  1.0397 -0.6647 -0.4356
10132TIP3    H251888   3.572   4.576  11.691 -2.5587  0.8407 -2.7547
10133TIP3   OH251889   4.561   1.711   6.056 -0.6750 -0.0201 -0.1907
10133TIP3    H151890   4.509   1.781   6.096 -2.8811 -1.1793 -0.8385
10133TIP3    H251891   4.621   1.683   6.125 -2.6548 -0.2824  1.5247
10134TIP3   OH251892   2.130   0.852  11.881 -0.3915  0.4523  1.2549
10134TIP3    H151893   2.102   0.939  11.907  0.7600  1.1598  0.2618
10134TIP3    H251894   2.123   0.851  11.785 -2.0673 -1.1781  1.3296
10135TIP3   OH251895   1.945   1.914   0.578 -0.6235 -0.0131 -0.5087
10135TIP3    H151896   1.897   1.836   0.549 -0.6003  0.2401 -1.2499
10135TIP3    H251897   1.997   1.940   0.502 -1.0105  1.0120 -0.4442
10136TIP3   OH251898   3.578   2.980   0.578 -0.3703 -0.6441  0.1316
10136TIP3    H151899   3.488   2.947   0.570 -0.3624 -0.4345 -1.0187
10136TIP3    H251900   3.626   2.908   0.619  0.1881 -3.3288 -4.4342
10137TIP3   OH251901   2.674   3.400   2.975  0.4942 -0.7644  0.0060
10137TIP3    H151902   2.651   3.493   2.974  2.0861 -0.2604  2.4562
10137TIP3    H251903   2.597   3.356   2.939 -1.2432  1.3120  0.9668
10138TIP3   OH251904   1.043   0.057  11.030  0.1440 -0.1017 -0.1908
10138TIP3    H151905   1.020   0.139  10.986 -1.0161  0.1319  0.7804
10138TIP3    H251906   0.979  -0.006  10.996  0.5110 -0.4021 -0.3228
10139TIP3   OH251907   6.304   4.837  15.352  0.2926 -0.2535  0.4337
10139TIP3    H151908   6.302   4.881  15.437 -1.5323  2.3745 -0.8014
10139TIP3    H251909   6.223   4.786  15.350  0.0489  0.1401  0.0897
10140TIP3   OH251910   2.053   3.210   0.943 -0.1398  0.0558 -0.6359
10140TIP3    H151911   2.030   3.268   1.015  0.2037  0.4655 -0.8498
10140TIP3    H251912   2.122   3.154   0.978  0.0991  0.3232 -0.6765
10141TIP3   OH251913   0.732   0.792   3.317 -0.3597  0.4433 -0.1732
10141TIP3    H151914   0.783   0.760   3.242 -0.8863  1.0569 -0.8076
10141TIP3    H251915   0.664   0.847   3.278  0.3718  2.1496  0.8583
10142TIP3   OH251916   3.397   1.999  10.370 -0.3126 -0.2958  0.0596
10142TIP3    H151917   3.461   1.930  10.388 -0.8313  0.0426  3.9775
10142TIP3    H251918   3.450   2.074  10.344  0.5525 -0.9987 -0.2935
10143TIP3   OH251919   6.354   1.678   3.729  0.4173 -0.9850 -0.0998
10143TIP3    H151920   6.378   1.610   3.791 -0.7248 -0.2463  1.1935
10143TIP3    H251921   6.305   1.742   3.780 -0.9362 -0.5461 -1.8364
10144TIP3   OH251922   1.407   1.389  11.793  0.1484  0.1988  0.1395
10144TIP3    H151923   1.358   1.462  11.830 -1.3763 -0.5745 -0.2658
10144TIP3    H251924   1.373   1.311  11.837  0.9699 -0.3873 -0.2158
10145TIP3   OH251925   5.913   2.327   5.081 -0.5444  0.0546  0.3396
10145TIP3    H151926   5.918   2.421   5.067 -0.2996  0.0735  0.5496
10145TIP3    H251927   5.897   2.317   5.175  2.0235 -0.1631  0.8081
10146TIP3   OH251928   4.837   3.826  12.547 -0.0082 -0.0697 -0.0253
10146TIP3    H151929   4.870   3.813  12.458 -0.8361 -1.5275 -0.1603
10146TIP3    H251930   4.910   3.866  12.594  0.5301  0.5103 -1.2839
10147TIP3   OH251931   5.716   1.039  14.204 -0.2514 -0.4582 -0.3469
10147TIP3    H151932   5.781   1.014  14.137  0.0966  0.5659 -0.4060
10147TIP3    H251933   5.632   1.033  14.158 -0.1287 -0.9811 -0.5119
10148TIP3   OH251934   6.615   0.402   3.282  0.0353 -0.1221 -0.8472
10148TIP3    H151935   6.620   0.406   3.378 -2.0313  0.5129 -0.7320
10148TIP3    H251936   6.688   0.456   3.252  1.9280 -1.8920  0.3032
10149TIP3   OH251937   5.827   4.372   5.328 -0.4889 -0.2797 -0.1847
10149TIP3    H151938   5.794   4.319   5.256  2.2054 -0.3141 -1.5240
10149TIP3    H251939   5.914   4.400   5.299 -0.0194  1.1841  2.3495
10150TIP3   OH251940   0.417   5.822   4.659 -0.2283 -0.2088 -0.1474
10150TIP3    H151941   0.500   5.857   4.627  1.5855 -5.0320 -1.6296
10150TIP3    H251942   0.355   5.837   4.588  0.1246  0.8190 -0.2528
10151TIP3   OH251943   4.046   0.741  16.627 -0.4315 -0.3852  0.9414
10151TIP3    H151944   4.107   0.728  16.554 -0.1244  0.2256  1.0854
10151TIP3    H251945   4.082   0.688  16.698 -0.0549 -0.0149  1.0306
10152TIP3   OH251946   3.235   4.146   2.415  0.2753 -0.2796 -0.1610
10152TIP3    H151947   3.297   4.215   2.392  0.5467  0.1083  1.6202
10152TIP3    H251948   3.202   4.114   2.331 -1.4699  3.4464 -1.0635
10153TIP3   OH251949   1.766   3.665  16.294 -0.0679 -0.1575  0.4446
10153TIP3    H151950   1.672   3.662  16.281  0.3078 -0.8622 -3.1371
10153TIP3    H251951   1.796   3.738  16.239  1.4789  0.2962  1.8029
10154TIP3   OH251952   5.799   1.962  12.902 -0.8689  0.5869  0.4134
10154TIP3    H151953   5.742   1.890  12.929  0.0231 -0.3203 -0.0397
10154TIP3    H251954   5.863   1.971  12.973  0.4436 -0.6715 -0.5405
10155TIP3   OH251955   4.201   4.995   5.047 -0.3745 -0.0083  0.6017
10155TIP3    H151956   4.207   4.900   5.063 -0.0523  0.2329  2.0620
10155TIP3    H251957   4.200   5.003   4.952  2.4428 -1.3398  0.3375
10156TIP3   OH251958   4.213   2.805  14.370  0.4071 -0.2104 -0.6007
10156TIP3    H151959   4.154   2.780  14.299 -0.5305  0.6194 -0.1483
10156TIP3    H251960   4.168   2.878  14.414  1.7926  0.4676 -0.2472
10157TIP3   OH251961   5.220   1.125   1.251  0.3819 -0.2659 -0.1762
10157TIP3    H151962   5.294   1.113   1.192  0.9861 -0.0922  0.5363
10157TIP3    H251963   5.185   1.037   1.264  1.2307 -0.5294  0.4505
10158TIP3   OH251964   5.763   4.668  14.353 -0.5738  0.1582 -0.7451
10158TIP3    H151965   5.725   4.738  14.405  0.1320 -0.2948  0.4089
10158TIP3    H251966   5.856   4.667  14.377 -0.3014 -0.2913 -1.7576
10159TIP3   OH251967   0.016   0.257   1.352 -0.2436  0.0021 -0.1499
10159TIP3    H151968  -0.021   0.185   1.405  0.7563  0.4706  1.2306
10159TIP3    H251969   0.088   0.217   1.304 -0.4736 -0.1766 -0.3545
10160TIP3   OH251970   1.539   3.736   4.732  0.2152 -0.1131  0.1387
10160TIP3    H151971   1.487   3.806   4.692 -1.0224 -1.2012 -0.2070
10160TIP3    H251972   1.476   3.684   4.781  1.1893 -0.7285  0.7730
10161TIP3   OH251973   4.607   2.016   0.578  0.1724 -0.2139 -0.7499
10161TIP3    H151974   4.532   2.024   0.519  0.6543 -1.6415 -1.6165
10161TIP3    H251975   4.604   1.925   0.608  1.6703 -0.3737 -0.9791
10162TIP3   OH251976   3.357   0.439  12.736  0.3674 -0.3906 -0.0560
10162TIP3    H151977   3.264   0.452  12.716  0.6822 -0.6025 -1.8670
10162TIP3    H251978   3.396   0.526  12.723  0.2683 -0.0285  1.8549
10163TIP3   OH251979   2.648   5.430   3.630  0.2240  0.2732 -0.3191
10163TIP3    H151980   2.624   5.511   3.585 -2.8178 -1.8960 -3.0952
10163TIP3    H251981   2.697   5.380   3.565  0.4899 -0.8535  0.7180
10164TIP3   OH251982   6.244   0.270  11.754  0.0254  0.0376 -0.8734
10164TIP3    H151983   6.288   0.278  11.838 -1.1801  1.5718 -0.3428
10164TIP3    H251984   6.292   0.201  11.708 -0.2315 -1.9677  1.6422
10165TIP3   OH251985   2.577   6.498   1.918 -0.2436 -0.1157  0.1523
10165TIP3    H151986   2.585   6.537   1.831  0.6043 -0.6327 -0.0084
10165TIP3    H251987   2.591   6.405   1.904 -1.1405 -0.3433  0.7010
10166TIP3   OH251988   4.252   3.827  15.552 -0.0572  0.0012  0.5956
10166TIP3    H151989   4.300   3.809  15.633  0.3822 -0.3069  0.2671
10166TIP3    H251990   4.268   3.751  15.496  2.8529  1.8339 -1.3097
10167TIP3   OH251991   3.996   5.131  13.105 -0.2692 -0.2637  0.2562
10167TIP3    H151992   3.914   5.160  13.065  0.3915 -1.7094 -2.3730
10167TIP3    H251993   4.064   5.158  13.043  1.1464 -0.2415  1.7400
10168TIP3   OH251994   6.878   6.736  11.430  0.4057 -0.7878  0.2822
10168TIP3    H151995   6.924   6.769  11.507 -0.7515  0.0199  0.6530
10168TIP3    H251996   6.886   6.806  11.365  1.8987 -1.7058 -0.5997
10169TIP3   OH251997   0.599   0.159  11.209  0.0131 -0.1453 -0.2273
10169TIP3    H151998   0.647   0.236  11.179 -0.8110  0.0580 -1.0802
10169TIP3    H251999   0.663   0.108  11.258  0.7044  0.8272 -0.1037
10170TIP3   OH252000   3.407   6.724   6.277  0.6140  0.2418 -0.1555
10170TIP3    H152001   3.383   6.792   6.213  0.2060  0.1742 -0.0755
10170TIP3    H252002   3.401   6.768   6.362  1.7995  0.5217 -0.1899
10171TIP3   OH252003   3.394   3.803   0.990  0.6142 -0.0336 -0.1652
10171TIP3    H152004   3.407   3.765   1.077  0.1198  0.9510  0.3546
10171TIP3    H252005   3.303   3.833   0.990  1.1098  1.5842 -0.3637
10172TIP3   OH252006   0.904   3.221  10.425 -0.0103  0.3440  0.0912
10172TIP3    H152007   0.916   3.293  10.363 -1.3060 -0.0189 -0.6115
10172TIP3    H252008   0.809   3.219  10.441  0.0812 -0.8254  0.5712
10173TIP3   OH252009   1.680   6.456   5.637  0.1836  0.4024  0.2150
10173TIP3    H152010   1.635   6.417   5.562 -0.0472 -0.5720  0.8321
10173TIP3    H252011   1.771   6.426   5.629 -0.1068 -0.7672  0.9793
10174TIP3   OH252012   1.608   3.947   3.095  0.0569 -0.1765 -0.2607
10174TIP3    H152013   1.569   4.013   3.038  1.0016 -1.1786 -2.1278
10174TIP3    H252014   1.534   3.893   3.122 -0.4806  0.6358 -0.0449
10175TIP3   OH252015   6.528   0.773   0.996  0.0056  0.1058  0.5986
10175TIP3    H152016   6.452   0.735   1.039  0.7591 -2.6384 -0.2556
10175TIP3    H252017   6.521   0.867   1.011 -1.7880 -0.3723  3.2992
10176TIP3   OH252018   3.573   6.521  13.796  0.3175  0.7954 -0.5310
10176TIP3    H152019   3.591   6.474  13.715  0.3638 -1.1102  0.5224
10176TIP3    H252020   3.659   6.541  13.832  0.3234 -0.0848 -0.0282
10177TIP3   OH252021   1.103   3.145   3.975  0.4947  0.0531  0.6288
10177TIP3    H152022   1.059   3.098   4.047  1.0643 -0.6343  0.5318
10177TIP3    H252023   1.084   3.093   3.897 -1.1651  1.4515  0.0334
10178TIP3   OH252024   1.356   6.487   2.495  0.1577 -0.3760  0.5424
10178TIP3    H152025   1.263   6.502   2.479  0.6704  0.7536 -1.8694
10178TIP3    H252026   1.397   6.573   2.481  1.4211 -0.3554  3.4737
10179TIP3   OH252027   6.323   4.533  11.250  0.0337 -0.0290  0.0503
10179TIP3    H152028   6.381   4.594  11.294  0.0121  0.6974 -0.8945
10179TIP3    H252029   6.304   4.466  11.316  1.4053  0.0675  0.5803
10180TIP3   OH252030   4.884   5.441  16.034  1.0026  0.5034  0.2129
10180TIP3    H152031   4.790   5.438  16.054  1.0680 -0.1639  0.4298
10180TIP3    H252032   4.888   5.438  15.938  0.8377 -0.4388  0.2329
10181TIP3   OH252033   5.202   3.824   4.392  0.0766  0.3050 -0.0098
10181TIP3    H152034   5.113   3.799   4.367  1.0651 -0.3441 -3.4093
10181TIP3    H252035   5.232   3.880   4.320  2.4406  0.4703  1.0304
10182TIP3   OH252036   2.235   3.306   3.940 -0.0832  0.1010  0.0893
10182TIP3    H152037   2.200   3.388   3.904 -0.1026 -0.6632 -1.7246
10182TIP3    H252038   2.319   3.332   3.978 -0.6942  1.1905  0.7527
10183TIP3   OH252039   4.568   6.825   1.546  0.7626 -0.0919 -0.1155
10183TIP3    H152040   4.476   6.836   1.573  1.0653  1.5119  0.3780
10183TIP3    H252041   4.598   6.750   1.596  0.0188  0.0716  0.6124
10184TIP3   OH252042   0.789   1.523  12.281 -0.1533  0.4363 -0.3380
10184TIP3    H152043   0.705   1.556  12.315  0.0161  0.6816 -0.1579
10184TIP3    H252044   0.780   1.428  12.285 -0.8534  0.4429 -1.3717
10185TIP3   OH252045   0.189   6.033  14.705 -0.1844 -0.2994 -0.1101
10185TIP3    H152046   0.275   6.073  14.708  0.4899 -1.7402  1.4900
10185TIP3    H252047   0.189   5.982  14.624  0.4432 -0.2363 -0.1541
10186TIP3   OH252048   2.415   1.381   3.765 -0.0291 -0.1301 -0.1147
10186TIP3    H152049   2.372   1.333   3.693 -2.5246  1.0879  0.4540
10186TIP3    H252050   2.504   1.346   3.767 -0.5467 -1.8147 -2.3247
10187TIP3   OH252051   3.442   0.349  14.273  0.2891  0.1738 -0.2240
10187TIP3    H152052   3.431   0.444  14.279  0.2826  0.0721  2.6639
10187TIP3    H252053   3.532   0.338  14.240  0.7909  1.1967  0.7453
10188TIP3   OH252054   6.305   6.425   4.005 -1.6023  0.1491  0.1630
10188TIP3    H152055   6.364   6.440   3.931 -1.4524 -0.9999  0.0227
10188TIP3    H252056   6.230   6.482   3.989 -1.8328 -0.4932 -1.1972
10189TIP3   OH252057   2.045   6.344  14.974  0.2137 -0.1932  0.1093
10189TIP3    H152058   2.114   6.296  14.928  1.0874  1.3804 -0.3157
10189TIP3    H252059   2.082   6.362  15.060  0.8547  1.6264 -0.4932
10190TIP3   OH252060   5.529   6.121   0.384 -0.4208 -0.6149  0.0389
10190TIP3    H152061   5.512   6.061   0.311  0.2696 -0.9053  0.1087
10190TIP3    H252062   5.442   6.148   0.413 -0.7608  1.9679 -2.8717
10191TIP3   OH252063   0.015   5.612  10.533 -0.6359 -0.5055 -0.4006
10191TIP3    H152064  -0.075   5.642  10.528 -1.1011 -1.5372  1.0628
10191TIP3    H252065   0.024   5.550  10.461 -1.2439 -0.7652 -0.2564
10192TIP3   OH252066   3.805   4.604   4.340  0.0229 -0.2934 -0.0134
10192TIP3    H152067   3.759   4.688   4.343 -1.2356 -0.9752  0.1001
10192TIP3    H252068   3.821   4.588   4.247 -1.1934 -0.7000 -0.1631
10193TIP3   OH252069   1.771   4.522   4.187 -0.1819  0.7128  0.5389
10193TIP3    H152070   1.833   4.451   4.202 -1.4307 -0.6294 -0.3280
10193TIP3    H252071   1.824   4.594   4.154  0.8679 -0.6077 -0.8093
10194TIP3   OH252072   6.163   6.320   5.291  0.3300 -0.4334  0.0298
10194TIP3    H152073   6.130   6.301   5.203 -0.1530 -1.7137  0.4712
10194TIP3    H252074   6.105   6.389   5.324 -0.6535 -1.2482  0.0333
10195TIP3   OH252075   2.003   1.718   4.803 -0.4598 -0.4195 -0.7043
10195TIP3    H152076   2.094   1.743   4.820  0.4618 -3.3816 -0.5897
10195TIP3    H252077   1.963   1.715   4.890 -0.7392  0.9848 -0.7617
10196TIP3   OH252078   6.213   0.366  16.915  0.7439  0.0755  0.2345
10196TIP3    H152079   6.306   0.345  16.905  0.5326 -0.2871 -1.1677
10196TIP3    H252080   6.180   0.373  16.825 -0.4255  0.9410  0.7115
10197TIP3   OH252081   4.403   0.267  15.739 -0.1617 -0.4508  0.2625
10197TIP3    H152082   4.370   0.258  15.829 -1.6999 -0.9688 -0.3260
10197TIP3    H252083   4.325   0.276  15.685  0.7351  2.9643 -0.7538
10198TIP3   OH252084   2.822   3.433   7.028  0.3858  0.1923 -0.2864
10198TIP3    H152085   2.879   3.420   7.104 -0.9556 -0.2118  0.6897
10198TIP3    H252086   2.874   3.404   6.954  0.9298 -1.5869  0.7434
10199TIP3   OH252087   4.200   2.039   0.638  0.2819  0.7673  0.0268
10199TIP3    H152088   4.214   2.075   0.726  0.4214  1.7084 -0.3689
10199TIP3    H252089   4.105   2.048   0.624  0.0953 -0.3752  0.4926
10200TIP3   OH252090   1.100   6.560   4.952 -0.3388  0.5370 -0.2842
10200TIP3    H152091   1.032   6.555   5.019 -1.0656  0.6916 -0.9950
10200TIP3    H252092   1.142   6.644   4.966 -0.4425  0.5401  0.0164
10201TIP3   OH252093   6.031   0.623   6.125 -0.7223 -0.6220 -0.6078
10201TIP3    H152094   5.945   0.591   6.152  0.3121 -1.5538  1.7806
10201TIP3    H252095   6.055   0.568   6.051 -1.8485 -0.8308 -0.8280
10202TIP3   OH252096   5.125   1.401  14.247  0.2878 -0.5828  0.3087
10202TIP3    H152097   5.196   1.416  14.311 -0.5448 -2.6583  1.8179
10202TIP3    H252098   5.149   1.320  14.203 -0.0166 -0.0518 -0.8902
10203TIP3   OH252099   3.830   0.933  13.038 -0.3497  0.0201 -0.4120
10203TIP3    H152100   3.914   0.922  12.993  0.1786  1.0035  0.3062
10203TIP3    H252101   3.840   0.885  13.120 -0.7448 -0.4395 -0.6283
10204TIP3   OH252102   4.461   2.434   2.529 -0.2238 -0.2138 -0.2316
10204TIP3    H152103   4.434   2.410   2.617  0.0231  0.8414  0.1426
10204TIP3    H252104   4.423   2.520   2.514 -0.0797 -0.2836 -1.0733
10205TIP3   OH252105   2.884   4.817  15.157 -0.1138 -0.6553 -0.1605
10205TIP3    H152106   2.866   4.744  15.098 -0.8137 -0.5539 -0.0817
10205TIP3    H252107   2.834   4.797  15.236 -0.4665 -0.0052 -0.2078
10206TIP3   OH252108   3.178   2.098  12.662  0.3735  0.3050 -0.0406
10206TIP3    H152109   3.234   2.022  12.677 -1.2327 -1.2030 -1.3411
10206TIP3    H252110   3.205   2.161  12.729  1.3816 -1.6077  1.4341
10207TIP3   OH252111   1.590   5.427   2.073  0.4078 -0.0657 -0.1829
10207TIP3    H152112   1.565   5.440   2.165  1.5460 -0.2022  0.1624
10207TIP3    H252113   1.520   5.469   2.023  0.0865  0.5578  0.7578
10208TIP3   OH252114   2.085   1.309  13.198 -0.0318 -0.1924 -0.5707
10208TIP3    H152115   2.146   1.359  13.252  2.4223 -1.0461 -2.3880
10208TIP3    H252116   2.033   1.259  13.261  1.8566 -0.2221  1.0568
10209TIP3   OH252117   0.892   4.605  14.482 -0.4082  0.0348 -0.4132
10209TIP3    H152118   0.849   4.612  14.567  0.1759  0.3274 -0.1342
10209TIP3    H252119   0.942   4.686  14.473  0.8068 -0.6716 -0.3201
10210TIP3   OH252120   4.708   0.101   6.229  0.0760  0.4390 -0.0923
10210TIP3    H152121   4.685   0.193   6.244  0.6919  0.3933  1.2332
10210TIP3    H252122   4.628   0.061   6.196 -0.2851  1.3838 -0.3849
10211TIP3   OH252123   0.916   5.581  13.484  0.8840  0.0547  0.7839
10211TIP3    H152124   0.974   5.511  13.454  1.6225  0.5421  1.0598
10211TIP3    H252125   0.909   5.640  13.408  0.6238 -0.0795  0.7022
10212TIP3   OH252126   2.170   4.090  16.865  0.5953  0.0151 -0.1087
10212TIP3    H152127   2.165   4.082  16.770  1.8907  0.3382 -0.2256
10212TIP3    H252128   2.237   4.156  16.880 -0.1573  0.5458  1.0327
10213TIP3   OH252129   6.564   2.232  11.622 -0.1292  0.0824 -0.6343
10213TIP3    H152130   6.528   2.278  11.546  2.3486  0.6391 -1.6084
10213TIP3    H252131   6.638   2.287  11.649  1.2430 -1.9173 -0.0899
10214TIP3   OH252132   6.006   3.587  13.216  0.2927 -0.3372 -0.5127
10214TIP3    H152133   6.069   3.597  13.145  0.6594 -2.7900 -0.6200
10214TIP3    H252134   5.933   3.540  13.177  0.4432 -1.6176  0.6696
10215TIP3   OH252135   0.842   5.261   4.942  0.3301 -0.2111  0.2398
10215TIP3    H152136   0.821   5.214   5.023  0.5118  0.0811  0.4569
10215TIP3    H252137   0.930   5.230   4.920  0.1092 -0.6174 -0.0820
10216TIP3   OH252138   3.097   0.015  15.832  0.2741  0.2607  0.7512
10216TIP3    H152139   3.181   0.019  15.877 -0.2759  1.5999  1.7327
10216TIP3    H252140   3.116   0.044  15.743  0.8218  0.8160  1.0382
10217TIP3   OH252141   5.648   6.248  13.218  0.1068 -0.1967  0.0344
10217TIP3    H152142   5.734   6.214  13.244 -0.0363  0.9552  2.2328
10217TIP3    H252143   5.586   6.184  13.252  0.0223  0.0358  0.3233
10218TIP3   OH252144   5.005   1.351  11.232  0.1748  0.2488 -0.1694
10218TIP3    H152145   5.051   1.387  11.307  0.1590  0.0605 -0.0697
10218TIP3    H252146   4.913   1.377  11.244 -0.0308 -0.7327  0.4563
10219TIP3   OH252147   6.602   4.794   2.771 -0.0826  0.1754 -0.5437
10219TIP3    H152148   6.695   4.774   2.770 -0.2005 -0.4015 -0.4138
10219TIP3    H252149   6.597   4.888   2.785  0.4820  0.2264 -0.6906
10220TIP3   OH252150   4.145   1.860   6.101 -0.5015 -0.1538 -0.2347
10220TIP3    H152151   4.189   1.817   6.174  2.1142  1.4591 -0.7270
10220TIP3    H252152   4.052   1.850   6.120  0.0434 -2.2629  1.7973
10221TIP3   OH252153   6.432   4.876   5.432 -0.2916 -0.1036  0.0894
10221TIP3    H152154   6.443   4.849   5.523  0.9459  2.6535  0.8755
10221TIP3    H252155   6.338   4.886   5.421 -0.4036  0.9462  1.6027
10222TIP3   OH252156   2.074   0.702  16.260 -0.0757  0.5010  0.3061
10222TIP3    H152157   2.075   0.787  16.216 -0.3285  1.2899  1.7600
10222TIP3    H252158   2.148   0.704  16.320  0.0554 -0.4025  0.1940
10223TIP3   OH252159   0.745   4.492   3.923  0.4220  0.2373  0.8958
10223TIP3    H152160   0.806   4.565   3.919  1.0818 -0.3343  0.3519
10223TIP3    H252161   0.793   4.423   3.970 -0.1171  0.0721  1.2216
10224TIP3   OH252162   0.130   5.044   0.588  0.3005  0.1456 -0.3215
10224TIP3    H152163   0.141   4.951   0.569 -2.5578 -0.4262  0.2857
10224TIP3    H252164   0.116   5.048   0.683  1.2260  1.3297 -0.2104
10225TIP3   OH252165   1.791   5.990   5.893 -0.7135  0.1160  0.4347
10225TIP3    H152166   1.795   5.948   5.807 -0.1965  0.3968  0.3222
10225TIP3    H252167   1.702   5.971   5.924 -0.0913 -2.2452  0.9991
10226TIP3   OH252168   1.644   5.694  11.165  0.6020 -0.1498  0.0908
10226TIP3    H152169   1.596   5.691  11.247 -2.9620 -1.5395 -1.8240
10226TIP3    H252170   1.657   5.788  11.148  1.7693  0.1471  2.3188
10227TIP3   OH252171   0.560   6.620   2.710 -0.1479  0.6514  0.0231
10227TIP3    H152172   0.529   6.591   2.796  0.4322  0.9314  0.3349
10227TIP3    H252173   0.654   6.633   2.722 -0.3499  2.4381 -0.1632
10228TIP3   OH252174   6.151   2.021  15.424  0.4519  1.2234 -0.2136
10228TIP3    H152175   6.146   2.112  15.393 -1.6080  0.7502 -1.4180
10228TIP3    H252176   6.090   2.018  15.498  0.2694  0.7269 -0.3842
10229TIP3   OH252177   4.084   2.622  11.460 -0.3459  0.2074  0.3653
10229TIP3    H152178   4.115   2.681  11.529  0.5218 -0.6500  0.7301
10229TIP3    H252179   4.073   2.538  11.505  2.0138 -0.8447 -0.9024
10230TIP3   OH252180   5.991   0.978  14.127 -0.3107 -0.1659 -0.0430
10230TIP3    H152181   6.047   1.014  14.196 -1.0285 -1.5056  1.3077
10230TIP3    H252182   6.035   0.897  14.100  1.1155  1.4043 -2.8029
10231TIP3   OH252183   0.929   3.494  14.400  0.2543 -0.6757  0.5608
10231TIP3    H152184   1.002   3.492  14.463 -0.0686  2.5336  1.2426
10231TIP3    H252185   0.859   3.446  14.443  1.1314 -1.5812  1.0419
10232TIP3   OH252186   2.334   6.401  16.134 -0.5350 -0.6868  0.6625
10232TIP3    H152187   2.282   6.449  16.070 -1.2165 -1.1926  0.8304
10232TIP3    H252188   2.322   6.449  16.216  0.4626  0.0511  0.3925
10233TIP3   OH252189   4.269   2.148   5.838  0.8197 -0.1681  0.3795
10233TIP3    H152190   4.329   2.133   5.765  1.2816  1.1050  0.4716
10233TIP3    H252191   4.309   2.219   5.888  0.1254 -0.5077  1.4536
10234TIP3   OH252192   2.352   6.349  14.377 -0.2724 -0.1269 -0.3091
10234TIP3    H152193   2.332   6.438  14.407  0.0347  0.2432 -1.1824
10234TIP3    H252194   2.387   6.361  14.289 -0.8379 -1.1746 -0.6866
10235TIP3   OH252195   4.948   2.429   3.625 -0.5818  0.6409 -0.5057
10235TIP3    H152196   5.021   2.398   3.679 -2.0668 -1.0027  0.6779
10235TIP3    H252197   4.932   2.358   3.563 -0.9268  1.1590 -1.0214
10236TIP3   OH252198   6.623   0.900   5.566  0.3049 -0.0240  0.0109
10236TIP3    H152199   6.560   0.919   5.497  1.5201 -1.3849 -1.5455
10236TIP3    H252200   6.663   0.984   5.587 -0.7514  0.5568 -0.2272
10237TIP3   OH252201   5.382   2.115  13.560  0.2458 -0.1948  0.3247
10237TIP3    H152202   5.319   2.187  13.564  2.2352  1.5941  1.7142
10237TIP3    H252203   5.331   2.036  13.575 -1.6343  1.1847  1.4576
10238TIP3   OH252204   2.791   4.047   3.170 -0.0430 -0.2087 -0.0138
10238TIP3    H152205   2.852   3.975   3.159 -0.8731 -0.7384 -1.3338
10238TIP3    H252206   2.829   4.119   3.119  0.0746 -0.1479  0.1566
10239TIP3   OH252207   0.705   4.574  15.005 -0.4041 -0.1302 -0.2025
10239TIP3    H152208   0.717   4.633  15.079 -2.6511  0.9406 -0.6158
10239TIP3    H252209   0.765   4.501  15.022  1.1785  1.4221  1.1950
10240TIP3   OH252210   3.861   4.752  15.376  0.3424  0.5361  0.3528
10240TIP3    H152211   3.834   4.684  15.314 -1.8259  0.2030  1.5662
10240TIP3    H252212   3.955   4.761  15.362  0.0028  0.3520 -2.8313
10241TIP3   OH252213   6.796   0.108   1.794  0.1259 -0.0771 -0.4910
10241TIP3    H152214   6.793   0.184   1.736  0.1084  0.0559 -0.3145
10241TIP3    H252215   6.758   0.138   1.876 -0.0816 -0.3378 -0.4896
10242TIP3   OH252216   4.872   5.092   2.751  0.0721  0.0063  0.3577
10242TIP3    H152217   4.928   5.169   2.746 -0.5257  0.4583  0.5483
10242TIP3    H252218   4.856   5.068   2.660 -1.2030  1.1858  0.2449
10243TIP3   OH252219   0.872   1.894  13.913 -0.1611 -0.3705  0.4810
10243TIP3    H152220   0.846   1.889  14.005 -0.8144 -1.5718  0.2606
10243TIP3    H252221   0.808   1.952  13.873 -0.3122 -0.4169  0.6537
10244TIP3   OH252222   5.050   3.480  14.128 -0.8301 -0.0053 -0.8546
10244TIP3    H152223   4.987   3.426  14.175  1.2293 -1.6414  0.2331
10244TIP3    H252224   5.043   3.566  14.168 -0.8972 -0.7227  0.7454
10245TIP3   OH252225   1.178   1.663  12.111  0.3458 -0.4459  0.2958
10245TIP3    H152226   1.252   1.707  12.154 -0.0814 -1.0684  1.7228
10245TIP3    H252227   1.147   1.600  12.176 -0.6345 -1.0944 -0.7723
10246TIP3   OH252228   5.004   4.219  15.427 -1.0755  0.4333 -0.4271
10246TIP3    H152229   4.935   4.202  15.491  0.1647  0.3411  0.9652
10246TIP3    H252230   5.081   4.176  15.464 -0.5883 -0.7041 -2.6422
10247TIP3   OH252231   2.327   2.826   1.973  0.3859  0.1019 -0.4666
10247TIP3    H152232   2.290   2.817   2.061 -2.7256  0.2564 -1.6137
10247TIP3    H252233   2.381   2.748   1.961 -0.0306 -0.4761  1.1842
10248TIP3   OH252234   0.423   5.600   4.831  0.0866  0.0797 -0.1336
10248TIP3    H152235   0.382   5.534   4.775 -4.0081  0.4362  2.0704
10248TIP3    H252236   0.415   5.682   4.781 -0.4393 -0.1362 -0.4143
10249TIP3   OH252237   5.803   0.273   0.708  0.6442  0.1592  0.4288
10249TIP3    H152238   5.770   0.281   0.798  1.4193  2.1758  0.5927
10249TIP3    H252239   5.858   0.195   0.710  0.5568  0.1025  1.6809
10250TIP3   OH252240   3.227   2.472   3.087 -0.3284  0.4212  0.6331
10250TIP3    H152241   3.262   2.384   3.093  0.5318  0.6958 -0.1278
10250TIP3    H252242   3.234   2.507   3.176  1.0288  0.3436  0.5812
10251TIP3   OH252243   2.175   6.435  13.952 -0.2605  0.1580 -0.2425
10251TIP3    H152244   2.129   6.500  13.899  0.2378  0.6874 -0.0327
10251TIP3    H252245   2.223   6.486  14.017 -1.4580 -0.4950  1.2187
10252TIP3   OH252246   4.524   3.907  15.312  0.1048  0.0007 -0.5372
10252TIP3    H152247   4.597   3.966  15.333  1.6288 -1.7305 -0.6791
10252TIP3    H252248   4.448   3.947  15.353  1.4036  1.1436  0.8839
10253TIP3   OH252249   1.429   5.949   4.685 -0.1437  0.3711 -0.1528
10253TIP3    H152250   1.478   6.030   4.699  1.2738 -0.1289 -1.8626
10253TIP3    H252251   1.458   5.918   4.600 -2.4196 -0.7382 -0.5980
10254TIP3   OH252252   0.477   6.318  15.910 -0.7027  0.5080  0.2783
10254TIP3    H152253   0.547   6.296  15.848 -1.1659  2.9500 -1.2454
10254TIP3    H252254   0.447   6.233  15.943 -1.1598 -1.1051 -3.6869
10255TIP3   OH252255   2.048   0.566   0.800 -0.1214  0.6524 -0.0298
10255TIP3    H152256   2.115   0.633   0.812  0.3227  0.4172 -1.0833
10255TIP3    H252257   2.096   0.483   0.803 -0.6200  0.3800  0.9350
10256TIP3   OH252258   1.041   5.046  16.520 -0.1867  0.6477  0.3080
10256TIP3    H152259   1.026   4.963  16.566  1.3411  0.1695  0.0051
10256TIP3    H252260   0.982   5.044  16.445 -0.0222 -0.2728  0.1943
10257TIP3   OH252261   4.791   1.628  10.800  0.2790  0.7003 -1.4683
10257TIP3    H152262   4.747   1.640  10.884  1.6717 -1.6012 -0.3037
10257TIP3    H252263   4.728   1.578  10.747 -0.6813  2.3298 -1.9382
10258TIP3   OH252264   0.514   2.947  16.662  0.3565 -0.2453 -0.5409
10258TIP3    H152265   0.570   2.890  16.610  1.7145  0.0187  0.5743
10258TIP3    H252266   0.454   2.887  16.706  2.4223 -1.0418  1.4313
10259TIP3   OH252267   6.341   3.917  13.479 -0.4119 -0.5102 -0.6497
10259TIP3    H152268   6.376   3.847  13.424 -2.6138 -0.2859 -2.4593
10259TIP3    H252269   6.412   3.980  13.486  1.4189 -2.5612  0.5099
10260TIP3   OH252270   0.801   6.374  11.736 -0.3081 -0.2795  0.2319
10260TIP3    H152271   0.840   6.291  11.708 -0.5649 -0.4668  0.4139
10260TIP3    H252272   0.718   6.379  11.687 -1.4316 -1.2781  1.8978
10261TIP3   OH252273   3.218   4.713  16.207 -0.0000 -0.4475  0.5621
10261TIP3    H152274   3.279   4.753  16.269 -0.4416  0.7380  0.2599
10261TIP3    H252275   3.274   4.665  16.146  0.7919  1.5966 -0.4269
10262TIP3   OH252276   0.578   6.439  14.854  0.8606  0.0511 -0.1975
10262TIP3    H152277   0.669   6.408  14.861  0.0397 -2.7759 -0.8883
10262TIP3    H252278   0.563   6.448  14.760  0.6268  1.2989 -0.0548
10263TIP3   OH252279   1.734   5.001  16.246  0.8281 -0.3547 -0.3156
10263TIP3    H152280   1.761   5.012  16.154 -1.9289  0.3954 -1.1256
10263TIP3    H252281   1.670   5.070  16.260  0.5470 -1.0183  1.9370
10264TIP3   OH252282   1.647   3.521   3.287  0.7646 -0.1657  0.6896
10264TIP3    H152283   1.726   3.482   3.325  1.5081 -0.1779 -0.8140
10264TIP3    H252284   1.673   3.609   3.263  1.2580 -1.0529 -2.4629
10265TIP3   OH252285   5.028   5.935  13.319  0.8239  0.0988  0.1873
10265TIP3    H152286   5.089   5.916  13.390 -0.1324  0.0816  1.0204
10265TIP3    H252287   5.079   5.989  13.258  2.0267 -0.8845  0.2736
10266TIP3   OH252288   1.622   1.411  11.635  0.3040 -0.0462  0.0479
10266TIP3    H152289   1.620   1.345  11.565  0.2701  0.2335 -0.2150
10266TIP3    H252290   1.540   1.399  11.682  0.3266 -0.2353  0.0414
10267TIP3   OH252291   2.171   2.772   1.269  0.4042  0.3392 -0.1183
10267TIP3    H152292   2.193   2.860   1.298  0.5220  0.2887 -0.0554
10267TIP3    H252293   2.114   2.785   1.193 -1.1099  0.4926  0.9860
10268TIP3   OH252294   4.003   5.053  15.704  0.3959  0.5446 -0.1222
10268TIP3    H152295   3.960   5.130  15.741  1.5398  1.5646 -0.8617
10268TIP3    H252296   3.987   5.060  15.609  0.2048 -0.3310 -0.1656
10269TIP3   OH252297   6.335   1.197  13.061 -0.2877  0.2475 -0.1991
10269TIP3    H152298   6.296   1.272  13.016 -2.6047 -0.9909 -0.4450
10269TIP3    H252299   6.416   1.231  13.099 -0.6984  2.5688 -1.2075
10270TIP3   OH252300   2.530   1.697  10.476 -0.0186  0.1596  0.4505
10270TIP3    H152301   2.620   1.700  10.443  0.0301 -2.4066  0.1918
10270TIP3    H252302   2.534   1.646  10.556 -1.2043  0.3423  0.6548
10271TIP3   OH252303   5.133   5.272   5.332 -0.2984  0.4185 -0.0768
10271TIP3    H152304   5.201   5.243   5.393 -1.7128 -0.9648  0.9377
10271TIP3    H252305   5.108   5.359   5.362 -1.0656 -0.2932  1.4792
10272TIP3   OH252306   5.639   4.975   2.996 -0.4960 -0.2734  0.1350
10272TIP3    H152307   5.612   4.943   2.911  0.5661 -0.7087 -0.0607
10272TIP3    H252308   5.559   4.980   3.047 -0.9674 -1.2567 -0.4906
10273TIP3   OH252309   1.882   6.145   3.120 -0.4712 -0.2231  0.6028
10273TIP3    H152310   1.904   6.066   3.169  2.6441  0.8715  1.1820
10273TIP3    H252311   1.863   6.211   3.188  2.4774  0.9221  0.4499
10274TIP3   OH252312   6.141   3.131   2.702  0.0623  0.0816  0.1395
10274TIP3    H152313   6.115   3.041   2.682  2.3817 -0.7461  0.5244
10274TIP3    H252314   6.097   3.150   2.785 -0.4826 -0.7010  0.0414
10275TIP3   OH252315   0.625   1.576  14.609  0.1749  0.3665  0.0898
10275TIP3    H152316   0.642   1.654  14.663 -0.4831 -0.0366  0.9121
10275TIP3    H252317   0.573   1.519  14.666  0.9137 -0.8176 -0.3782
10276TIP3   OH252318   2.343   4.822   3.244  0.3371 -0.5612 -0.2588
10276TIP3    H152319   2.388   4.895   3.200 -0.1024  1.1161  1.9248
10276TIP3    H252320   2.250   4.838   3.228  0.2431 -0.6504  0.1927
10277TIP3   OH252321   3.542   0.558   1.532 -0.2874  0.0715 -0.1161
10277TIP3    H152322   3.510   0.595   1.614 -2.7332 -1.2534 -0.3912
10277TIP3    H252323   3.519   0.622   1.465 -0.0015  0.2805 -0.0195
10278TIP3   OH252324   2.663   0.117  15.696 -0.9569 -0.6119  0.7544
10278TIP3    H152325   2.724   0.171  15.646  0.9570 -3.0263  0.2584
10278TIP3    H252326   2.578   0.158  15.683  0.1181  1.2804 -0.9167
10279TIP3   OH252327   0.390   2.918   3.622 -0.0724 -0.2394 -0.4710
10279TIP3    H152328   0.330   2.989   3.603 -0.3826 -0.1805  0.6822
10279TIP3    H252329   0.349   2.870   3.694  0.3788 -1.2826 -0.8872
10280TIP3   OH252330   5.326   1.057  10.465 -0.3849 -0.0836 -0.0070
10280TIP3    H152331   5.278   0.984  10.505 -0.4172 -0.5993 -0.9442
10280TIP3    H252332   5.257   1.112  10.427 -0.5226  1.5188  2.3256
10281TIP3   OH252333   2.976   0.221  16.157  0.0135 -0.4675 -0.0235
10281TIP3    H152334   2.880   0.215  16.152 -0.1341  0.9796  0.4831
10281TIP3    H252335   2.995   0.311  16.129  1.1739 -0.5608  0.4473
10282TIP3   OH252336   1.573   1.768   5.563  0.3571 -0.4228 -0.1688
10282TIP3    H152337   1.572   1.698   5.498  1.0349 -0.5298 -0.0680
10282TIP3    H252338   1.627   1.735   5.634 -0.7358 -0.4834  0.6634
10283TIP3   OH252339   5.105   0.417  16.294 -0.0186  0.0386 -0.3403
10283TIP3    H152340   5.071   0.335  16.258 -0.3921  0.4554 -0.9556
10283TIP3    H252341   5.172   0.390  16.356  0.4694 -0.7157 -1.1691
10284TIP3   OH252342   4.434   3.213  12.798  0.3334  0.2976 -0.1512
10284TIP3    H152343   4.518   3.231  12.757 -0.6130  0.7760 -1.9940
10284TIP3    H252344   4.452   3.143  12.860  2.1505  0.6698 -0.2054
10285TIP3   OH252345   4.959   3.271  12.387  0.8811 -0.1239  0.0205
10285TIP3    H152346   5.016   3.240  12.316 -1.1257 -2.4544 -0.7332
10285TIP3    H252347   4.926   3.356  12.357  0.6101 -0.7592 -1.5671
10286TIP3   OH252348   5.510   1.344   2.555 -0.2365 -0.4616 -0.7414
10286TIP3    H152349   5.571   1.321   2.484 -0.2813 -1.1112 -0.5807
10286TIP3    H252350   5.475   1.260   2.584  0.3969 -0.2883  0.5943
10287TIP3   OH252351   3.367   6.667  14.713  0.6117 -0.1005 -0.3377
10287TIP3    H152352   3.428   6.731  14.675  0.1132  0.1367 -0.7479
10287TIP3    H252353   3.420   6.619  14.777  0.4925  2.1359  1.5913
10288TIP3   OH252354   5.934   5.647   0.982 -0.5757  0.4799 -0.5809
10288TIP3    H152355   6.006   5.710   0.979 -0.7559  0.6808 -0.6860
10288TIP3    H252356   5.863   5.688   0.932 -0.3118 -0.2925 -1.6157
10289TIP3   OH252357   3.270   0.237   5.053  0.1311  0.2436 -0.2026
10289TIP3    H152358   3.236   0.149   5.066  0.2255  0.2903  0.3930
10289TIP3    H252359   3.269   0.276   5.140  0.6820  0.6132 -0.3551
10290TIP3   OH252360   0.294   1.334   3.742 -0.1456  0.0673  0.1814
10290TIP3    H152361   0.340   1.252   3.721  1.8931  1.0573  0.4659
10290TIP3    H252362   0.282   1.377   3.658 -0.6198 -0.2153  0.1010
10291TIP3   OH252363   1.395   2.832  14.989 -0.6008  0.1800  0.6593
10291TIP3    H152364   1.384   2.860  14.899 -2.0929 -0.7669  0.5122
10291TIP3    H252365   1.392   2.736  14.985 -1.7797  0.1435  1.8193
10292TIP3   OH252366   0.038   5.143  10.507  0.0326 -0.8684  0.0273
10292TIP3    H152367   0.089   5.192  10.443 -1.4631  0.8765  0.0824
10292TIP3    H252368  -0.001   5.209  10.563 -4.1811 -1.7446 -1.4208
10293TIP3   OH252369   1.726   6.540  14.305  0.3584  0.5236  0.2353
10293TIP3    H152370   1.815   6.518  14.276 -0.7112 -0.3742 -2.7724
10293TIP3    H252371   1.736   6.621  14.355  3.0739 -0.6899  1.8752
10294TIP3   OH252372   5.339   1.907  15.353  0.3216  1.0489  0.1098
10294TIP3    H152373   5.293   1.824  15.345  0.7025  0.9035 -0.6288
10294TIP3    H252374   5.376   1.923  15.266  0.2241  2.0063  0.2350
10295TIP3   OH252375   6.198   4.380   0.544 -0.2983  0.3851 -0.2890
10295TIP3    H152376   6.147   4.340   0.614  0.6662  1.4069  1.0702
10295TIP3    H252377   6.244   4.307   0.503 -0.5017 -0.1851  0.4775
10296TIP3   OH252378   4.898   1.400   0.732 -0.0750 -0.2310 -0.5575
10296TIP3    H152379   4.913   1.495   0.730 -0.3191 -0.1686  0.3420
10296TIP3    H252380   4.824   1.388   0.791  0.1729 -1.0128 -0.3896
10297TIP3   OH252381   1.731   4.123  10.678  0.0602  0.0758 -0.3323
10297TIP3    H152382   1.650   4.072  10.689  1.1719 -1.5434  0.7818
10297TIP3    H252383   1.800   4.057  10.681  1.5166  1.5878  0.2850
10298TIP3   OH252384   6.691   3.913   1.448 -0.5637 -0.0278 -0.1680
10298TIP3    H152385   6.771   3.882   1.491 -0.7612 -0.9053 -0.4161
10298TIP3    H252386   6.620   3.870   1.496 -0.8291 -0.2580 -0.7627
10299TIP3   OH252387   3.714   6.876   1.734 -0.3069  0.0947  0.0529
10299TIP3    H152388   3.689   6.946   1.794 -1.2179  0.9009 -1.2271
10299TIP3    H252389   3.648   6.808   1.747 -0.4443  0.2252  0.0394
10300TIP3   OH252390   6.352   5.192  12.052  0.2003  0.4420 -0.1819
10300TIP3    H152391   6.373   5.099  12.051 -3.1070 -0.4766  1.1018
10300TIP3    H252392   6.437   5.236  12.056  1.8649 -2.4904 -0.5824
10301TIP3   OH252393   2.215   4.467  12.675  0.3817 -0.0180  0.0918
10301TIP3    H152394   2.209   4.518  12.756 -0.4530 -0.5691  0.3855
10301TIP3    H252395   2.182   4.381  12.699  1.1681 -0.5071 -0.5693
10302TIP3   OH252396   1.097   6.375   2.194 -0.9163 -0.2403 -0.0318
10302TIP3    H152397   1.029   6.443   2.193 -1.5770 -0.8667  0.7810
10302TIP3    H252398   1.072   6.318   2.266  0.4635 -0.5208  0.2425
10303TIP3   OH252399   4.952   1.104  14.025 -0.5162 -0.2949 -0.3465
10303TIP3    H152400   4.973   1.161  13.952  0.2547 -0.0772  0.0375
10303TIP3    H252401   4.890   1.154  14.078  0.1319  0.1821 -0.0274
10304TIP3   OH252402   4.103   4.687  15.170  0.0431  0.3074 -0.0945
10304TIP3    H152403   4.046   4.611  15.177  2.0960 -1.4617 -1.3747
10304TIP3    H252404   4.057   4.745  15.109 -2.0118  0.6361  1.6503
10305TIP3   OH252405   5.919   4.568  12.466 -0.2919  0.5347  0.0560
10305TIP3    H152406   5.932   4.662  12.471  2.3766  0.2645 -0.2871
10305TIP3    H252407   5.930   4.537  12.556  0.5479  0.3964 -0.0884
10306TIP3   OH252408   4.133   3.922  14.616  0.3999  0.1499  0.0275
10306TIP3    H152409   4.109   3.952  14.529 -1.8479 -1.1433  0.1154
10306TIP3    H252410   4.058   3.947  14.671  0.0855 -2.2132  0.8070
10307TIP3   OH252411   0.060   6.689  12.409 -0.5634  0.7493  0.0314
10307TIP3    H152412  -0.012   6.666  12.351  0.3263  3.3957 -2.3957
10307TIP3    H252413   0.115   6.611  12.411 -2.1913 -0.4424 -0.1350
10308TIP3   OH252414   1.174   2.266  15.212 -0.3079  0.6656 -0.1463
10308TIP3    H152415   1.254   2.214  15.203  0.0472  0.6706  2.2952
10308TIP3    H252416   1.103   2.204  15.195  0.1569 -0.2911  1.2337
10309TIP3   OH252417   4.574   4.773  16.120 -0.3108  0.1039  0.0894
10309TIP3    H152418   4.497   4.724  16.149 -1.0305  0.9117 -0.4224
10309TIP3    H252419   4.608   4.813  16.200 -1.1303  0.7152  0.1431
10310TIP3   OH252420   5.816   6.245  10.882  0.0236  0.0330 -0.1825
10310TIP3    H152421   5.731   6.245  10.838 -0.3636 -1.0857  0.5090
10310TIP3    H252422   5.829   6.335  10.910  0.2695  0.7906 -2.4986
10311TIP3   OH252423   6.785   6.684   5.699 -0.1386 -0.1294  0.3824
10311TIP3    H152424   6.879   6.686   5.683 -0.2466  0.0036 -0.2510
10311TIP3    H252425   6.746   6.671   5.613 -0.6841 -0.6373  0.6959
10312TIP3   OH252426   2.990   0.207   3.199 -0.3865 -0.0939 -0.4185
10312TIP3    H152427   3.065   0.158   3.234 -0.7983 -0.7917 -0.4888
10312TIP3    H252428   2.918   0.183   3.257 -0.7272 -0.0437 -0.8189
10313TIP3   OH252429   2.013   3.943  13.308  0.3720  0.0233  0.5228
10313TIP3    H152430   2.066   3.988  13.374  1.0304 -0.7365  0.5355
10313TIP3    H252431   2.007   3.853  13.340 -0.3086 -0.0741  0.1380
10314TIP3   OH252432   4.153   0.994  16.807  0.0592  0.3640  0.5420
10314TIP3    H152433   4.098   0.933  16.758  1.4778 -0.3555 -0.2559
10314TIP3    H252434   4.106   1.077  16.805 -0.2214  0.2147 -1.5857
10315TIP3   OH252435   2.181   2.776  16.427 -0.1064  0.4255  0.2321
10315TIP3    H152436   2.267   2.787  16.468 -0.0243 -1.4267  0.6604
10315TIP3    H252437   2.124   2.748  16.499 -0.4809 -0.7231 -0.4942
10316TIP3   OH252438   0.183   1.107  15.285 -0.7391 -0.0719  0.1673
10316TIP3    H152439   0.258   1.085  15.339  0.0302  1.2103 -0.3329
10316TIP3    H252440   0.136   1.024  15.273  0.8453 -0.9891  0.1108
10317TIP3   OH252441   2.439   5.497   1.442 -0.3135 -0.9309  0.6582
10317TIP3    H152442   2.365   5.530   1.390 -0.4459 -0.2845  1.2363
10317TIP3    H252443   2.445   5.558   1.516 -0.2380 -1.9244  1.4925
10318TIP3   OH252444   5.105   4.422   2.023 -0.1946  0.5994 -0.6829
10318TIP3    H152445   5.069   4.458   1.942 -1.0702 -2.2254 -1.6753
10318TIP3    H252446   5.029   4.416   2.082 -0.1332  0.1222 -0.6474
10319TIP3   OH252447   2.472   2.278   3.170  0.3344 -0.0558 -0.1990
10319TIP3    H152448   2.394   2.231   3.141 -1.2397  1.1123  1.8341
10319TIP3    H252449   2.545   2.227   3.136 -1.1994  0.0321 -4.2611
10320TIP3   OH252450   5.936   2.687  13.192 -0.6039  0.1822 -0.2029
10320TIP3    H152451   5.989   2.746  13.245 -0.2038 -2.4523  2.5823
10320TIP3    H252452   5.992   2.665  13.117  1.4285 -0.8073  1.5145
10321TIP3   OH252453   3.921   6.714   4.760 -0.0160 -0.1791  0.8765
10321TIP3    H152454   4.005   6.715   4.714 -1.2364  2.1631 -1.5935
10321TIP3    H252455   3.935   6.769   4.837  0.8483 -0.2520  0.7812
10322TIP3   OH252456   2.330   5.008   4.489  0.2664  0.0570  0.3812
10322TIP3    H152457   2.283   5.070   4.545 -1.3948 -0.2051 -0.6679
10322TIP3    H252458   2.394   5.062   4.442 -0.9951  0.9805 -0.3441
10323TIP3   OH252459   3.400   5.333  13.361 -0.0359 -0.2454 -0.2542
10323TIP3    H152460   3.410   5.346  13.267 -1.9486 -1.6824 -0.7230
10323TIP3    H252461   3.454   5.257  13.381  1.4055  0.8212  0.1208
10324TIP3   OH252462   3.629   1.077  12.239 -0.2612 -0.1662  0.0335
10324TIP3    H152463   3.692   1.131  12.192  0.2517  0.1182  1.0033
10324TIP3    H252464   3.555   1.136  12.256  0.4131  0.3482  1.3295
10325TIP3   OH252465   4.796   1.449  14.854  0.1456 -0.7382  0.1887
10325TIP3    H152466   4.890   1.434  14.858 -0.1221 -3.0156 -0.6204
10325TIP3    H252467   4.787   1.529  14.802  1.6186 -0.1250  0.8102
10326TIP3   OH252468   5.165   0.887  11.833 -0.1527 -0.1346 -0.7799
10326TIP3    H152469   5.171   0.792  11.843  0.8529 -0.0049 -0.0183
10326TIP3    H252470   5.255   0.916  11.823 -0.2731  0.9048  0.7399
10327TIP3   OH252471   0.314   1.299   4.187  1.0896  0.1651 -0.2087
10327TIP3    H152472   0.293   1.205   4.191 -1.7774  0.7114  0.1387
10327TIP3    H252473   0.377   1.313   4.258  1.8935 -1.5397 -0.5303
10328TIP3   OH252474   4.037   2.588  12.453 -0.5408 -0.1986  0.7541
10328TIP3    H152475   4.057   2.657  12.390 -0.4855  1.2413  2.2753
10328TIP3    H252476   3.943   2.593  12.467 -0.4443  0.0142  1.3556
10329TIP3   OH252477   0.067   0.584   5.274  0.1089  0.1763 -0.0784
10329TIP3    H152478   0.102   0.671   5.289  1.2294 -0.1684 -0.5685
10329TIP3    H252479   0.080   0.568   5.181 -2.3334  0.4156 -0.5326
10330TIP3   OH252480   6.501   2.143   2.642  0.1234  0.5477  0.2851
10330TIP3    H152481   6.532   2.164   2.554  2.2926  0.4786  0.9766
10330TIP3    H252482   6.409   2.117   2.629  1.1838 -2.7007 -2.4875
10331TIP3   OH252483   1.270   1.947  12.503  0.5945 -0.1048  0.4300
10331TIP3    H152484   1.202   1.992  12.553 -1.0535 -3.0419  1.0564
10331TIP3    H252485   1.347   1.948  12.560  0.9011  2.4120  0.1063
10332TIP3   OH252486   3.608   5.792   0.597 -0.3012 -0.2096 -0.8420
10332TIP3    H152487   3.641   5.827   0.679 -3.2544  0.6009  0.1449
10332TIP3    H252488   3.652   5.843   0.529  2.1763 -0.8681  0.1674
10333TIP3   OH252489   0.656   1.641   1.465 -0.0101  0.2969 -0.3478
10333TIP3    H152490   0.651   1.710   1.530 -0.8302  0.4778 -0.5950
10333TIP3    H252491   0.750   1.628   1.451  0.1600  1.6918 -0.6479
10334TIP3   OH252492   3.255   1.979  15.231  0.5136  0.0778  0.5729
10334TIP3    H152493   3.289   1.964  15.319 -0.0351 -1.0697  0.6139
10334TIP3    H252494   3.165   2.010  15.246  0.5083  0.1308  0.4248
10335TIP3   OH252495   5.047   3.121   0.373 -0.0510 -0.1276 -0.2203
10335TIP3    H152496   5.010   3.209   0.371 -0.2445 -0.2097 -0.2345
10335TIP3    H252497   5.055   3.096   0.280  0.0376 -0.1103 -0.2172
10336TIP3   OH252498   4.491   3.987   5.257 -0.4779 -0.3106  0.2907
10336TIP3    H152499   4.469   4.074   5.290 -2.3176 -0.5732 -0.1503
10336TIP3    H252500   4.507   3.935   5.336 -2.5801 -0.3561  0.7352
10337TIP3   OH252501   6.271   0.526   4.940  0.9126 -0.1762  0.1163
10337TIP3    H152502   6.319   0.562   5.015 -0.6656 -0.4887  1.3388
10337TIP3    H252503   6.268   0.598   4.876  1.5931  0.3728  0.6890
10338TIP3   OH252504   1.564   5.897   3.721  0.1863  0.4459 -0.4330
10338TIP3    H152505   1.564   5.954   3.798  0.8562 -0.4324  0.2378
10338TIP3    H252506   1.472   5.877   3.706  0.0918  0.1718  0.4893
10339TIP3   OH252507   2.292   4.363   6.485  0.1916  0.0558  0.6147
10339TIP3    H152508   2.351   4.314   6.429  0.5828 -0.0158  1.0818
10339TIP3    H252509   2.281   4.447   6.440 -0.6464 -0.5276 -0.2860
10340TIP3   OH252510   4.260   4.542  10.734 -0.2952  0.1330 -0.6709
10340TIP3    H152511   4.239   4.513  10.645  0.2465 -0.1718 -0.7069
10340TIP3    H252512   4.175   4.554  10.777 -0.5726  0.7033 -1.3589
10341TIP3   OH252513   1.904   1.804   0.253  0.2344 -0.2891 -0.2192
10341TIP3    H152514   1.893   1.709   0.243 -2.8289  0.0320 -0.5513
10341TIP3    H252515   1.937   1.833   0.168 -1.3494 -0.7698 -1.0349
10342TIP3   OH252516   0.310   1.502  13.744 -0.1519  0.5407  0.4224
10342TIP3    H152517   0.217   1.478  13.746 -0.2913  1.0129 -0.0562
10342TIP3    H252518   0.320   1.563  13.817  0.2268 -1.0131  1.7050
10343TIP3   OH252519   0.542   2.778   4.043  0.4373 -0.2364  0.1640
10343TIP3    H152520   0.455   2.750   4.071  0.7405  0.8041  2.4462
10343TIP3    H252521   0.547   2.870   4.070  1.6291  0.2299 -1.5243
10344TIP3   OH252522   3.962   1.980  10.013 -0.5209  0.1693  0.1433
10344TIP3    H152523   3.940   2.071  10.032 -1.6205 -0.3047  1.2785
10344TIP3    H252524   4.049   1.968  10.051  0.3645  1.1408 -1.4190
10345TIP3   OH252525   4.283   3.798   0.991 -0.2767  0.2721 -0.0687
10345TIP3    H152526   4.351   3.859   1.020  0.1337  0.0048 -0.4757
10345TIP3    H252527   4.328   3.715   0.977 -0.8530 -0.1614  0.5722
10346TIP3   OH252528   5.627   3.019  11.705 -0.5156  0.1039  0.0566
10346TIP3    H152529   5.717   3.022  11.673 -0.3852  1.8305  0.4628
10346TIP3    H252530   5.625   3.082  11.777 -2.1526  0.4836 -0.2695
10347TIP3   OH252531   1.738   6.377   4.630 -0.7682 -0.1786 -0.2018
10347TIP3    H152532   1.686   6.453   4.657  0.4449  0.0959  1.5454
10347TIP3    H252533   1.793   6.409   4.559  2.2995  1.7677  2.7503
10348TIP3   OH252534   4.311   1.362   5.221 -0.0655  0.4338  0.0234
10348TIP3    H152535   4.341   1.340   5.309 -1.1026  0.4250  0.3889
10348TIP3    H252536   4.377   1.423   5.187  0.9487 -0.4647  0.3564
10349TIP3   OH252537   5.772   2.783   1.868 -0.2331 -0.1337  0.1161
10349TIP3    H152538   5.834   2.710   1.862 -1.1274 -0.9778  0.9010
10349TIP3    H252539   5.686   2.743   1.855 -0.7699  0.7295  0.9058
10350TIP3   OH252540   0.658   2.955  15.704 -0.1449 -0.0280  0.6225
10350TIP3    H152541   0.628   2.888  15.643 -1.4347  1.5478 -0.5463
10350TIP3    H252542   0.577   2.992  15.740  0.5678  0.2163  2.0343
10351TIP3   OH252543   0.843   4.457   1.008 -0.2013  1.3719 -0.0842
10351TIP3    H152544   0.795   4.434   1.087 -0.4244  0.6322 -0.4274
10351TIP3    H252545   0.807   4.400   0.940  1.1407  0.8060 -0.3601
10352TIP3   OH252546   3.120   4.465   0.507  0.5251  0.1522  0.1727
10352TIP3    H152547   3.118   4.384   0.557  0.9234 -0.6549 -1.0646
10352TIP3    H252548   3.032   4.474   0.472  0.5875  0.0248 -0.0216
10353TIP3   OH252549   3.560   6.028   2.546 -0.4543 -0.2668 -0.1045
10353TIP3    H152550   3.478   5.981   2.557 -0.5634 -0.0120  0.1991
10353TIP3    H252551   3.570   6.078   2.627 -1.1129  1.4026 -1.0029
10354TIP3   OH252552   4.245   1.059  15.930  0.1916  0.9836 -0.4318
10354TIP3    H152553   4.232   1.015  15.846 -1.4290 -1.8437  1.1326
10354TIP3    H252554   4.329   1.103  15.922  1.7915 -2.0948 -2.3843
10355TIP3   OH252555   3.789   2.338   3.251  0.2092 -0.5978  0.0849
10355TIP3    H152556   3.884   2.340   3.265  0.1710  0.5761  0.2152
10355TIP3    H252557   3.765   2.247   3.268  1.1754 -0.7039  0.9663
10356TIP3   OH252558   3.439   1.128  13.687 -0.4482  0.1370  0.0160
10356TIP3    H152559   3.424   1.155  13.596  0.1536 -1.1780 -0.5095
10356TIP3    H252560   3.369   1.066  13.705  0.4676 -0.9864 -0.1886
10357TIP3   OH252561   4.804   6.531  13.140 -0.3834 -0.8505 -0.0121
10357TIP3    H152562   4.761   6.518  13.224  0.2866 -1.8635  0.1937
10357TIP3    H252563   4.888   6.570  13.161 -0.5787 -0.2660 -0.2927
10358TIP3   OH252564   4.238   3.994  11.434 -0.2217 -0.2154 -0.1583
10358TIP3    H152565   4.276   3.939  11.503  0.3949  0.5458  0.1235
10358TIP3    H252566   4.152   4.018  11.468 -0.5613 -1.1153 -0.3497
10359TIP3   OH252567   3.033   1.101  11.075  0.5339  0.1555  0.2966
10359TIP3    H152568   3.033   1.091  10.980  2.1311 -0.4908  0.3402
10359TIP3    H252569   3.023   1.012  11.109  0.0802  0.3691  0.7475
10360TIP3   OH252570   0.373   1.674  13.998 -0.7884  0.5454 -0.0535
10360TIP3    H152571   0.360   1.618  14.074  2.4687  0.8317  0.8841
10360TIP3    H252572   0.317   1.750  14.014 -1.0039  0.0955  1.4990
10361TIP3   OH252573   1.575   1.586   5.363  0.1429 -0.2276 -0.1296
10361TIP3    H152574   1.608   1.514   5.417  1.1398 -0.0642 -0.5116
10361TIP3    H252575   1.581   1.553   5.273  0.9369  0.4654 -0.3332
10362TIP3   OH252576   2.342   1.831  12.988 -0.4831  0.7339  0.3983
10362TIP3    H152577   2.328   1.901  13.051 -0.8443 -0.1230  1.2939
10362TIP3    H252578   2.437   1.832  12.972 -0.5657  1.8315 -0.1051
10363TIP3   OH252579   5.518   6.652  13.495 -0.6139  0.3499 -0.6189
10363TIP3    H152580   5.523   6.562  13.528 -0.3826  0.6888  0.2959
10363TIP3    H252581   5.452   6.648  13.426  0.0142 -0.6972 -1.2024
10364TIP3   OH252582   3.830   1.990  10.903  0.5230  0.5801  0.2741
10364TIP3    H152583   3.823   1.933  10.979  2.4775  0.1800  0.2128
10364TIP3    H252584   3.741   2.022  10.888 -0.4113 -1.5241  1.0126
10365TIP3   OH252585   2.268   1.632   5.933  0.0415  0.4505  0.2051
10365TIP3    H152586   2.261   1.540   5.959  1.5749  0.1554 -0.3498
10365TIP3    H252587   2.256   1.680   6.014 -0.3785 -0.2396  0.5687
10366TIP3   OH252588   4.128   4.863   0.880  0.0761 -0.2013 -0.1817
10366TIP3    H152589   4.034   4.847   0.871 -0.1544  1.2408 -0.4965
10366TIP3    H252590   4.163   4.778   0.906 -1.2301 -0.9125 -0.5960
10367TIP3   OH252591   2.354   2.842  15.840  0.2987 -0.4619 -0.2417
10367TIP3    H152592   2.411   2.912  15.872 -0.4942  0.1174 -0.0784
10367TIP3    H252593   2.279   2.842  15.900 -0.0583 -0.9659 -0.6789
10368TIP3   OH252594   2.126   0.898  16.528 -0.1207 -0.2126  0.1786
10368TIP3    H152595   2.145   0.914  16.435 -0.4395 -1.5670 -0.1365
10368TIP3    H252596   2.090   0.981  16.559 -0.7183  0.0371 -1.1069
10369TIP3   OH252597   1.418   4.042   3.762  0.3388  0.1706 -0.3103
10369TIP3    H152598   1.396   4.058   3.671 -0.0421  1.1457 -0.0578
10369TIP3    H252599   1.481   4.110   3.784 -0.4562  0.6759  0.4750
10370TIP3   OH252600   0.128   2.399  16.803 -0.1938  0.0325  0.3446
10370TIP3    H152601   0.212   2.445  16.806  0.4077 -0.9668 -0.6426
10370TIP3    H252602   0.151   2.307  16.799 -1.3899 -0.4974  3.3555
10371TIP3   OH252603   2.897   6.358   6.106 -0.3300 -0.2575 -0.1660
10371TIP3    H152604   2.833   6.287   6.113  1.9068 -2.4906 -0.9128
10371TIP3    H252605   2.919   6.379   6.197 -1.0387 -0.4787  0.0666
10372TIP3   OH252606   5.705   4.594   1.274  0.1412 -0.0099 -0.1620
10372TIP3    H152607   5.696   4.578   1.368 -1.5874  0.6618 -0.1930
10372TIP3    H252608   5.678   4.512   1.233  1.8398 -0.6523 -0.0982
10373TIP3   OH252609   1.452   3.435   1.564 -0.0491  0.2671  0.4578
10373TIP3    H152610   1.508   3.505   1.599 -0.9682  1.9732 -1.2580
10373TIP3    H252611   1.480   3.426   1.473  0.1476 -1.7823  0.6792
10374TIP3   OH252612   3.717   5.034   4.578  0.0438 -0.3741  0.2220
10374TIP3    H152613   3.658   5.009   4.648 -1.7966  1.3283 -0.6398
10374TIP3    H252614   3.768   5.106   4.614 -1.1615  0.7508 -0.2507
10375TIP3   OH252615   5.529   0.256   5.497 -0.1076 -0.3955 -0.2028
10375TIP3    H152616   5.558   0.329   5.442 -0.1022 -0.8900 -0.8675
10375TIP3    H252617   5.444   0.284   5.531 -0.3235 -0.2786 -0.8382
10376TIP3   OH252618   4.469   0.835   4.197  0.1509 -0.7444  0.3879
10376TIP3    H152619   4.465   0.930   4.182  1.3921 -0.1969  2.9868
10376TIP3    H252620   4.386   0.802   4.161 -0.7477  1.4646  0.2608
10377TIP3   OH252621   0.850   2.646   3.450 -0.4184  0.0752  0.0149
10377TIP3    H152622   0.772   2.702   3.452 -0.8538 -0.2823 -2.6403
10377TIP3    H252623   0.917   2.700   3.407  1.1157  0.6278  2.8750
10378TIP3   OH252624   3.209   4.479   5.189 -0.2086 -0.0271 -0.6645
10378TIP3    H152625   3.254   4.558   5.219  0.4518 -0.8737  0.6949
10378TIP3    H252626   3.168   4.444   5.268 -0.9250 -0.7734 -1.3483
10379TIP3   OH252627   4.335   0.510  13.946  0.0135  0.1905  0.1919
10379TIP3    H152628   4.377   0.595  13.960  0.2315  0.2463 -0.7564
10379TIP3    H252629   4.402   0.458  13.902 -0.0033 -0.5904  1.0579
10380TIP3   OH252630   1.901   1.170  16.746  0.1401  0.2322 -0.3340
10380TIP3    H152631   1.881   1.254  16.787 -0.1458 -0.5633  1.2553
10380TIP3    H252632   1.988   1.147  16.777 -0.0182 -0.3255 -0.2835
10381TIP3   OH252633   0.589   2.142  14.445 -0.3992 -0.3716  0.3971
10381TIP3    H152634   0.625   2.088  14.375 -2.0253  0.1636 -0.9001
10381TIP3    H252635   0.496   2.119  14.448 -0.8876  1.4938  0.6202
10382TIP3   OH252636   6.314   4.963   4.339 -0.4910 -0.4202 -0.8131
10382TIP3    H152637   6.347   4.977   4.250  1.4666 -0.8578 -0.1994
10382TIP3    H252638   6.289   4.871   4.341 -0.0332 -0.5436 -0.7558
10383TIP3   OH252639   2.349   0.528   4.008  0.4946  0.3900 -0.5116
10383TIP3    H152640   2.259   0.543   3.979 -0.0955 -0.5686  0.7456
10383TIP3    H252641   2.373   0.443   3.970 -0.4057 -1.0426  1.9406
10384TIP3   OH252642   2.476   1.950   3.004  0.1787 -0.0939  0.0728
10384TIP3    H152643   2.557   1.989   2.971  0.4188 -0.2752  0.4368
10384TIP3    H252644   2.422   1.937   2.926  0.9315 -0.9851 -0.3302
10385TIP3   OH252645   6.530   2.493   4.475  0.1736  0.1288 -0.0494
10385TIP3    H152646   6.492   2.548   4.406  0.8813  0.7887  0.0650
10385TIP3    H252647   6.511   2.541   4.556  2.1127  1.0286 -0.0732
10386TIP3   OH252648   1.185   4.237   3.669 -0.3230  0.0335  0.1663
10386TIP3    H152649   1.177   4.202   3.580  0.6662 -0.5736  0.3124
10386TIP3    H252650   1.185   4.160   3.726 -0.7728  0.4107  0.6883
10387TIP3   OH252651   6.712   0.681  16.231  0.1692  0.0098  0.3304
10387TIP3    H152652   6.671   0.595  16.243  0.1652 -0.0301  0.0400
10387TIP3    H252653   6.660   0.723  16.162  0.5455  0.0062  0.0399
10388TIP3   OH252654   1.057   1.449  10.355 -0.3474  0.0412  0.4517
10388TIP3    H152655   1.094   1.422  10.439 -1.6838 -2.4034  0.3304
10388TIP3    H252656   1.121   1.512  10.321  0.7369  0.3375  2.8037
10389TIP3   OH252657   1.113   4.181  13.063 -0.4380 -0.2472 -0.2703
10389TIP3    H152658   1.081   4.135  13.140 -0.1965  0.5364  0.3099
10389TIP3    H252659   1.165   4.254  13.098  1.7095 -1.2639 -1.1740
10390TIP3   OH252660   2.141   6.005   1.664 -0.6377 -0.6109  0.1935
10390TIP3    H152661   2.155   5.947   1.739 -2.1066  0.1662  1.1400
10390TIP3    H252662   2.148   6.093   1.702  1.6028 -0.1140 -1.2101
10391TIP3   OH252663   1.057   4.471   5.099 -0.4335  0.8789  0.6210
10391TIP3    H152664   1.021   4.383   5.110  1.8710 -0.1069  0.8823
10391TIP3    H252665   1.049   4.490   5.006  1.9026 -1.0301 -0.0657
10392TIP3   OH252666   2.921   3.643  12.376 -0.2637 -0.2028  0.3623
10392TIP3    H152667   2.861   3.691  12.432 -1.2000  0.5890 -1.2604
10392TIP3    H252668   2.958   3.709  12.317  1.9291 -0.7311  1.0536
10393TIP3   OH252669   5.411   0.867   6.316 -0.2300 -0.5820 -0.3186
10393TIP3    H152670   5.448   0.807   6.251  0.5012 -0.5575  0.0643
10393TIP3    H252671   5.365   0.811   6.378  1.3362 -0.8741  0.6258
10394TIP3   OH252672   0.978   5.203   3.517 -0.5830  0.3126  0.2937
10394TIP3    H152673   0.964   5.255   3.437 -0.6968 -0.3597 -0.1299
10394TIP3    H252674   0.941   5.118   3.496 -1.0328  0.2691  1.2370
10395TIP3   OH252675   4.657   5.210  12.678 -0.0612 -0.0389 -0.3560
10395TIP3    H152676   4.665   5.191  12.584  1.4187 -2.0568  0.1158
10395TIP3    H252677   4.637   5.303  12.681 -0.1251  0.0957 -2.6800
10396TIP3   OH252678   4.326   3.584  11.046 -0.2959  0.3247 -0.0772
10396TIP3    H152679   4.239   3.589  11.007 -0.5545  0.0957  0.4654
10396TIP3    H252680   4.377   3.649  10.998 -0.6853  0.2617 -0.5933
10397TIP3   OH252681   6.220   2.064  16.672  0.4164 -0.0252  0.2932
10397TIP3    H152682   6.257   2.143  16.711 -0.2767  0.5415 -0.1696
10397TIP3    H252683   6.130   2.087  16.651  0.0409 -1.1065  0.6165
10398TIP3   OH252684   1.777   2.352   2.539  0.3675 -0.6882  0.3557
10398TIP3    H152685   1.735   2.431   2.573  1.6313 -0.0717  0.5277
10398TIP3    H252686   1.791   2.370   2.446 -2.8372 -2.2688 -0.5948
10399TIP3   OH252687   4.528   3.524   6.101 -0.0133 -0.0336 -0.3520
10399TIP3    H152688   4.585   3.592   6.064  0.8033 -0.6745 -0.3046
10399TIP3    H252689   4.544   3.528   6.195 -1.3539  0.9332 -0.1425
10400TIP3   OH252690   4.187   1.623  14.721 -0.5066  0.0765  1.0467
10400TIP3    H152691   4.178   1.583  14.807 -1.2837  0.3840  1.1097
10400TIP3    H252692   4.275   1.598  14.693 -0.9870 -1.7495  1.0396
10401TIP3   OH252693   3.152   3.123  12.814  0.0299 -0.0078  0.3139
10401TIP3    H152694   3.160   3.032  12.843 -0.9091 -0.2190 -0.0242
10401TIP3    H252695   3.085   3.161  12.872 -1.1173 -0.1454 -0.8617
10402TIP3   OH252696   1.380   0.315  14.417  0.7271  0.4997 -0.0306
10402TIP3    H152697   1.389   0.387  14.479 -0.0319  0.6774 -0.1189
10402TIP3    H252698   1.327   0.350  14.346  0.3636 -0.1265 -0.0833
10403TIP3   OH252699   5.019   2.455   2.467  0.4383  0.1540 -0.3648
10403TIP3    H152700   5.086   2.489   2.408  0.7260  2.8500  1.3564
10403TIP3    H252701   4.946   2.516   2.458 -0.6318 -1.0098  0.0243
10404TIP3   OH252702   3.259   1.000   5.164 -0.1997 -1.1075  0.0942
10404TIP3    H152703   3.330   0.943   5.137 -0.6835 -0.4958 -2.7608
10404TIP3    H252704   3.179   0.950   5.145 -0.5798 -0.3503 -0.3559
10405TIP3   OH252705   0.524   6.802   1.224  0.4616 -0.2680  0.3254
10405TIP3    H152706   0.474   6.723   1.240 -0.0459 -0.3708 -1.5333
10405TIP3    H252707   0.615   6.772   1.217  0.3518 -0.5903  0.2710
10406TIP3   OH252708   3.835   1.310   2.232  0.0346  0.0234  0.3177
10406TIP3    H152709   3.850   1.367   2.156  0.7903 -0.2465  0.2583
10406TIP3    H252710   3.771   1.358   2.285  0.4228  0.7935  0.1124
10407TIP3   OH252711   6.630   6.079  11.318  0.1400 -0.3365 -0.0760
10407TIP3    H152712   6.543   6.083  11.276  1.5559  0.2188 -3.2393
10407TIP3    H252713   6.660   6.170  11.319  1.5366 -0.7508 -1.0792
10408TIP3   OH252714   5.210   4.320   3.784  0.0535 -0.1263  0.0533
10408TIP3    H152715   5.128   4.364   3.807 -0.4135 -0.6185 -0.6020
10408TIP3    H252716   5.185   4.260   3.713  0.9085 -0.5536  0.1016
10409TIP3   OH252717   1.514   4.197   5.089  0.2608  0.6199  0.1180
10409TIP3    H152718   1.569   4.213   5.166  2.6332 -1.3509 -1.0174
10409TIP3    H252719   1.448   4.134   5.120 -1.3296  2.7797  1.4192
10410TIP3   OH252720   0.513   4.455   1.524 -0.6379  0.3781  0.5524
10410TIP3    H152721   0.608   4.460   1.534 -0.3171 -1.4608 -0.9533
10410TIP3    H252722   0.492   4.363   1.539 -1.8499  0.2864 -1.2921
10411TIP3   OH252723   3.819   4.728  14.393 -0.0139 -0.7308 -0.1936
10411TIP3    H152724   3.732   4.688  14.395  0.6282 -2.1998  0.1201
10411TIP3    H252725   3.860   4.690  14.315  0.5300 -0.4585 -0.0402
10412TIP3   OH252726   5.131   2.500   2.737  0.0473  0.5158 -0.1936
10412TIP3    H152727   5.189   2.447   2.792  0.8209  0.4011 -1.0952
10412TIP3    H252728   5.052   2.446   2.728  0.2480  0.1635  0.0992
10413TIP3   OH252729   1.127   4.604   1.507 -0.0256  1.2508  0.8335
10413TIP3    H152730   1.115   4.670   1.438  0.4841  0.4910 -0.0040
10413TIP3    H252731   1.218   4.575   1.497 -0.5838 -0.4382  0.4072
10414TIP3   OH252732   0.689   3.276  11.974 -0.0895  1.1209  0.2364
10414TIP3    H152733   0.605   3.267  11.928  1.1285  0.6940 -2.0338
10414TIP3    H252734   0.667   3.262  12.066 -2.5674  1.4541 -0.2211
10415TIP3   OH252735   3.813   4.759  14.832  0.0892 -0.0375 -0.2465
10415TIP3    H152736   3.770   4.755  14.747  1.1578 -3.7501 -0.7760
10415TIP3    H252737   3.901   4.724  14.817  0.6583  0.1342  2.2011
10416TIP3   OH252738   0.245   0.846  11.429 -0.0884 -0.1774  0.0059
10416TIP3    H152739   0.212   0.757  11.418  1.1367 -0.4725 -1.5897
10416TIP3    H252740   0.185   0.886  11.492 -2.2165 -1.2985 -1.2031
10417TIP3   OH252741   4.192   0.834  16.404 -0.4122 -0.1817 -0.1247
10417TIP3    H152742   4.223   0.919  16.435 -1.6219 -0.2759  1.4771
10417TIP3    H252743   4.113   0.853  16.355 -0.5127 -0.3582 -0.0323
10418TIP3   OH252744   2.334   6.415   6.588 -0.1856  0.1758  0.5713
10418TIP3    H152745   2.291   6.498   6.608  0.5166  0.5949  0.3780
10418TIP3    H252746   2.367   6.425   6.499  0.7471  0.0683  0.8884
10419TIP3   OH252747   4.707   3.741   2.634  0.3664 -0.3956 -0.4934
10419TIP3    H152748   4.648   3.792   2.579  0.8049 -0.2165 -0.8104
10419TIP3    H252749   4.778   3.715   2.575  0.6659 -0.4983 -0.0931
10420TIP3   OH252750   4.268   2.289   3.541  0.0513  0.2782 -0.2678
10420TIP3    H152751   4.226   2.368   3.507  0.6666  0.7589  0.0559
10420TIP3    H252752   4.355   2.319   3.569 -0.1224 -0.2661  0.9105
10421TIP3   OH252753   4.599   1.896   1.953  0.0245  0.0410 -0.1426
10421TIP3    H152754   4.633   1.905   2.042 -0.6160  1.8694 -0.0180
10421TIP3    H252755   4.640   1.968   1.904 -0.5196 -0.2287 -1.0232
10422TIP3   OH252756   2.747   2.257  15.872  0.1869  0.3062 -0.1835
10422TIP3    H152757   2.807   2.207  15.817  0.0309 -0.9875  0.7884
10422TIP3    H252758   2.660   2.225  15.847 -0.0128  0.9889 -0.4101
10423TIP3   OH252759   3.426   2.777   3.412  0.0323  0.3505 -0.2949
10423TIP3    H152760   3.501   2.823   3.451 -0.9040  1.2407  0.5368
10423TIP3    H252761   3.366   2.847   3.387 -0.7762 -0.3705 -0.4160
10424TIP3   OH252762   4.888   2.096   3.188 -0.3936 -0.0179  0.1599
10424TIP3    H152763   4.912   2.071   3.099  0.3803  1.2562 -0.0183
10424TIP3    H252764   4.793   2.086   3.191 -0.2816 -1.4958 -0.3218
10425TIP3   OH252765   0.732   3.456   5.084  0.5524  0.2575 -1.1052
10425TIP3    H152766   0.705   3.489   5.169  1.8573  0.8557 -0.9016
10425TIP3    H252767   0.674   3.380   5.068  0.5263 -0.0797  0.4628
10426TIP3   OH252768   4.960   5.968  11.031 -0.4370 -0.8536  0.5050
10426TIP3    H152769   4.949   5.911  10.954  0.1908  0.0516 -0.2678
10426TIP3    H252770   4.975   6.055  10.995 -1.8227 -0.0776  1.6805
10427TIP3   OH252771   0.835   4.602   4.372  0.6827  0.0614 -0.7662
10427TIP3    H152772   0.805   4.688   4.403  0.6272 -0.1811 -0.1153
10427TIP3    H252773   0.767   4.573   4.312 -0.8284 -0.7979  1.2324
10428TIP3   OH252774   0.566   4.899  12.257 -0.5167  0.2898  0.1835
10428TIP3    H152775   0.487   4.858  12.221 -1.0400  0.9015  0.6034
10428TIP3    H252776   0.588   4.969  12.196 -0.2584  0.0767  0.0311
10429TIP3   OH252777   3.040   0.501  16.086 -0.2365 -0.2638  0.1452
10429TIP3    H152778   2.996   0.586  16.079  0.3048  0.0611  0.6405
10429TIP3    H252779   3.129   0.516  16.054  0.3762 -0.2296  1.7631
10430TIP3   OH252780   1.429   5.437  15.674  0.4077 -0.0902  0.2159
10430TIP3    H152781   1.443   5.350  15.710 -1.2851  0.8633  3.5324
10430TIP3    H252782   1.490   5.493  15.721  0.4562  0.7516 -0.8077
10431TIP3   OH252783   6.099   5.230  12.152  0.4334 -0.2248 -0.0998
10431TIP3    H152784   6.102   5.183  12.236  0.9850 -1.3301 -0.7115
10431TIP3    H252785   6.185   5.215  12.113  0.2104  0.3373 -0.8277
10432TIP3   OH252786   3.039   0.281  12.227  0.2793  0.3097  0.2156
10432TIP3    H152787   3.070   0.247  12.144 -1.1584 -0.4476 -0.0335
10432TIP3    H252788   3.119   0.290  12.280  1.0186 -0.7279 -0.6792
10433TIP3   OH252789   4.360   0.637  15.485  0.6862 -0.1962  0.2322
10433TIP3    H152790   4.376   0.622  15.578  0.5546  1.0845  0.4732
10433TIP3    H252791   4.366   0.732  15.475  1.5337 -0.3795 -1.2234
10434TIP3   OH252792   4.097   6.183   3.811  0.2297 -0.2395  0.1286
10434TIP3    H152793   4.133   6.096   3.824  0.3082 -0.0250  1.5096
10434TIP3    H252794   4.032   6.192   3.881 -1.6184 -0.1406 -1.5125
10435TIP3   OH252795   5.735   3.867  13.665  0.2930  0.1920 -0.1793
10435TIP3    H152796   5.738   3.816  13.584  1.5095  1.6211 -1.0941
10435TIP3    H252797   5.646   3.903  13.668 -0.0897 -0.7278 -0.3086
10436TIP3   OH252798   2.574   4.980  16.081  0.2982 -0.3640  0.5061
10436TIP3    H152799   2.603   4.989  16.171  2.9532  1.0622 -0.4010
10436TIP3    H252800   2.488   4.939  16.088  0.1158  0.3109  3.6861
10437TIP3   OH252801   5.451   5.379   0.235 -0.3917  0.0967  0.4698
10437TIP3    H152802   5.366   5.335   0.245 -0.5705  0.4706  0.6313
10437TIP3    H252803   5.434   5.470   0.262  0.3080 -0.0655  1.5033
10438TIP3   OH252804   2.215   4.353   3.296 -0.2287 -0.1274  0.1115
10438TIP3    H152805   2.163   4.272   3.296 -1.5180  0.4255 -4.0227
10438TIP3    H252806   2.306   4.323   3.300 -0.6929 -1.4614  2.3150
10439TIP3   OH252807   4.726   3.701  15.619 -0.5725 -0.0815 -0.0467
10439TIP3    H152808   4.725   3.607  15.602 -1.2146 -0.3848  1.4882
10439TIP3    H252809   4.748   3.740  15.535  0.7397 -1.6381 -0.4865
10440TIP3   OH252810   1.122   1.697  16.385 -0.1438 -0.1684  0.3520
10440TIP3    H152811   1.153   1.636  16.318 -0.2449 -1.5533  1.4967
10440TIP3    H252812   1.061   1.645  16.438 -0.5587  1.0665  1.1250
10441TIP3   OH252813   0.649   1.628  12.016  0.1736 -0.0738 -0.1032
10441TIP3    H152814   0.671   1.583  12.097 -0.3177  0.6585  0.4548
10441TIP3    H252815   0.578   1.577  11.978 -0.3572  0.1914  0.5097
10442TIP3   OH252816   4.754   4.938  14.463 -0.3936 -0.1457  0.3114
10442TIP3    H152817   4.799   4.886  14.530  3.2695 -0.1566 -1.8885
10442TIP3    H252818   4.764   4.886  14.383  1.2817  2.7114 -1.4978
10443TIP3   OH252819   5.030   2.297   1.033  0.0905  0.3851 -0.1511
10443TIP3    H152820   4.984   2.230   1.084  1.2374  0.5973  1.2319
10443TIP3    H252821   5.058   2.252   0.954  1.5770 -1.0470  1.1311
10444TIP3   OH252822   5.570   1.666  14.783 -0.6776 -0.1669 -0.1778
10444TIP3    H152823   5.611   1.629  14.861  0.1376 -1.3899 -1.1518
10444TIP3    H252824   5.642   1.699  14.730 -1.3159  2.0512  0.2079
10445TIP3   OH252825   6.195   2.086   3.703  0.4274 -0.1190  0.0972
10445TIP3    H152826   6.249   2.048   3.633 -0.0843 -0.2087 -0.2599
10445TIP3    H252827   6.234   2.171   3.721 -1.0651  1.2163 -2.3281
10446TIP3   OH252828   3.541   3.928  13.024 -0.1136 -0.1531  0.2549
10446TIP3    H152829   3.605   3.961  13.086 -1.0186  0.8589  0.6762
10446TIP3    H252830   3.588   3.862  12.973  0.7985 -0.5987  1.6313
10447TIP3   OH252831   1.832   2.156  16.578 -0.5832  0.0302  0.4760
10447TIP3    H152832   1.758   2.110  16.617 -1.7175  1.5322  0.1597
10447TIP3    H252833   1.815   2.153  16.484  0.0482 -0.0810  0.3574
10448TIP3   OH252834   6.771   1.062   3.299  0.2353  0.0954  0.3132
10448TIP3    H152835   6.682   1.091   3.280  0.3804  0.4310  0.1538
10448TIP3    H252836   6.825   1.140   3.292  0.5438 -0.1020  0.4300
10449TIP3   OH252837   3.890   2.428   2.366  0.1461  0.3470  0.0793
10449TIP3    H152838   3.817   2.491   2.365  0.9278  1.4263 -3.2452
10449TIP3    H252839   3.962   2.477   2.405  0.6116  1.4830 -2.0349
10450TIP3   OH252840   0.497   0.515   2.923 -0.0516  0.5471  0.1698
10450TIP3    H152841   0.582   0.555   2.938  0.1315  0.0608  0.4487
10450TIP3    H252842   0.437   0.564   2.980  0.0867  0.7285  0.1596
10451TIP3   OH252843   1.802   1.331  14.747 -0.4625  0.0170 -0.2215
10451TIP3    H152844   1.741   1.280  14.694 -1.7629  0.6817  0.5730
10451TIP3    H252845   1.884   1.329  14.699 -1.1640 -0.7551 -1.4219
10452TIP3   OH252846   3.804   4.737  16.772  0.5301  0.4620 -0.1886
10452TIP3    H152847   3.894   4.728  16.804 -0.2337 -0.2549  1.8823
10452TIP3    H252848   3.751   4.751  16.851 -1.3935 -0.8180 -1.1783
10453TIP3   OH252849   3.666   2.821   2.371  0.2489 -0.3113  0.1156
10453TIP3    H152850   3.758   2.841   2.387 -0.0137  0.3892  0.8431
10453TIP3    H252851   3.620   2.862   2.444 -0.7980  0.7568 -1.0987
10454TIP3   OH252852   6.538   4.080  11.540 -0.0391  0.0066  0.4566
10454TIP3    H152853   6.459   4.027  11.531 -0.3747  0.6284 -0.4432
10454TIP3    H252854   6.609   4.016  11.547 -0.5452 -0.5582  0.5323
10455TIP3   OH252855   2.171   5.483  16.753  0.2891  0.7818 -0.2346
10455TIP3    H152856   2.130   5.427  16.687 -0.3174  0.0282  0.7531
10455TIP3    H252857   2.246   5.433  16.785  1.1490  1.5467 -1.0025
10456TIP3   OH252858   5.584   3.618  13.779  0.3176 -0.9238  0.0469
10456TIP3    H152859   5.569   3.696  13.832 -2.7226 -1.3542 -0.0111
10456TIP3    H252860   5.643   3.647  13.709 -1.7648  1.7526 -0.7665
10457TIP3   OH252861   4.887   4.081  15.751 -0.1728  0.2544  0.3351
10457TIP3    H152862   4.932   4.160  15.779 -1.9216  0.9931  1.2084
10457TIP3    H252863   4.957   4.016  15.741  1.2890  1.8740 -0.4015
10458TIP3   OH252864   5.947   5.572  15.123  0.0083 -0.6173  0.4909
10458TIP3    H152865   5.954   5.551  15.216 -0.7093 -1.1506  0.4379
10458TIP3    H252866   5.857   5.602  15.112  0.1961 -0.2134  0.0362
10459TIP3   OH252867   4.644   4.269  10.624  0.1454 -0.2781 -0.0480
10459TIP3    H152868   4.649   4.364  10.640  1.5838 -0.5959  1.6500
10459TIP3    H252869   4.722   4.250  10.572  0.8492 -0.7953  1.1774
10460TIP3   OH252870   2.366   1.372  10.952  0.6073 -0.1328 -0.4360
10460TIP3    H152871   2.433   1.305  10.965  1.5956  0.6379 -1.3634
10460TIP3    H252872   2.405   1.453  10.987  0.0157  0.2588 -0.6572
10461TIP3   OH252873   5.634   5.601  11.211  0.4862 -0.1473 -0.3441
10461TIP3    H152874   5.602   5.649  11.134 -0.0264 -0.6749 -0.4692
10461TIP3    H252875   5.645   5.668  11.278  1.7032  0.4414 -1.1067
10462TIP3   OH252876   3.563   1.137  12.684 -0.0366 -0.6412 -0.0526
10462TIP3    H152877   3.558   1.060  12.628  1.0155  0.4301 -1.7391
10462TIP3    H252878   3.646   1.127  12.731 -0.2706 -0.9025  0.3039
10463TIP3   OH252879   1.236   6.306   4.856  0.1200  0.2517 -0.0847
10463TIP3    H152880   1.328   6.328   4.841  0.0315  0.3999 -0.4177
10463TIP3    H252881   1.192   6.391   4.862 -0.3913  0.1991 -2.3812
10464TIP3   OH252882   6.728   5.449   2.928  0.1901  0.0444  0.7139
10464TIP3    H152883   6.749   5.441   3.021 -1.2759 -1.5226  0.9632
10464TIP3    H252884   6.774   5.375   2.887 -2.4870 -1.8461  0.8880
10465TIP3   OH252885   0.888   4.093  14.018 -0.3119  0.3421 -0.1503
10465TIP3    H152886   0.976   4.073  13.985 -0.2282 -1.6434  1.1123
10465TIP3    H252887   0.844   4.009  14.022 -1.3507  0.9098  1.7674
10466TIP3   OH252888   5.541   0.921  12.297  0.1954  0.0497  1.1760
10466TIP3    H152889   5.463   0.880  12.259 -0.8712  0.3102  2.9263
10466TIP3    H252890   5.512   1.008  12.323  0.8301 -0.1225  2.5631
10467TIP3   OH252891   4.667   2.971  14.494 -0.2904  0.0257  0.0540
10467TIP3    H152892   4.607   2.909  14.453 -0.2378  0.2690 -0.3997
10467TIP3    H252893   4.705   2.923  14.567 -0.5805 -0.3301 -0.0255
10468TIP3   OH252894   2.534   6.074  10.573  0.0450  0.7783 -0.7182
10468TIP3    H152895   2.581   5.997  10.606 -2.1530  0.4086  1.9588
10468TIP3    H252896   2.589   6.148  10.596  0.8951  0.1761 -0.7668
10469TIP3   OH252897   1.014   4.846   3.634 -0.8381 -0.2249  0.5129
10469TIP3    H152898   1.045   4.929   3.668  2.7330 -1.2263  0.0910
10469TIP3    H252899   1.010   4.788   3.710  1.1337 -0.7963  0.2466
10470TIP3   OH252900   5.602   5.057   1.995 -0.3752 -0.1136  0.1939
10470TIP3    H152901   5.516   5.016   1.984  0.8652 -3.6711  2.0446
10470TIP3    H252902   5.591   5.116   2.070 -1.0433 -1.1572  0.9327
10471TIP3   OH252903   3.780   1.710  15.022  0.5169 -0.2742 -0.2193
10471TIP3    H152904   3.837   1.736  14.950  1.1241 -1.2440 -0.1091
10471TIP3    H252905   3.835   1.655  15.077  0.4184  1.4137  1.6593
10472TIP3   OH252906   4.775   6.421  13.716 -0.0346 -0.3629  0.1190
10472TIP3    H152907   4.798   6.413  13.808 -0.1135 -0.6946  0.1115
10472TIP3    H252908   4.730   6.339  13.695 -0.6925  0.0278 -0.0197
10473TIP3   OH252909   3.136   6.479  10.562  0.0118  0.3122  0.0566
10473TIP3    H152910   3.128   6.465  10.467 -0.8056  4.4481 -0.6618
10473TIP3    H252911   3.053   6.446  10.597  0.1967 -0.9937 -0.6385
10474TIP3   OH252912   6.099   1.178   4.406  0.0805 -0.6970 -0.0399
10474TIP3    H152913   6.075   1.250   4.463  0.1920 -1.7193  1.3666
10474TIP3    H252914   6.040   1.185   4.331 -0.7911  0.0892  0.6932
10475TIP3   OH252915   5.140   3.161  10.516  0.7348  0.3937 -0.1481
10475TIP3    H152916   5.142   3.087  10.455  0.4110 -0.2061  0.5428
10475TIP3    H252917   5.078   3.223  10.478  1.6607  0.7169 -1.1766
10476TIP3   OH252918   6.467   6.537  16.298 -0.1498  0.3017 -0.5641
10476TIP3    H152919   6.383   6.580  16.286 -0.1055  0.1476 -1.5101
10476TIP3    H252920   6.451   6.445  16.274 -0.1805 -0.1765  1.1638
10477TIP3   OH252921   1.773   4.463  14.997  0.3906  0.0938 -0.4152
10477TIP3    H152922   1.822   4.531  15.043  0.6856 -1.3012  1.4427
10477TIP3    H252923   1.783   4.485  14.904  2.5325  1.1887  0.0108
10478TIP3   OH252924   4.703   0.838  13.892  0.8659  0.3312 -0.3144
10478TIP3    H152925   4.759   0.799  13.959  0.1129  1.0520  0.7727
10478TIP3    H252926   4.737   0.804  13.809  2.7157  0.5404  0.3211
10479TIP3   OH252927   4.973   2.207  15.972 -0.2596  0.0129  0.3123
10479TIP3    H152928   5.055   2.213  15.923  0.1578  1.3094  1.1012
10479TIP3    H252929   4.974   2.284  16.030 -2.5088  0.6675 -0.3896
10480TIP3   OH252930   1.995   4.050  15.360 -0.3376  0.5101  0.2274
10480TIP3    H152931   1.931   4.051  15.432  1.2671 -1.2062  1.7998
10480TIP3    H252932   2.079   4.032  15.403  1.0769  1.6922 -1.8708
10481TIP3   OH252933   5.155   2.812  16.491 -0.1054  0.1181  0.1371
10481TIP3    H152934   5.126   2.777  16.575 -0.2567 -0.7868 -0.2717
10481TIP3    H252935   5.110   2.896  16.482 -1.3587 -0.5236  0.2280
10482TIP3   OH252936   4.807   5.679   0.672  0.0291 -0.2650  0.1457
10482TIP3    H152937   4.879   5.702   0.731 -0.1791 -1.7358  1.0168
10482TIP3    H252938   4.729   5.706   0.719 -0.1180 -1.0941  0.3883
10483TIP3   OH252939   0.214   4.260  15.017 -0.5115 -0.1085 -0.1380
10483TIP3    H152940   0.176   4.336  15.060  0.1603 -0.0382  0.3553
10483TIP3    H252941   0.201   4.187  15.078 -1.5349 -0.4949 -0.7931
10484TIP3   OH252942   4.340   2.853   3.965 -0.0423 -0.2206  0.2108
10484TIP3    H152943   4.250   2.867   3.997  0.0112 -0.2431  0.3721
10484TIP3    H252944   4.375   2.942   3.953 -0.8861 -0.1493 -2.1583
10485TIP3   OH252945   3.274   3.011   4.076 -0.1751 -0.7526  0.0598
10485TIP3    H152946   3.274   3.100   4.041  1.2789 -0.1814  1.3854
10485TIP3    H252947   3.185   2.980   4.064 -0.6170  0.7580 -0.7431
10486TIP3   OH252948   2.728   1.201  11.354  0.2224 -0.0114 -0.4042
10486TIP3    H152949   2.752   1.109  11.358  1.7545  0.2629 -2.0677
10486TIP3    H252950   2.694   1.213  11.265  1.1432  1.2441 -0.6202
10487TIP3   OH252951   3.461   3.766   3.706  0.3212 -0.2949 -0.3511
10487TIP3    H152952   3.454   3.772   3.610  0.7416  0.4108 -0.3450
10487TIP3    H252953   3.395   3.827   3.738 -1.3506 -2.0876 -0.1285
10488TIP3   OH252954   5.109   3.322   3.272  0.4490 -0.1842 -0.3547
10488TIP3    H152955   5.049   3.362   3.208  0.1883  1.2863  0.7635
10488TIP3    H252956   5.062   3.325   3.355  1.5506 -0.2407  0.2956
10489TIP3   OH252957   3.492   0.270  15.176 -0.2847 -0.0301 -0.4070
10489TIP3    H152958   3.399   0.246  15.183 -0.2072  0.1163  1.6041
10489TIP3    H252959   3.531   0.199  15.125 -1.3183 -0.6437 -0.3795
10490TIP3   OH252960   0.184   2.835  12.015  0.3413 -0.1086  0.3590
10490TIP3    H152961   0.158   2.919  12.054  0.0990 -0.7869  1.7347
10490TIP3    H252962   0.222   2.859  11.931  0.1193  1.3709  0.6405
10491TIP3   OH252963   4.834   1.913  13.963  0.0285 -0.1971 -0.0192
10491TIP3    H152964   4.905   1.902  14.026  0.3299 -1.0555 -0.4963
10491TIP3    H252965   4.771   1.969  14.008 -0.4678 -1.9979  1.6577
10492TIP3   OH252966   2.759   0.226   1.359  0.1535 -0.5164  0.0866
10492TIP3    H152967   2.684   0.259   1.408 -1.0833 -1.5267 -1.0545
10492TIP3    H252968   2.793   0.155   1.414 -0.8462 -1.2404 -0.2010
10493TIP3   OH252969   5.317   1.019   6.666 -0.0279 -0.2462  0.7134
10493TIP3    H152970   5.345   0.939   6.711  1.2225 -1.3735 -1.8781
10493TIP3    H252971   5.222   1.020   6.677  0.1923 -0.2806  3.5045
10494TIP3   OH252972   2.815   1.636  13.319 -0.3125 -0.4410 -0.4081
10494TIP3    H152973   2.770   1.702  13.265 -1.4283 -1.6878 -1.0625
10494TIP3    H252974   2.759   1.626  13.396 -0.3825 -0.9368 -0.5220
10495TIP3   OH252975   3.407   4.010   3.245  0.0065 -0.0387 -0.0678
10495TIP3    H152976   3.367   4.090   3.279 -0.2763 -0.6503  1.0639
10495TIP3    H252977   3.491   4.039   3.209  0.6361  0.5444  1.7700
10496TIP3   OH252978   3.838   6.513  14.435 -0.0212  0.6539  1.0975
10496TIP3    H152979   3.921   6.554  14.458  1.8196 -1.8075 -0.6157
10496TIP3    H252980   3.841   6.426  14.476 -0.6310 -0.3554 -0.8419
10497TIP3   OH252981   3.524   0.767   1.805 -0.0328  0.3495  0.1306
10497TIP3    H152982   3.490   0.856   1.808 -1.9297 -0.3384  2.8218
10497TIP3    H252983   3.575   0.758   1.886  3.3923  0.0539 -1.8606
10498TIP3   OH252984   4.866   0.124   2.116  0.2129  0.0516  0.4807
10498TIP3    H152985   4.900   0.059   2.055  1.3334  1.7152 -0.7512
10498TIP3    H252986   4.944   0.159   2.160 -0.5701 -1.2075  3.0667
10499TIP3   OH252987   2.577   1.609   3.903 -0.4441 -0.0935  0.5974
10499TIP3    H152988   2.589   1.699   3.875  0.3381 -0.5670 -0.6473
10499TIP3    H252989   2.506   1.575   3.848 -0.9716 -0.1481  1.2964
10500TIP3   OH252990   1.149   5.482  15.723 -0.3862  0.6555  0.2494
10500TIP3    H152991   1.243   5.475  15.736 -0.5310 -1.9435  0.4160
10500TIP3    H252992   1.113   5.489  15.812 -0.3533  2.3497  0.1579
10501TIP3   OH252993   4.349   4.455  16.810 -0.0543  0.4427  0.4086
10501TIP3    H152994   4.347   4.534  16.756  2.6351  1.0623  1.0299
10501TIP3    H252995   4.392   4.483  16.891 -0.1775 -1.3847  1.1562
10502TIP3   OH252996   0.485   3.688  14.129  0.6646 -0.2527 -0.5334
10502TIP3    H152997   0.543   3.737  14.186  1.0340 -0.5344 -0.6689
10502TIP3    H252998   0.406   3.742  14.124 -0.0522 -1.0155  1.5830
10503TIP3   OH252999   5.503   5.292  10.857  0.7380  0.6824  0.0710
10503TIP3    H153000   5.597   5.287  10.876  0.9973  2.4020 -0.5979
10503TIP3    H253001   5.468   5.351  10.923  0.2391  0.5644 -0.0838
10504TIP3   OH253002   1.886   4.708   3.679 -0.0236  0.0723  0.1339
10504TIP3    H153003   1.875   4.725   3.773 -0.4761  0.9494 -0.0660
10504TIP3    H253004   1.865   4.792   3.637  0.6715 -0.1673 -0.7225
10505TIP3   OH253005   5.761   0.139  15.759 -0.2691  0.1741 -0.0684
10505TIP3    H153006   5.709   0.197  15.703 -1.8266 -1.5339 -0.5069
10505TIP3    H253007   5.822   0.096  15.699 -1.8122 -1.5160 -0.5398
10506TIP3   OH253008   1.134   0.533   4.189 -0.6247  0.6708 -0.3371
10506TIP3    H153009   1.146   0.482   4.109 -0.6273  0.4778 -0.2159
10506TIP3    H253010   1.194   0.493   4.253 -1.8422 -0.2763  0.2563
10507TIP3   OH253011   1.034   6.623   4.701 -0.1837 -0.0738  0.0575
10507TIP3    H153012   1.043   6.595   4.792 -1.1688 -2.5768 -0.5175
10507TIP3    H253013   1.048   6.543   4.650 -0.5016  1.0779 -1.9693
10508TIP3   OH253014   2.767   3.661   4.957  0.3304  0.1628 -0.1475
10508TIP3    H153015   2.688   3.696   4.999  0.6662  1.5920 -0.6586
10508TIP3    H253016   2.737   3.580   4.916 -0.2057 -0.8360  2.0572
10509TIP3   OH253017   2.278   6.583  14.166 -0.2291  0.0148 -0.1872
10509TIP3    H153018   2.257   6.594  14.258  0.2413 -2.3415  0.2864
10509TIP3    H253019   2.248   6.663  14.124 -3.4125 -0.1219  1.5063
10510TIP3   OH253020   2.375   6.496   2.103 -0.6949  0.2219 -0.2560
10510TIP3    H153021   2.373   6.552   2.025 -1.7652 -0.4844 -0.7580
10510TIP3    H253022   2.425   6.419   2.076  0.6691  0.8331  0.3972
10511TIP3   OH253023   3.027   5.019  13.646  0.0287 -0.2335 -0.1507
10511TIP3    H153024   3.024   5.083  13.575  0.8103  1.8055  1.5597
10511TIP3    H253025   3.118   4.989  13.648 -0.1687 -0.8878 -0.4716
10512TIP3   OH253026   5.446   3.324  14.423 -0.2737 -0.0984 -0.8460
10512TIP3    H153027   5.411   3.372  14.499  1.6001 -2.3445  1.6171
10512TIP3    H253028   5.368   3.287  14.381 -1.2840 -1.1942  1.7581
10513TIP3   OH253029   2.724   3.617  16.339 -0.0646 -0.1076 -0.5749
10513TIP3    H153030   2.786   3.592  16.408 -1.3704 -0.1434  0.6365
10513TIP3    H253031   2.777   3.621  16.259  1.2486 -1.3357  0.1875
10514TIP3   OH253032   5.786   3.008  10.818 -0.0662 -0.3591 -0.1792
10514TIP3    H153033   5.842   2.975  10.888 -0.2904 -1.0247 -0.3071
10514TIP3    H253034   5.840   3.073  10.772  0.0872  0.0694  0.5906
10515TIP3   OH253035   1.754   3.742   3.194  0.4929 -0.6587  0.6812
10515TIP3    H153036   1.839   3.742   3.152  0.1318 -1.4552 -0.0762
10515TIP3    H253037   1.710   3.820   3.160  0.6628 -0.6215  0.5496
10516TIP3   OH253038   3.319   5.068   1.908 -0.1963 -0.0667  0.5503
10516TIP3    H153039   3.287   4.993   1.957  0.6327  0.2327  1.5750
10516TIP3    H253040   3.412   5.049   1.892 -0.0320  0.6276  0.6344
10517TIP3   OH253041   3.020   1.257   4.812  0.2513  0.0103 -0.1327
10517TIP3    H153042   3.100   1.218   4.778 -0.4428  0.0200 -1.8895
10517TIP3    H253043   2.955   1.187   4.808  0.1207  0.0198  1.2173
10518TIP3   OH253044   5.325   5.994  13.789 -0.4296 -0.6224 -0.3190
10518TIP3    H153045   5.352   6.071  13.838  0.1892 -0.7472 -0.4617
10518TIP3    H253046   5.245   5.965  13.832 -0.0091 -0.6058  0.4780
10519TIP3   OH253047   3.754   2.380   0.674  0.5020 -0.1044 -0.0013
10519TIP3    H153048   3.712   2.337   0.748 -2.5468  1.0316 -0.9437
10519TIP3    H253049   3.794   2.309   0.624  0.2533 -1.1731  1.2799
10520TIP3   OH253050   3.736   6.179   5.378 -0.0561  0.6399  0.0771
10520TIP3    H153051   3.750   6.123   5.455  0.4985  1.6972  0.7762
10520TIP3    H253052   3.810   6.159   5.321  0.5822  1.2010  0.6810
10521TIP3   OH253053   1.644   6.449  16.455 -0.7460 -0.3290 -0.3188
10521TIP3    H153054   1.596   6.501  16.518 -1.9775  0.1720 -1.6052
10521TIP3    H253055   1.589   6.371  16.441  0.0496 -0.9644  0.0389
10522TIP3   OH253056   1.297   0.579   4.777 -0.8557  0.1317  0.0911
10522TIP3    H153057   1.333   0.540   4.857 -0.6374 -1.4705 -0.7336
10522TIP3    H253058   1.307   0.673   4.789  3.1220 -0.1626  0.1639
10523TIP3   OH253059   3.118   5.278  12.761  0.1175 -0.2600 -0.3471
10523TIP3    H153060   3.212   5.293  12.760  0.0615  0.1141 -1.0431
10523TIP3    H253061   3.098   5.239  12.676 -0.7954  2.7655 -1.6601
10524TIP3   OH253062   6.615   3.989  13.488  0.2217 -0.9179  0.0633
10524TIP3    H153063   6.686   3.929  13.464  0.9400 -0.2801  0.5607
10524TIP3    H253064   6.613   3.988  13.583 -2.6459 -3.4513  0.1361
10525TIP3   OH253065   4.766   1.983  13.179  0.2560  0.0199  0.2650
10525TIP3    H153066   4.799   2.073  13.181  1.2785 -0.2854 -1.1238
10525TIP3    H253067   4.826   1.934  13.236  0.5589 -0.0304 -0.0919
10526TIP3   OH253068   6.133   3.501  15.852 -0.2805  0.7335  0.0552
10526TIP3    H153069   6.134   3.537  15.940 -0.1336  0.3298  0.2199
10526TIP3    H253070   6.203   3.546  15.806  0.1651  0.3777  0.3755
10527TIP3   OH253071   3.720   4.980   3.228  0.2040  0.4951 -0.1343
10527TIP3    H153072   3.702   4.994   3.135  0.9498  0.3269 -0.3098
10527TIP3    H253073   3.650   4.921   3.257  0.9598 -0.9111 -1.0279
10528TIP3   OH253074   5.198   3.196   4.495  0.2635 -0.0475 -0.2587
10528TIP3    H153075   5.138   3.149   4.554 -0.2932  0.0760 -0.7149
10528TIP3    H253076   5.141   3.229   4.425  0.4524  2.2424  0.5876
10529TIP3   OH253077   2.860   4.622   0.752  0.8370 -0.0104 -0.5592
10529TIP3    H153078   2.870   4.713   0.781 -1.0889 -0.2747  1.1623
10529TIP3    H253079   2.772   4.618   0.715 -0.1397 -1.6394  1.6572
10530TIP3   OH253080   2.259   1.780   0.151  0.3894 -0.6538  0.1052
10530TIP3    H153081   2.228   1.709   0.096 -0.9031 -1.1466  1.4032
10530TIP3    H253082   2.214   1.858   0.118 -0.4804 -0.9679  0.5255
10531TIP3   OH253083   6.716   1.232  16.587 -0.4376 -0.1539  0.3606
10531TIP3    H153084   6.769   1.155  16.607 -0.5283  0.3865  2.9772
10531TIP3    H253085   6.762   1.275  16.515 -0.0347 -2.2599 -0.7152
10532TIP3   OH253086   5.266   5.908   2.883 -0.5729  0.4936 -0.0876
10532TIP3    H153087   5.282   5.832   2.938 -0.4508 -0.2913 -1.1675
10532TIP3    H253088   5.194   5.955   2.927 -2.1631 -1.4149 -0.4919
10533TIP3   OH253089   2.519   5.405  10.964  0.1339  0.3626 -0.7349
10533TIP3    H153090   2.431   5.387  10.929  0.2860  0.7394 -1.3222
10533TIP3    H253091   2.552   5.477  10.910  1.0400 -0.1652 -0.8992
10534TIP3   OH253092   6.698   5.469  13.091 -0.2876  0.2374  0.0630
10534TIP3    H153093   6.664   5.551  13.125 -2.6352  0.6346 -2.7818
10534TIP3    H253094   6.660   5.402  13.146 -1.0872  0.9488  0.3883
10535TIP3   OH253095   4.926   2.330  15.606  0.0926  0.4603 -0.3000
10535TIP3    H153096   4.989   2.390  15.567 -1.0949  1.5250 -0.6672
10535TIP3    H253097   4.874   2.385  15.665 -0.0559 -0.5295  0.5309
10536TIP3   OH253098   6.737   1.370   5.110 -0.0512  0.3892  0.1024
10536TIP3    H153099   6.760   1.434   5.177 -0.1363  1.3156 -0.7279
10536TIP3    H253100   6.656   1.330   5.143 -0.0306  0.7475  0.6075
10537TIP3   OH253101   0.367   2.963  14.192 -0.0561  0.4538  0.4753
10537TIP3    H153102   0.384   2.885  14.244  0.7559  0.9732  1.0029
10537TIP3    H253103   0.447   3.015  14.199 -0.3967  1.1039 -0.2810
10538TIP3   OH253104   6.235   1.607  11.405  0.1335 -0.2230 -0.3532
10538TIP3    H153105   6.142   1.623  11.385 -0.3846 -1.6842  0.6750
10538TIP3    H253106   6.269   1.692  11.430 -0.9694  0.3289 -0.6455
10539TIP3   OH253107   1.273   4.560  13.769 -0.6488  0.6613  0.0410
10539TIP3    H153108   1.195   4.521  13.809 -0.5732  0.9855  0.5212
10539TIP3    H253109   1.293   4.504  13.695 -0.2659 -0.4818  0.9869
10540TIP3   OH253110   3.375   3.144   3.431 -0.2277  0.0147 -0.2439
10540TIP3    H153111   3.385   3.221   3.376  0.8226  0.0560 -0.0288
10540TIP3    H253112   3.378   3.177   3.520 -1.5499 -0.0950 -0.1391
10541TIP3   OH253113   5.078   5.862   0.160 -0.4990 -0.2727  0.0737
10541TIP3    H153114   5.018   5.787   0.165 -0.0007 -0.6639  0.2799
10541TIP3    H253115   5.021   5.938   0.151 -1.1113 -0.4522  2.0008
10542TIP3   OH253116   1.099   6.764   0.448  0.0732 -0.7781 -0.4641
10542TIP3    H153117   1.023   6.818   0.469  0.4359  0.3175 -1.7734
10542TIP3    H253118   1.068   6.674   0.455 -1.2557 -0.3505 -0.6672
10543TIP3   OH253119   1.740   3.922   4.801 -0.3469 -0.0679  0.1853
10543TIP3    H153120   1.749   3.933   4.895  0.1569 -0.7912  0.2332
10543TIP3    H253121   1.663   3.866   4.790 -1.6602  1.6917  0.0464
10544TIP3   OH253122   2.170   1.362   2.954  0.4939 -0.0621  0.3888
10544TIP3    H153123   2.227   1.327   2.885  0.0736 -2.3729  1.1399
10544TIP3    H253124   2.229   1.380   3.027  0.7576  1.1867 -0.1076
10545TIP3   OH253125   1.805   5.510  13.517  0.0005  0.0112 -0.2609
10545TIP3    H153126   1.727   5.566  13.512 -1.2950 -1.5525  1.4648
10545TIP3    H253127   1.875   5.570  13.545 -1.5193  0.6926  2.3797
10546TIP3   OH253128   3.793   0.582   5.764  0.2531 -0.3524 -0.4177
10546TIP3    H153129   3.778   0.617   5.852  0.3255  0.0061 -0.5494
10546TIP3    H253130   3.797   0.659   5.708  2.0175 -0.4704 -0.4825
10547TIP3   OH253131   0.027   5.267   2.826  0.1350  0.3202  0.6645
10547TIP3    H153132   0.047   5.179   2.858  0.1261  0.2795  0.5551
10547TIP3    H253133   0.030   5.260   2.731 -2.7175 -0.2656  0.5232
10548TIP3   OH253134   1.556   3.786  11.081  0.0595 -0.2394  0.2079
10548TIP3    H153135   1.591   3.777  10.993  2.4926  1.3540  0.8957
10548TIP3    H253136   1.603   3.720  11.133 -0.6858 -0.5615  0.4802
10549TIP3   OH253137   5.093   5.249  12.341  0.7795  0.1501  0.0277
10549TIP3    H153138   5.067   5.319  12.400 -0.4827 -0.4589  0.2413
10549TIP3    H253139   5.087   5.169  12.394  0.2405 -0.3352 -0.7293
10550TIP3   OH253140   2.300   6.384   2.364 -0.1912 -0.1115  0.6031
10550TIP3    H153141   2.303   6.327   2.287 -0.1290 -0.0594  0.5668
10550TIP3    H253142   2.375   6.443   2.353 -0.2568 -0.0220  0.6411
10551TIP3   OH253143   6.803   5.496   1.998 -0.2645  0.0263  0.2695
10551TIP3    H153144   6.800   5.591   2.008 -0.3498 -0.0352  0.8439
10551TIP3    H253145   6.876   5.480   1.938  0.0501  0.4247  0.5476
10552TIP3   OH253146   1.348   4.454  13.526 -0.2326 -0.7395  0.1344
10552TIP3    H153147   1.308   4.378  13.483 -1.6247  0.3698 -0.6153
10552TIP3    H253148   1.373   4.512  13.454 -1.1316  0.4384  0.7453
10553TIP3   OH253149   4.744   3.176  12.552  0.1798 -0.3698 -0.3334
10553TIP3    H153150   4.835   3.198  12.529 -0.2399 -0.0994 -1.9066
10553TIP3    H253151   4.695   3.195  12.472 -1.1638 -1.1790  0.2749
10554TIP3   OH253152   3.038   1.441   5.038  0.2376 -0.3281  0.2927
10554TIP3    H153153   3.114   1.477   4.991  0.2238  0.6911  1.0326
10554TIP3    H253154   3.002   1.376   4.978 -0.1737  1.3878 -1.4135
10555TIP3   OH253155   3.728   4.832  12.009 -0.4537 -0.8888  0.2216
10555TIP3    H153156   3.817   4.808  12.036 -0.6353 -0.4432  1.2459
10555TIP3    H253157   3.675   4.755  12.031 -0.0596 -1.8941 -2.0628
10556TIP3   OH253158   6.156   4.009   2.097  0.4625 -0.3732 -0.6177
10556TIP3    H153159   6.065   3.984   2.082  0.9444 -1.0275 -2.8329
10556TIP3    H253160   6.158   4.103   2.080 -0.1347  0.0695  1.4605
10557TIP3   OH253161   6.008   6.566  15.401 -0.1330  0.3828 -0.0963
10557TIP3    H153162   6.073   6.534  15.464 -1.3094 -0.7567  0.5793
10557TIP3    H253163   5.950   6.623  15.451  0.8243  2.1414 -0.8955
10558TIP3   OH253164   1.248   3.924   0.139 -0.1099  0.0352 -0.2561
10558TIP3    H153165   1.244   4.011   0.099  2.1093 -0.2541 -1.2939
10558TIP3    H253166   1.170   3.879   0.107  0.4282  0.5649 -2.5407
10559TIP3   OH253167   2.106   0.436  10.758 -0.6958  0.3610  0.4979
10559TIP3    H153168   2.163   0.461  10.685 -0.3797 -0.2496  0.5247
10559TIP3    H253169   2.055   0.514  10.777  0.6827  1.1734  0.9937
10560TIP3   OH253170   0.058   2.275   5.779  0.3329 -0.3648  0.0349
10560TIP3    H153171   0.059   2.344   5.846 -1.4725 -0.8905  0.6611
10560TIP3    H253172   0.104   2.314   5.704  1.2625  0.7072  1.1111
10561TIP3   OH253173   2.051   3.585  14.440  0.0531  0.0350  0.1868
10561TIP3    H153174   2.083   3.548  14.357 -0.3908 -0.0071  0.0339
10561TIP3    H253175   2.007   3.666  14.415 -1.6001 -0.8281  0.1627
10562TIP3   OH253176   3.510   5.189  14.800  0.2356  0.2617 -0.0439
10562TIP3    H153177   3.417   5.180  14.819  0.0601 -0.9682 -1.3000
10562TIP3    H253178   3.516   5.267  14.746 -0.1142  0.1965 -0.1809
10563TIP3   OH253179   6.838   5.603  14.178  0.4246 -0.5456  0.3298
10563TIP3    H153180   6.819   5.561  14.261 -0.2185  1.2638  1.1494
10563TIP3    H253181   6.934   5.607  14.175  0.4824  1.9352  2.4136
10564TIP3   OH253182   3.306   6.577  16.591  0.1408  0.1186 -0.5380
10564TIP3    H153183   3.307   6.672  16.606  0.2923  0.1710 -0.8636
10564TIP3    H253184   3.398   6.554  16.580  0.0498  0.0560 -1.1891
10565TIP3   OH253185   4.357   3.091  12.474 -0.2039  0.8364  0.0088
10565TIP3    H153186   4.343   3.165  12.415  0.8398 -0.3905 -1.8879
10565TIP3    H253187   4.274   3.044  12.474  0.2187 -0.0218 -1.8485
10566TIP3   OH253188   0.566   1.101   2.514  0.6018 -0.0979  0.7974
10566TIP3    H153189   0.617   1.156   2.574  1.3158 -0.8398  0.8914
10566TIP3    H253190   0.479   1.097   2.554  0.8571  0.0358  1.3885
10567TIP3   OH253191   5.122   4.802   4.533  0.3384  0.5489  0.0631
10567TIP3    H153192   5.089   4.869   4.593 -0.5126 -0.4826  0.7775
10567TIP3    H253193   5.044   4.758   4.501  0.7438  1.3043 -2.1201
10568TIP3   OH253194   5.853   1.158  12.539  0.8670  0.1640 -0.1311
10568TIP3    H153195   5.788   1.228  12.542 -0.4862 -1.0658  0.1483
10568TIP3    H253196   5.833   1.110  12.459  2.0594  0.3148 -0.5500
10569TIP3   OH253197   5.680   6.043  14.600  0.1179 -0.0120  0.1401
10569TIP3    H153198   5.744   6.114  14.597 -1.0237  1.0719  0.3616
10569TIP3    H253199   5.693   6.001  14.685  0.8670 -0.1394 -0.0322
10570TIP3   OH253200   5.408   4.876  15.965  0.3706 -0.6016 -0.0594
10570TIP3    H153201   5.356   4.798  15.985  0.8610 -0.7753  0.5960
10570TIP3    H253202   5.496   4.843  15.948  1.2110 -0.0480  2.6880
10571TIP3   OH253203   2.817   6.168  11.222  0.3910 -0.1220  0.0301
10571TIP3    H153204   2.765   6.107  11.275  3.5048 -1.8250  1.3485
10571TIP3    H253205   2.866   6.220  11.285  2.3714 -0.4968 -1.1287
10572TIP3   OH253206   2.066   2.289   3.812  0.1466 -0.1469 -0.1514
10572TIP3    H153207   2.116   2.353   3.863  0.6756 -0.0394 -0.7876
10572TIP3    H253208   2.046   2.334   3.730 -0.3073 -0.4706 -0.2199
10573TIP3   OH253209   6.612   5.248  14.138 -0.1996 -0.1041  0.4370
10573TIP3    H153210   6.571   5.333  14.158  0.0284 -0.1536  1.1435
10573TIP3    H253211   6.700   5.270  14.109 -0.3464 -0.0657  0.0126
10574TIP3   OH253212   3.777   1.922   4.920 -0.0398  0.3150 -0.0596
10574TIP3    H153213   3.719   1.966   4.983  0.9697  0.3834  0.8332
10574TIP3    H253214   3.733   1.935   4.836 -2.0645 -0.8587  0.7476
10575TIP3   OH253215   4.809   5.009   1.841 -0.0584 -0.0915  0.0796
10575TIP3    H153216   4.901   4.986   1.828 -0.4014 -0.8168 -1.3922
10575TIP3    H253217   4.787   4.974   1.927  0.8672 -0.5229  0.1581
10576TIP3   OH253218   0.868   1.855  11.701  0.5561 -0.5706  0.1720
10576TIP3    H153219   0.902   1.943  11.713  0.7388 -0.7350  0.8955
10576TIP3    H253220   0.856   1.847  11.607  0.1198  0.3852  0.1288
10577TIP3   OH253221   6.410   4.461  14.726 -0.6073  0.3957 -0.3385
10577TIP3    H153222   6.489   4.413  14.701 -0.4779  0.4539 -0.0491
10577TIP3    H253223   6.359   4.467  14.646 -0.2650  0.4541 -0.5540
10578TIP3   OH253224   4.459   3.256   0.474  0.3994  0.6185 -0.2555
10578TIP3    H153225   4.515   3.271   0.398 -0.7999 -0.1510 -1.3438
10578TIP3    H253226   4.500   3.185   0.522  0.4622  0.1942 -0.9340
10579TIP3   OH253227   6.145   1.885   4.921  0.2420 -0.1799  0.2101
10579TIP3    H153228   6.095   1.851   4.995 -0.4317 -0.1344 -0.2063
10579TIP3    H253229   6.193   1.960   4.955  1.3824 -1.2589  1.0343
10580TIP3   OH253230   1.066   1.469  12.298 -0.3332  0.1365  0.4284
10580TIP3    H153231   0.990   1.472  12.240  0.2451  0.0165 -0.3604
10580TIP3    H253232   1.032   1.491  12.384 -1.6419 -2.0286  0.5231
10581TIP3   OH253233   5.335   2.487   3.983 -0.1732 -0.4261  0.4851
10581TIP3    H153234   5.407   2.534   3.941 -0.2046 -0.0650  0.8313
10581TIP3    H253235   5.377   2.409   4.020  0.3611  0.5310  2.0304
10582TIP3   OH253236   0.277   6.433   3.343  0.1491  0.3012 -0.5504
10582TIP3    H153237   0.356   6.442   3.291  0.7960  0.8158  0.4864
10582TIP3    H253238   0.279   6.508   3.403 -2.7121  2.1861 -2.5425
10583TIP3   OH253239   4.133   1.511  11.990 -0.0958  0.2848  0.2532
10583TIP3    H153240   4.227   1.503  12.003 -0.1327 -0.8721 -0.0610
10583TIP3    H253241   4.124   1.548  11.902  0.0623  2.0823  0.9464
10584TIP3   OH253242   4.433   6.861  11.754  0.0629  0.3182  0.1603
10584TIP3    H153243   4.339   6.875  11.762  0.2947  3.3349 -0.9349
10584TIP3    H253244   4.455   6.896  11.667  2.2594  0.1943  0.6150
10585TIP3   OH253245   5.669   4.637  13.132 -0.4087 -0.0124 -0.4105
10585TIP3    H153246   5.629   4.678  13.056 -0.0686 -0.8670 -1.0641
10585TIP3    H253247   5.708   4.710  13.180 -1.9540  0.7223 -0.2121
10586TIP3   OH253248   2.998   4.672  14.064  0.4886  0.6310 -0.6730
10586TIP3    H153249   3.034   4.760  14.078  0.9632  0.0373  2.5108
10586TIP3    H253250   3.060   4.613  14.107 -0.0826 -1.2670 -2.3069
10587TIP3   OH253251   4.669   1.844  15.479  0.4225 -0.3345  0.1714
10587TIP3    H153252   4.719   1.769  15.511  1.1403  0.1343  0.1916
10587TIP3    H253253   4.734   1.914  15.472 -0.3401  0.4521  0.7107
10588TIP3   OH253254   2.697   0.134   5.046 -0.9380 -0.0064 -0.2610
10588TIP3    H153255   2.767   0.110   4.984 -0.8270 -1.2940  0.3409
10588TIP3    H253256   2.648   0.203   5.001  1.6852  2.1643 -0.0545
10589TIP3   OH253257   6.672   0.991   1.242 -0.6972 -0.4061  0.1509
10589TIP3    H153258   6.628   1.006   1.159 -0.1473  0.8327  0.0527
10589TIP3    H253259   6.609   0.942   1.295 -1.3242 -0.5779 -0.7413
10590TIP3   OH253260   3.013   3.357  16.552  0.2310  0.3917 -0.5322
10590TIP3    H153261   3.099   3.382  16.518 -0.4319  1.2884 -1.6360
10590TIP3    H253262   2.979   3.295  16.488 -0.7891  1.6386 -1.2320
10591TIP3   OH253263   3.241   5.598  13.711 -0.0162 -0.7667  0.5348
10591TIP3    H153264   3.222   5.589  13.618  0.4478  0.2612  0.3346
10591TIP3    H253265   3.159   5.631  13.749 -0.3997 -1.7672  0.6021
10592TIP3   OH253266   0.770   1.453   2.014  0.2245 -0.2121 -0.1822
10592TIP3    H153267   0.709   1.514   1.972  1.2608  0.6054 -0.5461
10592TIP3    H253268   0.799   1.396   1.944 -0.4906 -0.9307  0.0931
10593TIP3   OH253269   1.053   5.659   4.654 -0.0163 -0.6414  0.5210
10593TIP3    H153270   1.054   5.570   4.691 -0.6833 -1.3663 -1.1258
10593TIP3    H253271   0.965   5.691   4.672  0.5623  0.1664  2.1105
10594TIP3   OH253272   4.541   1.016  16.074 -0.2796 -0.0446  0.2008
10594TIP3    H153273   4.536   0.969  16.157  0.0072  0.1623  0.3362
10594TIP3    H253274   4.555   0.948  16.009  1.9620 -0.0377  0.5803
10595TIP3   OH253275   3.891   3.361   5.633  0.1922  0.2226 -0.3001
10595TIP3    H153276   3.958   3.384   5.697  0.8976  0.9786 -1.2600
10595TIP3    H253277   3.878   3.441   5.582  0.0514 -0.4828 -1.4297
10596TIP3   OH253278   1.660   0.750   1.137  0.2696 -0.1344 -0.6362
10596TIP3    H153279   1.580   0.740   1.189  1.4619 -1.0016  1.0788
10596TIP3    H253280   1.651   0.685   1.067 -1.0208  0.5679 -1.1693
10597TIP3   OH253281   2.642   1.316   6.053 -0.4423  0.6101 -0.5349
10597TIP3    H153282   2.586   1.285   6.124  1.5230 -0.2187  0.7300
10597TIP3    H253283   2.639   1.245   5.988  0.2241 -0.0717  0.1664
10598TIP3   OH253284   6.576   6.681   5.467 -0.3611 -0.1952 -0.4518
10598TIP3    H153285   6.554   6.743   5.536  1.7831 -1.4412  1.5046
10598TIP3    H253286   6.569   6.731   5.386 -0.4701  2.0634  0.8878
10599TIP3   OH253287   5.988   2.125  16.528  0.4313  0.0807  0.3262
10599TIP3    H153288   5.982   2.204  16.475  2.3112  0.1863  0.2329
10599TIP3    H253289   5.938   2.059  16.479  0.5312  0.6799 -0.5879
10600TIP3   OH253290   1.443   0.792   1.639  0.4009  0.1939  0.0769
10600TIP3    H153291   1.348   0.796   1.629  0.3196  0.7805  0.9829
10600TIP3    H253292   1.456   0.737   1.717  0.7586  0.9305  0.5470
10601TIP3   OH253293   2.826   0.978  16.848 -0.1458  0.5881  0.0780
10601TIP3    H153294   2.738   0.995  16.884  0.3762  1.8783  0.8157
10601TIP3    H253295   2.817   0.894  16.803 -1.6284  0.4325  0.5850
10602TIP3   OH253296   2.054   2.803  16.779 -0.0625  0.4528 -0.0373
10602TIP3    H153297   2.010   2.843  16.854 -1.2292  1.1106 -1.0339
10602TIP3    H253298   2.133   2.856  16.766  0.2719  0.1950  0.8431
10603TIP3   OH253299   6.802   1.382  14.380  0.1166 -0.2911  0.2373
10603TIP3    H153300   6.856   1.320  14.429 -0.0422  0.1858  1.0308
10603TIP3    H253301   6.779   1.449  14.443  1.4684  1.3679 -0.9501
10604TIP3   OH253302   4.389   0.039  13.298  0.0467 -0.7298  0.1175
10604TIP3    H153303   4.308   0.004  13.260  0.3295 -0.7481 -0.4831
10604TIP3    H253304   4.381   0.134  13.288 -0.2605 -0.6791  0.8044
10605TIP3   OH253305   4.253   5.351   4.482  0.4546 -0.3990  0.0072
10605TIP3    H153306   4.159   5.355   4.466  0.1667 -3.0341  0.6022
10605TIP3    H253307   4.268   5.412   4.553 -0.8494 -0.0856  0.0386
10606TIP3   OH253308   6.729   4.912   5.706  0.0573  0.3278 -0.3601
10606TIP3    H153309   6.721   4.913   5.801 -0.8254  1.9626 -0.4199
10606TIP3    H253310   6.699   4.824   5.681 -2.0623  0.6550  0.7285
10607TIP3   OH253311   5.341   1.166   0.847  0.4154 -0.0017 -0.2825
10607TIP3    H153312   5.257   1.212   0.844  0.8596  0.8268 -0.3811
10607TIP3    H253313   5.329   1.091   0.790 -0.1629  0.2727 -0.5319
10608TIP3   OH253314   6.413   4.889   2.254 -0.0831 -0.3343  0.0896
10608TIP3    H153315   6.486   4.875   2.193 -0.1046 -0.3558  0.0687
10608TIP3    H253316   6.455   4.908   2.338 -0.0323 -1.8040  0.4347
10609TIP3   OH253317   0.377   4.178   2.741  0.1039  0.0566 -0.1744
10609TIP3    H153318   0.418   4.202   2.824  2.2385 -1.1363 -0.8140
10609TIP3    H253319   0.288   4.151   2.764  0.4192  0.4606  1.6024
10610TIP3   OH253320   4.053   4.981  12.704  0.0313  0.0359  0.1446
10610TIP3    H153321   4.121   5.027  12.753 -0.7122 -0.4938  1.7340
10610TIP3    H253322   4.100   4.916  12.652  0.9373  1.3976 -0.8345
10611TIP3   OH253323   3.621   3.594   3.815 -0.2198 -0.8316  0.4967
10611TIP3    H153324   3.582   3.562   3.896 -0.6404  0.5319  0.8674
10611TIP3    H253325   3.566   3.669   3.790  1.1509  0.0734  0.0958
10612TIP3   OH253326   2.513   3.729   2.618 -0.5698 -0.0107  0.7286
10612TIP3    H153327   2.487   3.802   2.674 -0.6709  0.4290  0.1237
10612TIP3    H253328   2.442   3.666   2.624 -1.1037  0.5347  0.2244
10613TIP3   OH253329   0.972   0.712  13.888 -0.5827 -0.2909 -0.2711
10613TIP3    H153330   0.893   0.658  13.892 -1.0483  0.4037  0.1112
10613TIP3    H253331   1.021   0.678  13.813 -0.6940 -1.4642  0.1668
10614TIP3   OH253332   3.027   5.910   5.914 -0.2969 -0.4219 -0.6496
10614TIP3    H153333   3.001   5.933   6.003 -0.5129  0.1904 -0.8682
10614TIP3    H253334   3.105   5.963   5.898 -0.7129  0.0520 -1.1061
10615TIP3   OH253335   6.340   4.556  10.711 -0.2125 -0.3274  0.2158
10615TIP3    H153336   6.346   4.478  10.657 -0.2897  0.0609 -0.3546
10615TIP3    H253337   6.385   4.531  10.793 -0.4610 -1.0475  0.1431
10616TIP3   OH253338   4.822   6.731  16.495 -0.1976  0.8815 -0.3596
10616TIP3    H153339   4.765   6.654  16.504  2.0131 -0.8220 -0.1572
10616TIP3    H253340   4.838   6.738  16.401 -0.6184  1.3071 -0.4069
10617TIP3   OH253341   6.606   4.649   0.167 -0.0956 -0.2847  0.1067
10617TIP3    H153342   6.532   4.594   0.191 -0.1487 -0.1298  0.3039
10617TIP3    H253343   6.583   4.736   0.201  0.3420 -0.3167  0.4979
10618TIP3   OH253344   3.188   1.594   2.176 -0.3321  0.2954  0.4270
10618TIP3    H153345   3.197   1.663   2.110 -0.5119 -1.0175 -1.0454
10618TIP3    H253346   3.120   1.536   2.141  0.6242 -1.2526  0.9990
10619TIP3   OH253347   4.499   0.910  15.104 -0.0165  0.0123 -0.0517
10619TIP3    H153348   4.546   0.977  15.154 -0.1639 -1.4511  2.1302
10619TIP3    H253349   4.418   0.954  15.077 -0.0522  0.7741  1.2093
10620TIP3   OH253350   6.786   4.340  15.173  0.3470 -0.1600  0.2517
10620TIP3    H153351   6.716   4.405  15.176  0.8104  0.6521 -2.7898
10620TIP3    H253352   6.861   4.384  15.211 -0.7600 -1.2869  4.2482
10621TIP3   OH253353   2.290   1.464   2.637 -0.7240 -0.0493  0.2617
10621TIP3    H153354   2.228   1.429   2.573 -0.6787 -0.0164  0.2001
10621TIP3    H253355   2.319   1.388   2.687 -0.2762 -0.1616 -0.1711
10622TIP3   OH253356   6.500   5.870  11.650 -0.5488 -0.3410 -0.3406
10622TIP3    H153357   6.550   5.916  11.717 -0.5352 -0.5477 -0.2062
10622TIP3    H253358   6.493   5.780  11.683 -1.5517 -0.1734 -0.0341
10623TIP3   OH253359   1.330   5.765   2.722 -0.0011  0.0051 -0.1645
10623TIP3    H153360   1.379   5.801   2.648  0.7215 -0.3424  0.1342
10623TIP3    H253361   1.242   5.752   2.688  0.3617 -0.2936 -1.0144
10624TIP3   OH253362   4.704   1.515   6.590 -0.8641  0.2716 -0.2238
10624TIP3    H153363   4.623   1.465   6.603 -0.5747 -0.0250  0.4952
10624TIP3    H253364   4.768   1.451   6.559 -0.3136  0.0241  1.3213
10625TIP3   OH253365   4.621   1.480   0.872  0.1250  0.1304  0.4348
10625TIP3    H153366   4.585   1.461   0.959 -0.1996  1.9247  0.7304
10625TIP3    H253367   4.548   1.463   0.812 -0.3057  0.8834  0.7336
10626TIP3   OH253368   2.539   4.610   5.452  0.0113  0.0069 -0.3788
10626TIP3    H153369   2.492   4.530   5.429  1.1862 -1.2616  1.4235
10626TIP3    H253370   2.518   4.671   5.381 -0.2589 -2.1479 -2.2660
10627TIP3   OH253371   0.493   0.714   1.954  0.2939 -0.2643 -0.6940
10627TIP3    H153372   0.507   0.725   2.048 -0.9251  0.8530 -0.6153
10627TIP3    H253373   0.581   0.712   1.916  0.8049  2.1466  0.1993
10628TIP3   OH253374   3.588   6.884   0.407 -0.2395 -0.4474  0.0384
10628TIP3    H153375   3.672   6.864   0.449  0.3416  0.1725 -0.7861
10628TIP3    H253376   3.592   6.839   0.323 -0.4855  0.0505 -0.2483
10629TIP3   OH253377   4.129   5.535  13.248 -0.0673  0.1019  0.2116
10629TIP3    H153378   4.202   5.579  13.205  0.1658 -0.5360 -0.0494
10629TIP3    H253379   4.170   5.474  13.309 -0.3690 -0.5517 -0.2294
10630TIP3   OH253380   1.238   0.154  15.550 -0.9443 -0.1185 -0.3249
10630TIP3    H153381   1.194   0.071  15.568 -0.0952 -0.4757  0.1917
10630TIP3    H253382   1.252   0.192  15.637  0.4743 -0.4095 -0.4010
10631TIP3   OH253383   0.520   6.614   4.183 -0.1294 -0.2536 -0.3644
10631TIP3    H153384   0.606   6.576   4.204 -0.1738 -0.2688 -0.2076
10631TIP3    H253385   0.505   6.589   4.092  1.2302  2.0026 -1.2885
10632TIP3   OH253386   1.446   1.594   2.787  0.1735  0.1060 -0.3145
10632TIP3    H153387   1.507   1.668   2.782 -1.1796  1.1711 -1.8295
10632TIP3    H253388   1.456   1.561   2.877  1.6805  1.3416  0.0131
10633TIP3   OH253389   2.911   3.569  12.104  0.4630  0.9966 -0.1731
10633TIP3    H153390   2.890   3.579  12.196  1.7990 -0.4326  0.3314
10633TIP3    H253391   2.981   3.633  12.087  0.3401  1.1364 -0.1498
10634TIP3   OH253392   6.885   3.843  12.053 -0.0641  0.2190  0.1580
10634TIP3    H153393   6.818   3.799  12.000  0.5187 -0.5358  0.0138
10634TIP3    H253394   6.856   3.934  12.058 -0.9467 -0.0309 -0.1393
10635TIP3   OH253395   5.655   2.908  15.588 -0.1358  0.3227 -0.1424
10635TIP3    H153396   5.642   2.943  15.676 -1.9751 -2.5305  0.8756
10635TIP3    H253397   5.568   2.912  15.548  0.6042  1.2055 -1.7189
10636TIP3   OH253398   3.891   4.526  12.211 -0.5900 -0.6544  0.1059
10636TIP3    H153399   3.902   4.618  12.237  1.2563 -0.9014  0.3492
10636TIP3    H253400   3.850   4.485  12.287  0.4780 -0.4237  0.8356
10637TIP3   OH253401   4.952   4.223  12.594  0.6155  0.9334  0.2736
10637TIP3    H153402   4.988   4.226  12.505  1.4327  1.3743  0.6139
10637TIP3    H253403   5.029   4.217  12.651  0.0461 -1.5115  0.8738
10638TIP3   OH253404   3.586   0.031   3.388  0.0575  0.4036 -0.0838
10638TIP3    H153405   3.622   0.120   3.380  0.0904  0.2493 -2.2087
10638TIP3    H253406   3.654  -0.026   3.352 -0.6076 -0.3212 -0.2083
10639TIP3   OH253407   2.395   3.374  14.732 -0.4900  0.1768  0.2343
10639TIP3    H153408   2.370   3.366  14.824 -0.6237 -0.4234  0.1509
10639TIP3    H253409   2.313   3.392  14.686 -0.2258  1.9265  0.3902
10640TIP3   OH253410   4.806   0.222  11.431  0.9172  0.0922 -0.3943
10640TIP3    H153411   4.753   0.179  11.497  1.9557 -0.5264  0.0575
10640TIP3    H253412   4.757   0.212  11.350  1.0878 -1.8818 -0.2850
10641TIP3   OH253413   3.476   4.143  12.811 -0.2212  0.1131  0.1600
10641TIP3    H153414   3.410   4.212  12.819 -0.0594  0.3138 -0.2134
10641TIP3    H253415   3.501   4.123  12.901  0.1109  0.9061  0.2472
10642TIP3   OH253416   0.450   2.996  13.672 -0.0312  0.0758 -0.0788
10642TIP3    H153417   0.387   2.951  13.729 -0.7230 -1.2020 -1.7724
10642TIP3    H253418   0.492   2.926  13.623  1.6576  1.0339 -0.0767
10643TIP3   OH253419   2.398   1.748   1.518  0.5067 -0.6553  0.7124
10643TIP3    H153420   2.424   1.840   1.529 -2.0041  0.4816 -1.5615
10643TIP3    H253421   2.342   1.730   1.594  0.0069  0.1176  0.5365
10644TIP3   OH253422   5.949   4.922   0.254 -0.6011  0.1953 -0.2806
10644TIP3    H153423   5.951   4.983   0.328 -1.2252 -0.3188  0.1680
10644TIP3    H253424   6.025   4.866   0.267 -0.3200  0.5396 -0.4107
10645TIP3   OH253425   0.621   5.863   4.479 -0.0469  0.3544  0.1896
10645TIP3    H153426   0.563   5.875   4.404  0.7626 -1.7195 -0.8435
10645TIP3    H253427   0.634   5.768   4.484  1.2049  0.5839  1.9654
10646TIP3   OH253428   0.594   3.206  10.932 -0.4760 -0.1540 -0.4951
10646TIP3    H153429   0.612   3.299  10.915 -0.4071 -0.3409 -1.5042
10646TIP3    H253430   0.553   3.175  10.851 -2.6013 -0.4730  0.6354
10647TIP3   OH253431   3.660   6.588   1.850 -0.4645  0.2308 -0.4409
10647TIP3    H153432   3.625   6.528   1.915 -0.0127 -0.6976 -1.0460
10647TIP3    H253433   3.752   6.600   1.874 -0.3633  0.0942 -0.7584
10648TIP3   OH253434   3.957   0.062  16.762  0.2953  0.0799  0.3881
10648TIP3    H153435   3.993  -0.016  16.805 -3.3436 -2.6806 -1.0614
10648TIP3    H253436   3.911   0.109  16.831  0.0843 -0.6734  0.7656
10649TIP3   OH253437   4.641   1.278   2.427 -0.7509  0.2786 -0.1563
10649TIP3    H153438   4.642   1.256   2.334 -1.2741  1.9384 -0.5857
10649TIP3    H253439   4.733   1.297   2.448 -0.4685 -1.1442 -0.0490
10650TIP3   OH253440   0.300   4.420  12.520 -0.1103 -0.1072 -0.6189
10650TIP3    H153441   0.322   4.473  12.444  0.1109 -1.1024 -1.2675
10650TIP3    H253442   0.233   4.359  12.488 -0.7095  0.0877  0.2334
10651TIP3   OH253443   0.186   2.925   5.544  0.0863 -0.1085  0.3522
10651TIP3    H153444   0.095   2.946   5.521 -0.1327 -0.6029  0.7416
10651TIP3    H253445   0.217   3.003   5.590 -0.1972 -0.0070  0.3783
10652TIP3   OH253446   1.214   2.369  13.065  0.0546  0.3960  0.1980
10652TIP3    H153447   1.163   2.330  13.136 -0.1935 -0.4960 -0.4546
10652TIP3    H253448   1.193   2.462  13.069  0.9429  0.5709  2.0330
10653TIP3   OH253449   5.791   1.573   2.064 -0.1523 -0.1119 -0.3098
10653TIP3    H153450   5.794   1.571   1.968 -0.7339  0.4463 -0.3469
10653TIP3    H253451   5.708   1.617   2.084 -0.4024 -0.9177  0.4569
10654TIP3   OH253452   4.359   3.918  16.543 -0.0156  0.0679  0.5959
10654TIP3    H153453   4.415   3.976  16.491 -1.6207  1.6536  0.5130
10654TIP3    H253454   4.414   3.891  16.616  2.1424 -1.7817 -1.5372
10655TIP3   OH253455   1.625   3.054   4.587 -0.5933  0.1831  0.0878
10655TIP3    H153456   1.654   3.119   4.523 -0.4191  0.3928  0.3729
10655TIP3    H253457   1.695   3.053   4.653 -0.2186 -0.8580 -0.3045
10656TIP3   OH253458   0.679   4.100   0.305 -0.0267  0.3387  0.0127
10656TIP3    H153459   0.745   4.074   0.368  1.5691 -0.0037 -1.7209
10656TIP3    H253460   0.639   4.017   0.277 -2.1107  0.6129  1.9132
10657TIP3   OH253461   2.987   6.023  12.342  0.6192 -0.5609 -0.4109
10657TIP3    H153462   3.077   6.052  12.329  0.3449 -0.3811 -2.2248
10657TIP3    H253463   2.977   5.950  12.280 -1.0191  0.6557 -1.6430
10658TIP3   OH253464   3.174   5.026   4.220 -0.7145 -0.1918 -0.0371
10658TIP3    H153465   3.173   5.117   4.192 -0.8054 -1.0337 -3.0327
10658TIP3    H253466   3.117   5.025   4.297 -1.2521  2.1480 -0.3086
10659TIP3   OH253467   4.258   5.317  13.399 -0.3603  0.2910  0.2366
10659TIP3    H153468   4.314   5.268  13.339 -0.8099  1.8957 -1.6122
10659TIP3    H253469   4.303   5.401  13.411 -1.1358  0.6444  0.7593
10660TIP3   OH253470   6.657   2.987   5.947 -0.3135  0.3137  0.4110
10660TIP3    H153471   6.742   2.945   5.937  0.0861  1.4247 -1.1200
10660TIP3    H253472   6.664   3.037   6.029 -0.2437 -1.2129  1.3831
10661TIP3   OH253473   1.850   0.175  12.710  0.3854 -0.2850  0.2666
10661TIP3    H153474   1.799   0.224  12.774 -0.3482 -0.5840 -0.0746
10661TIP3    H253475   1.875   0.240  12.644 -1.4161 -0.5115 -0.7013
10662TIP3   OH253476   2.102   1.504   4.666 -0.0760 -0.1347  0.3389
10662TIP3    H153477   2.091   1.593   4.699  1.1218 -0.3461  1.3746
10662TIP3    H253478   2.077   1.447   4.739  0.6779 -0.6280  0.2278
10663TIP3   OH253479   1.503   0.798   0.700  0.0574  0.1822 -0.0644
10663TIP3    H153480   1.569   0.732   0.723  1.5816  1.3346 -0.9539
10663TIP3    H253481   1.552   0.880   0.691 -1.6684  1.3239  0.2988
10664TIP3   OH253482   5.408   2.341   4.547  0.0576  0.0348  0.1315
10664TIP3    H153483   5.336   2.372   4.603 -0.3441 -2.5864  1.2188
10664TIP3    H253484   5.364   2.289   4.479  0.7122  1.3858 -1.3725
10665TIP3   OH253485   5.952   3.209   4.414  0.2654 -0.4205  0.5174
10665TIP3    H153486   6.048   3.214   4.408  0.1035  1.5020 -2.8279
10665TIP3    H253487   5.928   3.283   4.469  0.6539 -0.9555  1.4378
10666TIP3   OH253488   5.975   3.290  14.563  0.0015 -0.2935 -0.3627
10666TIP3    H153489   6.028   3.258  14.490  2.8042  0.1694  1.3342
10666TIP3    H253490   5.891   3.313  14.523  0.8240 -1.6423 -3.1103
10667TIP3   OH253491   6.469   5.536   1.112  0.0560  0.0521 -0.1144
10667TIP3    H153492   6.484   5.626   1.143  2.9060  0.4987 -2.3926
10667TIP3    H253493   6.530   5.483   1.163  0.8551 -0.0298 -1.1302
10668TIP3   OH253494   4.431   5.448   0.170  0.1187 -1.0053  0.3107
10668TIP3    H153495   4.399   5.431   0.258 -1.0335  0.7757  0.2955
10668TIP3    H253496   4.518   5.485   0.182  0.2165 -1.3412  0.6513
10669TIP3   OH253497   3.443   3.304   0.679 -0.0992 -0.4515 -0.3059
10669TIP3    H153498   3.513   3.325   0.618  0.9753 -0.7532  0.7959
10669TIP3    H253499   3.384   3.247   0.629  0.6584 -0.5511 -1.1095
10670TIP3   OH253500   3.107   0.029   3.935  0.0082  0.0360  0.3953
10670TIP3    H153501   3.111  -0.066   3.934  1.1788  0.0720  0.2822
10670TIP3    H253502   3.015   0.050   3.918 -0.0044 -1.0475 -0.9837
10671TIP3   OH253503   0.508   4.880   0.307  0.6118 -0.1526 -0.7810
10671TIP3    H153504   0.479   4.851   0.220  1.0713  0.2474 -1.0761
10671TIP3    H253505   0.580   4.821   0.329  0.1391 -0.6008 -0.4278
10672TIP3   OH253506   6.846   3.346   1.516 -0.2809  0.0214  0.0782
10672TIP3    H153507   6.771   3.287   1.529 -0.8433  0.3366 -1.4962
10672TIP3    H253508   6.820   3.402   1.443  2.1324 -1.0065 -1.7352
10673TIP3   OH253509   3.905   4.077  15.373  0.2067  0.2020  0.7390
10673TIP3    H153510   3.827   4.025  15.356 -0.7284  1.4401  1.1011
10673TIP3    H253511   3.925   4.118  15.288  1.2768 -1.1426  0.3107
10674TIP3   OH253512   0.054   0.668   1.713 -0.0930  0.3075 -0.4919
10674TIP3    H153513   0.098   0.604   1.658 -2.7062 -1.3495 -0.8066
10674TIP3    H253514  -0.039   0.647   1.706 -0.7886  1.9757  2.1455
10675TIP3   OH253515   5.744   0.864  13.208  0.0476 -0.0660 -1.0382
10675TIP3    H153516   5.829   0.909  13.208 -0.4261  0.9156  0.5168
10675TIP3    H253517   5.764   0.776  13.239  0.5993 -0.0748 -1.4044
10676TIP3   OH253518   6.152   2.511  13.899 -0.7329 -0.3423  0.5176
10676TIP3    H153519   6.233   2.522  13.949 -0.7789 -0.1495  0.5519
10676TIP3    H253520   6.093   2.464  13.958 -0.7733 -0.1496  0.6296
10677TIP3   OH253521   1.835   4.267   3.005  0.4462 -0.7938 -0.7351
10677TIP3    H153522   1.816   4.323   3.080 -0.9750 -2.2376  0.0304
10677TIP3    H253523   1.839   4.327   2.930  2.0717  0.6976  0.4750
10678TIP3   OH253524   4.205   1.756  16.842  0.3780 -0.2382  0.3172
10678TIP3    H153525   4.284   1.720  16.884 -0.7656 -2.4882  0.7464
10678TIP3    H253526   4.184   1.834  16.893  1.7185 -0.2382  0.8991
10679TIP3   OH253527   2.398   5.630  12.105 -0.6047  0.6144 -0.1922
10679TIP3    H153528   2.344   5.568  12.155  0.1554  1.6463  2.0644
10679TIP3    H253529   2.483   5.588  12.096 -1.0955 -0.1115 -1.8604
10680TIP3   OH253530   3.305   6.651   2.022 -0.5976 -0.0440  0.5038
10680TIP3    H153531   3.384   6.616   2.065  0.4846  0.1273 -1.2428
10680TIP3    H253532   3.298   6.601   1.941 -1.9708  0.3596  0.3510
10681TIP3   OH253533   6.606   2.923   5.689 -0.3615  0.3905  0.3172
10681TIP3    H153534   6.528   2.873   5.712  1.2304 -1.3686  2.1830
10681TIP3    H253535   6.634   2.963   5.771  0.4359  1.4410 -0.4403
10682TIP3   OH253536   1.893   5.691  11.689  0.5530  0.7336 -0.0714
10682TIP3    H153537   1.938   5.773  11.711  2.9153 -0.5578  0.2505
10682TIP3    H253538   1.911   5.677  11.596 -0.3217  0.8371 -0.2658
10683TIP3   OH253539   2.426   5.784   5.639 -0.2358  0.3329  0.1101
10683TIP3    H153540   2.396   5.724   5.708  0.4950  1.1106  1.1295
10683TIP3    H253541   2.478   5.728   5.581 -0.7724 -0.3148  0.2340
10684TIP3   OH253542   4.519   6.606   1.710  0.2178  0.9677 -0.2059
10684TIP3    H153543   4.609   6.575   1.719  0.2582  1.3137  0.6336
10684TIP3    H253544   4.474   6.535   1.664  1.0883  1.1200 -1.3523
10685TIP3   OH253545   4.332   5.395  16.050 -0.4006 -0.1275  0.0867
10685TIP3    H153546   4.268   5.363  15.986  0.1712 -1.7949  0.3080
10685TIP3    H253547   4.339   5.324  16.115  0.0250  0.9640  1.2809
10686TIP3   OH253548   4.912   6.700   4.150  0.2035  0.1643 -0.0387
10686TIP3    H153549   4.936   6.759   4.078  0.2829  1.0137  0.6650
10686TIP3    H253550   4.819   6.718   4.166  0.0390 -0.4437 -0.3145
10687TIP3   OH253551   0.569   3.856   1.386  0.1319  0.7821 -0.0467
10687TIP3    H153552   0.618   3.793   1.333  1.6071 -1.8498  4.0002
10687TIP3    H253553   0.480   3.852   1.351  0.7676 -1.5458 -1.6823
10688TIP3   OH253554   1.705   4.800   4.459 -0.7270  0.3236  0.6182
10688TIP3    H153555   1.704   4.704   4.459 -1.0455  0.3099 -0.5833
10688TIP3    H253556   1.621   4.824   4.499 -1.3419  0.0784 -0.4958
10689TIP3   OH253557   4.850   3.218  16.424 -0.3552  0.1061 -0.4745
10689TIP3    H153558   4.914   3.285  16.397 -0.2926  0.9370  1.5226
10689TIP3    H253559   4.804   3.258  16.498 -2.0347 -1.1468 -0.7909
10690TIP3   OH253560   1.556   4.322   1.987  0.0513 -0.3641 -0.0933
10690TIP3    H153561   1.539   4.310   1.894  0.5160 -1.2992 -0.0695
10690TIP3    H253562   1.513   4.246   2.029  0.5263 -0.3826  0.3717
10691TIP3   OH253563   4.896   2.788   0.182 -0.1707  0.4945  0.1519
10691TIP3    H153564   4.830   2.824   0.123  0.7620  0.6274 -0.8345
10691TIP3    H253565   4.975   2.838   0.163  0.7141 -0.9174 -0.0495
10692TIP3   OH253566   4.573   2.470   3.929 -0.2570 -0.0479  0.9150
10692TIP3    H153567   4.625   2.533   3.979 -0.3864 -0.5465  1.6994
10692TIP3    H253568   4.634   2.436   3.864  0.2253 -0.1692  1.4185
10693TIP3   OH253569   3.259   1.508   1.381  0.6437 -0.5117  0.2435
10693TIP3    H153570   3.228   1.432   1.332  1.6084  0.4590 -2.0162
10693TIP3    H253571   3.354   1.498   1.382  0.6275 -0.7396  2.4021
10694TIP3   OH253572   3.128   2.736   2.120 -0.5201  0.6487 -0.1013
10694TIP3    H153573   3.088   2.663   2.166 -0.7561  2.2570  2.4375
10694TIP3    H253574   3.187   2.776   2.185  1.1831  1.4933 -2.0553
10695TIP3   OH253575   4.255   4.377   5.589  0.5857 -0.3012 -0.2992
10695TIP3    H153576   4.234   4.311   5.523 -0.6233  0.6549 -0.9070
10695TIP3    H253577   4.230   4.337   5.672  1.1670 -1.1300 -0.5177
10696TIP3   OH253578   3.586   1.139   0.413  0.1180 -0.1617 -0.5170
10696TIP3    H153579   3.529   1.207   0.376 -0.9827  0.0658  1.4253
10696TIP3    H253580   3.554   1.057   0.374 -1.5958 -0.0347  0.5144
10697TIP3   OH253581   1.476   6.773  11.544 -0.1190 -0.0587 -0.3482
10697TIP3    H153582   1.527   6.790  11.465 -0.3473  0.7636 -0.3283
10697TIP3    H253583   1.529   6.807  11.616 -1.9796  3.9296 -0.5746
10698TIP3   OH253584   5.751   5.704   6.214  0.0839  0.6707 -0.1574
10698TIP3    H153585   5.696   5.663   6.147 -0.1639  0.0049  0.4351
10698TIP3    H253586   5.840   5.689   6.184 -0.0242  2.8356 -1.7623
10699TIP3   OH253587   4.099   2.437  11.705  0.1507 -0.6501  0.1137
10699TIP3    H153588   4.040   2.488  11.761 -0.0827  0.0570 -0.7463
10699TIP3    H253589   4.099   2.350  11.744 -0.6247 -0.3840  0.7517
10700TIP3   OH253590   1.089   1.270  16.561 -0.1571  0.3013  0.8465
10700TIP3    H153591   1.003   1.303  16.586  0.3713  1.9616  0.5819
10700TIP3    H253592   1.144   1.285  16.638  0.3461  1.0787  0.3506
10701TIP3   OH253593   3.413   5.863   1.636  0.0306 -0.0067  0.4462
10701TIP3    H153594   3.447   5.809   1.708 -1.2954 -0.9944  0.3779
10701TIP3    H253595   3.345   5.809   1.596  0.0352  0.9402 -0.9185
10702TIP3   OH253596   6.119   0.527  15.201 -0.0045  0.1115  0.3187
10702TIP3    H153597   6.087   0.439  15.180  0.7248  0.1783 -1.1631
10702TIP3    H253598   6.052   0.586  15.168  0.7620  0.1855 -1.1867
10703TIP3   OH253599   4.187   4.216  15.915 -0.0742 -0.4532 -0.1850
10703TIP3    H153600   4.181   4.213  15.819 -0.6299 -1.3311 -0.1379
10703TIP3    H253601   4.134   4.142  15.944  0.4494 -0.4535  0.7957
10704TIP3   OH253602   2.072   6.792  16.715  0.1757  0.5367  0.5550
10704TIP3    H153603   2.076   6.802  16.810  0.6519 -0.2974  0.6208
10704TIP3    H253604   1.980   6.774  16.697 -0.2166  2.2111  0.6927
10705TIP3   OH253605   5.531   1.979  13.364  0.1073 -0.7634  0.3178
10705TIP3    H153606   5.494   2.052  13.415 -0.3648  0.1982 -1.3238
10705TIP3    H253607   5.457   1.920  13.351  0.1769 -0.9068  0.5718
10706TIP3   OH253608   3.241   6.120   5.857 -0.1456  0.0687 -0.3396
10706TIP3    H153609   3.316   6.060   5.858 -0.4922 -0.3828  1.0674
10706TIP3    H253610   3.270   6.195   5.910 -0.3476  0.3320 -0.6019
10707TIP3   OH253611   4.174   3.011  13.720 -0.4346 -0.6863 -0.5823
10707TIP3    H153612   4.141   2.956  13.650 -2.3500  0.4777 -0.6801
10707TIP3    H253613   4.209   2.950  13.785  1.5148 -1.7751 -2.5569
10708TIP3   OH253614   3.103   6.093   4.993 -0.1095  0.3038 -0.3635
10708TIP3    H153615   3.035   6.152   5.025  0.0411  0.2318  0.0898
10708TIP3    H253616   3.160   6.149   4.939  0.3552  0.7011  0.5180
10709TIP3   OH253617   0.319   4.702  16.333 -0.1780  0.5923  0.4030
10709TIP3    H153618   0.350   4.634  16.392  0.9823  1.4604  0.8366
10709TIP3    H253619   0.243   4.740  16.377  0.3146  0.8236  1.0629
10710TIP3   OH253620   0.798   3.583   4.845  0.1151  0.4677 -0.7231
10710TIP3    H153621   0.713   3.626   4.836 -0.2417 -0.0433  0.1086
10710TIP3    H253622   0.783   3.513   4.908  0.6638 -0.9152 -2.0653
10711TIP3   OH253623   1.979   5.091   2.522 -0.2954  0.0833 -0.1542
10711TIP3    H153624   1.979   5.101   2.617  1.5590  0.5698 -0.1671
10711TIP3    H253625   2.068   5.064   2.501 -0.3795  1.0028 -1.8500
10712TIP3   OH253626   0.084   3.724  13.930 -0.7830 -0.4569  0.2507
10712TIP3    H153627   0.012   3.782  13.955  1.0487  2.1919 -0.1005
10712TIP3    H253628   0.155   3.747  13.990  0.5324 -1.1826 -0.9560
10713TIP3   OH253629   5.733   0.601   2.253  0.5771 -0.2944 -0.0267
10713TIP3    H153630   5.813   0.654   2.254 -0.0857  0.7543 -0.2470
10713TIP3    H253631   5.710   0.593   2.161 -1.4520  2.4555  0.1078
10714TIP3   OH253632   5.585   5.256   2.308  0.1302 -0.1175 -0.3059
10714TIP3    H153633   5.678   5.246   2.287 -0.0858 -0.8105 -1.0070
10714TIP3    H253634   5.573   5.207   2.389  0.3566 -0.1193 -0.2723
10715TIP3   OH253635   2.229   3.811   1.733  0.0110  0.2482 -0.4048
10715TIP3    H153636   2.142   3.777   1.755 -0.0247  1.0784  0.8782
10715TIP3    H253637   2.279   3.803   1.815  0.8843  0.5667 -0.8931
10716TIP3   OH253638   6.300   3.611   0.092  0.4378 -0.0799  0.6025
10716TIP3    H153639   6.235   3.651   0.035 -1.1112 -1.8404  1.0050
10716TIP3    H253640   6.275   3.640   0.180 -1.0339 -2.1608  0.9600
10717TIP3   OH253641   6.370   0.183   0.329  0.0363  0.4759 -0.0854
10717TIP3    H153642   6.420   0.190   0.410 -2.8735 -2.0289  2.1632
10717TIP3    H253643   6.298   0.245   0.340 -2.2616 -2.1802  0.9389
10718TIP3   OH253644   4.390   5.020  13.047 -0.2419  0.0039  0.6905
10718TIP3    H153645   4.452   5.092  13.031 -2.4342  2.0036  0.5457
10718TIP3    H253646   4.304   5.062  13.040 -1.6778 -2.9041 -0.4690
10719TIP3   OH253647   4.527   0.437   1.508  0.5411 -0.5265  0.8819
10719TIP3    H153648   4.526   0.354   1.556  1.9981 -2.1006 -1.5810
10719TIP3    H253649   4.471   0.421   1.432  0.5593  0.9115  0.5333
10720TIP3   OH253650   2.168   1.444   3.910  0.4023 -0.1202 -0.1059
10720TIP3    H153651   2.230   1.512   3.935 -1.3709  1.1799  0.9162
10720TIP3    H253652   2.215   1.362   3.927  1.8636  0.8073  0.5386
10721TIP3   OH253653   3.362   4.242   3.394  0.4511 -0.3747  0.3874
10721TIP3    H153654   3.293   4.307   3.406 -0.8599 -1.1687 -2.1698
10721TIP3    H253655   3.442   4.294   3.385 -0.7133  1.1679 -2.9312
10722TIP3   OH253656   3.579   3.960   0.242  0.1209  0.4663  0.3150
10722TIP3    H153657   3.622   3.879   0.214 -0.3296  0.0452  0.8136
10722TIP3    H253658   3.576   3.953   0.338  0.0249  1.0455  0.3568
10723TIP3   OH253659   0.291   2.283  10.884 -0.5020  0.0267  0.7890
10723TIP3    H153660   0.319   2.277  10.793 -0.4304 -0.4876  0.8410
10723TIP3    H253661   0.211   2.335  10.881 -1.0784 -0.8538  0.2991
10724TIP3   OH253662   3.318   6.622   0.645  0.3348 -0.0275  0.1622
10724TIP3    H153663   3.378   6.644   0.574  0.8715  0.3120  0.6997
10724TIP3    H253664   3.337   6.688   0.713 -1.3799  0.7408 -0.0518
10725TIP3   OH253665   4.074   5.309   2.357 -0.8090  0.6018 -0.1886
10725TIP3    H153666   4.097   5.372   2.426 -0.8881 -0.5643  0.9231
10725TIP3    H253667   4.053   5.364   2.281  1.8049  1.8710 -0.1128
10726TIP3   OH253668   4.056   5.996  14.579  0.0819 -0.4148 -0.5289
10726TIP3    H153669   4.139   5.960  14.547  0.0840 -1.2903  0.4139
10726TIP3    H253670   3.992   5.970  14.512  0.7334  1.3676 -1.9296
10727TIP3   OH253671   3.832   3.393  14.953 -0.3208 -0.2738  0.6656
10727TIP3    H153672   3.780   3.439  14.887  2.0215  0.5246 -0.7363
10727TIP3    H253673   3.813   3.439  15.035 -0.5933  1.0214 -0.1060
10728TIP3   OH253674   0.173   2.761  10.199  0.1144  0.2941 -0.3988
10728TIP3    H153675   0.104   2.743  10.262  0.8064  0.8467  0.5384
10728TIP3    H253676   0.252   2.770  10.252  0.7786  0.3723 -1.3836
10729TIP3   OH253677   6.370   0.295  15.060  0.2511 -0.3284  0.4446
10729TIP3    H153678   6.324   0.274  14.979  0.7397  0.3845 -0.0193
10729TIP3    H253679   6.331   0.236  15.125 -1.9351  0.8190  0.2641
10730TIP3   OH253680   6.189   1.647   0.589 -0.3241  0.0688 -0.2786
10730TIP3    H153681   6.110   1.689   0.625 -0.2666 -0.0313 -0.0337
10730TIP3    H253682   6.166   1.555   0.582  0.0663 -0.1053  0.6188
10731TIP3   OH253683   0.376   3.910  16.216  0.1333  0.4135 -0.8534
10731TIP3    H153684   0.469   3.914  16.237 -0.3028  0.2884  1.2656
10731TIP3    H253685   0.335   3.870  16.292 -1.6505  0.2178 -1.8459
10732TIP3   OH253686   0.057   3.071   1.347 -0.9907  0.0635  0.3690
10732TIP3    H153687   0.054   2.982   1.311  1.0985 -0.0550  0.3972
10732TIP3    H253688   0.130   3.070   1.409 -1.1612  1.7053  0.6450
10733TIP3   OH253689   6.682   3.139   2.539 -0.1709 -0.5479 -0.0387
10733TIP3    H153690   6.615   3.177   2.482 -0.4294 -0.2898  0.4243
10733TIP3    H253691   6.650   3.157   2.628  1.2273  0.9001  0.2146
10734TIP3   OH253692   2.785   4.909  12.153 -0.8028 -0.4214  0.3859
10734TIP3    H153693   2.742   4.893  12.237  1.8645 -2.6521  1.4860
10734TIP3    H253694   2.747   4.843  12.095 -0.0276 -1.3970  0.9440
10735TIP3   OH253695   2.135   0.506   3.810  0.4833  0.0955  0.0404
10735TIP3    H153696   2.041   0.501   3.831  0.1919 -0.8882 -1.3745
10735TIP3    H253697   2.142   0.579   3.748  0.9060  1.1377  1.2747
10736TIP3   OH253698   3.426   2.826   5.155  0.3476 -0.0801  0.1794
10736TIP3    H153699   3.486   2.899   5.174 -1.0601  1.1388  0.1192
10736TIP3    H253700   3.408   2.788   5.241  0.4244  0.1927  0.3189
10737TIP3   OH253701   2.351   0.130   5.521 -0.1431 -0.0197 -0.7355
10737TIP3    H153702   2.442   0.147   5.544 -0.0086 -0.6538 -0.7921
10737TIP3    H253703   2.301   0.162   5.596  0.3048 -2.3981  0.6628
10738TIP3   OH253704   6.618   4.796  15.889 -0.5595  0.2368  0.0240
10738TIP3    H153705   6.702   4.838  15.872 -0.4618  1.8066  3.5262
10738TIP3    H253706   6.635   4.738  15.963 -2.6532  1.1825  1.3341
10739TIP3   OH253707   4.292   0.369   3.792 -0.1445 -0.3869  0.0251
10739TIP3    H153708   4.345   0.436   3.834  1.3677 -1.6010  0.1218
10739TIP3    H253709   4.353   0.321   3.736 -1.5358 -0.6132 -1.3889
10740TIP3   OH253710   2.111   3.035  15.959  0.2895  0.2949 -0.4705
10740TIP3    H153711   2.090   2.948  15.926  2.0355 -0.2505 -0.2190
10740TIP3    H253712   2.139   3.022  16.049  0.5234  1.1298 -0.4099
10741TIP3   OH253713   2.427   6.426   1.657 -0.2315  0.0272  0.2434
10741TIP3    H153714   2.360   6.400   1.594 -0.3593  0.7052  0.0877
10741TIP3    H253715   2.378   6.456   1.733 -0.0712 -1.6282  1.0355
10742TIP3   OH253716   4.735   4.874   0.756 -0.0212 -0.4690 -0.1188
10742TIP3    H153717   4.774   4.872   0.668  1.2498  1.6669  0.3263
10742TIP3    H253718   4.790   4.935   0.805 -1.3984 -0.7258  1.8451
10743TIP3   OH253719   2.899   4.202   0.443 -0.0778  0.1485 -0.0904
10743TIP3    H153720   2.855   4.174   0.363  0.2810  2.1771 -1.0692
10743TIP3    H253721   2.957   4.130   0.465 -1.3793 -1.1477 -0.6960
10744TIP3   OH253722   4.616   4.505  11.014 -0.7234  0.4694  0.5466
10744TIP3    H153723   4.706   4.522  10.987 -0.4328  0.3368  1.3930
10744TIP3    H253724   4.562   4.545  10.946 -0.0345  1.4899  0.5819
10745TIP3   OH253725   4.571   6.759  13.155 -0.3980 -0.4122 -0.3811
10745TIP3    H153726   4.496   6.812  13.181 -0.7103 -0.3121 -1.4131
10745TIP3    H253727   4.610   6.729  13.237  0.7148  2.6706  0.3758
10746TIP3   OH253728   5.787   1.123   0.167 -0.3013 -0.2415 -0.2199
10746TIP3    H153729   5.862   1.076   0.205 -0.0511 -0.3996 -0.8990
10746TIP3    H253730   5.826   1.196   0.120 -0.5673 -0.3528 -0.6185
10747TIP3   OH253731   4.248   4.696   0.582  0.1493 -0.1781  0.1461
10747TIP3    H153732   4.343   4.688   0.580  0.1404 -0.4224  0.6845
10747TIP3    H253733   4.216   4.607   0.568 -0.0106 -0.0111 -0.5977
10748TIP3   OH253734   3.213   5.125   1.088 -0.3399 -0.1929  0.5137
10748TIP3    H153735   3.288   5.182   1.072 -1.1223  0.7843  0.2306
10748TIP3    H253736   3.249   5.037   1.088  0.5514  0.1241 -1.3713
10749TIP3   OH253737   2.005   4.353   4.243 -0.3418 -0.3248 -0.4150
10749TIP3    H153738   2.043   4.278   4.198 -1.9315 -0.4520 -1.6196
10749TIP3    H253739   2.038   4.346   4.333  1.5781 -0.9975 -1.1058
10750TIP3   OH253740   3.439   1.605  12.247  0.6157  0.4077  0.1016
10750TIP3    H153741   3.417   1.668  12.179  0.7150  0.3375  0.0055
10750TIP3    H253742   3.497   1.654  12.307  0.3615  0.5302  0.2475
10751TIP3   OH253743   5.019   0.753  14.750  0.3510 -0.7225 -1.0171
10751TIP3    H153744   5.099   0.734  14.799  0.3951 -0.7547 -1.1011
10751TIP3    H253745   4.973   0.669  14.744  0.9963 -1.0226 -2.1944
10752TIP3   OH253746   2.775   3.262  13.842 -0.0556  0.1408  0.3464
10752TIP3    H153747   2.746   3.202  13.773  1.3659  0.7241 -0.8043
10752TIP3    H253748   2.750   3.348  13.811  0.2777  0.3828  0.7329
10753TIP3   OH253749   0.970   3.371   5.667  0.4374 -0.1316  0.0765
10753TIP3    H153750   0.980   3.276   5.675 -0.5067 -0.1325  1.8441
10753TIP3    H253751   0.889   3.390   5.715  0.0750  1.4596 -1.1045
10754TIP3   OH253752   2.540   5.662   1.643  0.0147  0.1688 -0.3924
10754TIP3    H153753   2.599   5.648   1.718 -1.1723 -1.3132  0.3173
10754TIP3    H253754   2.595   5.704   1.577  1.0248  1.8274  1.4115
10755TIP3   OH253755   6.229   5.613   4.920 -0.3324 -0.4948  0.1395
10755TIP3    H153756   6.143   5.572   4.924 -0.7733  0.1372 -1.9887
10755TIP3    H253757   6.278   5.561   4.856 -0.8443  2.0010 -2.4772
10756TIP3   OH253758   6.856   4.948  14.082  0.4003 -0.2611  0.4406
10756TIP3    H153759   6.941   4.913  14.055  0.3873 -0.3779  0.5486
10756TIP3    H253760   6.829   5.003  14.009  1.5098  1.4062  1.2372
10757TIP3   OH253761   5.608   4.741  12.324 -0.5683  0.0418 -0.2342
10757TIP3    H153762   5.599   4.756  12.230 -0.6369 -1.0992 -0.4175
10757TIP3    H253763   5.553   4.665  12.343  1.2715 -1.2397  0.2790
10758TIP3   OH253764   2.120   6.847  15.153  0.1139 -0.0433  0.0802
10758TIP3    H153765   2.075   6.772  15.192 -1.0400  0.9006  0.6374
10758TIP3    H253766   2.123   6.827  15.060  1.5348 -1.6315  0.4409
10759TIP3   OH253767   6.769   0.559  12.383 -0.3434 -0.0558  0.6775
10759TIP3    H153768   6.714   0.539  12.308 -1.3208 -0.6443  1.5231
10759TIP3    H253769   6.839   0.614  12.348 -0.7973 -0.2912 -0.6413
10760TIP3   OH253770   6.532   6.260  14.996  0.2132  0.0905 -0.4721
10760TIP3    H153771   6.544   6.353  14.977 -2.0859  0.2483 -1.5178
10760TIP3    H253772   6.532   6.255  15.092 -0.3731  1.3011 -0.3897
10761TIP3   OH253773   4.241   1.751   3.780 -0.1215  0.2096  0.9414
10761TIP3    H153774   4.301   1.773   3.709 -0.4447 -0.1168  0.5557
10761TIP3    H253775   4.195   1.833   3.799 -0.0915  0.2788  0.7173
10762TIP3   OH253776   2.861   3.125   1.454  0.3772  0.0629 -0.1588
10762TIP3    H153777   2.825   3.073   1.526  1.5940 -1.7711 -0.8124
10762TIP3    H253778   2.888   3.060   1.389  2.9061  1.4373 -0.5981
10763TIP3   OH253779   1.001   3.120  13.796  0.1397  0.1888 -0.0788
10763TIP3    H153780   1.033   3.069  13.722  1.5821 -1.4074  1.5432
10763TIP3    H253781   0.906   3.107  13.796  0.1096  0.2288 -1.5998
10764TIP3   OH253782   6.782   5.482   6.053  0.5021  0.0010 -0.3782
10764TIP3    H153783   6.816   5.539   6.122 -0.2711 -0.3646  0.3197
10764TIP3    H253784   6.856   5.471   5.993  1.1959  0.3168  0.3933
10765TIP3   OH253785   4.630   3.340   0.223  0.0447 -0.0616 -0.2222
10765TIP3    H153786   4.599   3.431   0.218  0.3046 -0.0219 -1.3308
10765TIP3    H253787   4.725   3.347   0.213 -0.0759 -0.5601 -2.0841
10766TIP3   OH253788   1.022   5.383   2.555  0.1898 -0.3804  0.2443
10766TIP3    H153789   1.032   5.291   2.532 -2.5134 -0.2816 -1.8024
10766TIP3    H253790   0.940   5.387   2.604  0.1542  0.9550  0.1152
10767TIP3   OH253791   4.591   1.784  16.843 -0.2901  0.3129  0.4450
10767TIP3    H153792   4.629   1.847  16.903 -1.4202  0.0546  1.4650
10767TIP3    H253793   4.524   1.738  16.894 -1.1332 -0.0759 -0.9378
10768TIP3   OH253794   4.466   3.388   1.986 -0.3656 -0.8529 -0.4000
10768TIP3    H153795   4.474   3.458   1.920  0.6740 -0.6447 -0.0709
10768TIP3    H253796   4.526   3.320   1.956 -1.3804 -1.6267 -0.7201
10769TIP3   OH253797   5.082   6.880   0.836 -0.0390  0.4095  0.2327
10769TIP3    H153798   5.050   6.833   0.913  1.4583  1.2100  1.4046
10769TIP3    H253799   5.098   6.812   0.771 -2.1684 -0.2070  0.2594
10770TIP3   OH253800   5.034   6.545  13.351 -0.0540  0.6461  0.0859
10770TIP3    H153801   4.962   6.605  13.372  1.5432  2.9596 -0.5940
10770TIP3    H253802   5.082   6.536  13.433 -0.6995 -0.3347  0.3678
10771TIP3   OH253803   3.147   6.828   2.115 -0.3364  0.7502 -0.4403
10771TIP3    H153804   3.211   6.763   2.086  0.8521  0.7324  2.0030
10771TIP3    H253805   3.062   6.784   2.105  0.0607  0.3281 -2.5568
10772TIP3   OH253806   3.496   5.792  14.512 -0.5312  0.4910 -0.0828
10772TIP3    H153807   3.445   5.742  14.447 -0.7157 -1.0382  1.1657
10772TIP3    H253808   3.430   5.825  14.573 -0.2872  1.2065 -0.2004
10773TIP3   OH253809   5.483   4.363  13.525  0.1813  0.1332  0.0163
10773TIP3    H153810   5.447   4.445  13.559  1.8399  0.8246  0.1752
10773TIP3    H253811   5.504   4.382  13.433 -1.8108 -0.9318 -0.7325
10774TIP3   OH253812   6.472   5.948   1.886 -0.4621 -0.6810 -0.2585
10774TIP3    H153813   6.382   5.970   1.910 -0.7158 -1.2012 -0.7106
10774TIP3    H253814   6.522   5.962   1.966 -0.8077  0.3613 -0.2065
10775TIP3   OH253815   3.978   0.281  13.179 -0.7921 -0.0856  0.4490
10775TIP3    H153816   3.987   0.375  13.167 -1.4909 -0.0884 -0.1629
10775TIP3    H253817   3.985   0.244  13.091  0.9975 -0.7610  0.8326
10776TIP3   OH253818   3.786   0.651   0.472 -0.2059 -0.3493 -0.7683
10776TIP3    H153819   3.711   0.615   0.424 -1.8031  1.5680  0.1594
10776TIP3    H253820   3.824   0.715   0.412  0.3073 -0.8284 -0.9702
10777TIP3   OH253821   5.624   5.862  11.745 -0.1764  0.4637  0.0890
10777TIP3    H153822   5.571   5.857  11.665 -0.1516  0.9933  0.0343
10777TIP3    H253823   5.646   5.771  11.765 -0.7523  0.2706 -0.1266
10778TIP3   OH253824   1.336   5.324   5.274  0.0960  0.2915  0.0349
10778TIP3    H153825   1.280   5.344   5.199  0.2629  0.5178 -0.0330
10778TIP3    H253826   1.333   5.229   5.282 -1.1813  0.3652  0.7158
10779TIP3   OH253827   6.057   4.006   1.676 -0.4482  0.4457 -0.2269
10779TIP3    H153828   6.108   4.077   1.716  2.1393 -0.0970 -2.2476
10779TIP3    H253829   6.066   3.933   1.737 -1.4765  1.2237  0.9134
10780TIP3   OH253830   2.214   0.032   2.729 -0.1247  0.4315  0.5807
10780TIP3    H153831   2.235  -0.016   2.809 -0.8689  0.7760  0.9945
10780TIP3    H253832   2.279   0.002   2.665  0.6487  0.3456  1.3821
10781TIP3   OH253833   4.710   2.330   2.473 -0.7727 -0.0283  0.4972
10781TIP3    H153834   4.745   2.418   2.462 -1.1618 -0.0569 -1.2909
10781TIP3    H253835   4.615   2.342   2.479 -0.6890 -0.1491  2.8820
10782TIP3   OH253836   0.196   6.353   1.082 -0.2129 -0.4139  0.0426
10782TIP3    H153837   0.237   6.383   1.163  0.2985 -0.3164 -0.2514
10782TIP3    H253838   0.252   6.387   1.012 -1.0660  0.1539 -0.3824
10783TIP3   OH253839   6.326   6.643  13.463 -0.4954  0.1041 -0.0633
10783TIP3    H153840   6.290   6.707  13.400  0.3050 -0.2971 -0.9491
10783TIP3    H253841   6.252   6.622  13.520 -1.4217  0.0322 -1.2485
10784TIP3   OH253842   1.850   2.553  14.282 -0.1973 -0.1338  0.2751
10784TIP3    H153843   1.847   2.642  14.246 -0.8882 -0.0088  0.6284
10784TIP3    H253844   1.879   2.498  14.209  1.2637  0.5217  0.3326
10785TIP3   OH253845   1.269   3.738   2.626  0.0344 -0.2708  0.2146
10785TIP3    H153846   1.200   3.706   2.568 -0.4408 -0.5478  0.9132
10785TIP3    H253847   1.325   3.791   2.570  1.3015 -2.8952 -1.1769
10786TIP3   OH253848   4.705   1.349   4.125  0.3527  0.0838 -0.0580
10786TIP3    H153849   4.714   1.338   4.219 -0.4608 -1.9604 -0.1688
10786TIP3    H253850   4.791   1.328   4.089  0.4129 -0.0598  0.1726
10787TIP3   OH253851   6.666   0.821  10.779  0.5338 -0.0250  0.2070
10787TIP3    H153852   6.661   0.745  10.838 -0.6579 -0.8496 -0.8877
10787TIP3    H253853   6.743   0.804  10.725  0.8059  0.0152  0.5791
10788TIP3   OH253854   1.549   0.229  13.657 -0.3402 -0.3143 -0.2964
10788TIP3    H153855   1.598   0.159  13.614 -0.6043  0.6401 -2.2250
10788TIP3    H253856   1.458   0.215  13.630 -0.4288  0.6270 -0.5098
10789TIP3   OH253857   3.687   2.464   4.684 -0.0890 -0.4218 -0.4542
10789TIP3    H153858   3.673   2.524   4.611 -1.3716 -1.5315 -1.1807
10789TIP3    H253859   3.781   2.446   4.683  0.0667  0.3851 -1.1828
10790TIP3   OH253860   3.381   3.124   1.462  0.2295 -0.5594 -0.1059
10790TIP3    H153861   3.304   3.152   1.412  0.0250  1.2998  1.1479
10790TIP3    H253862   3.347   3.059   1.522 -0.7097  1.1237  1.2874
10791TIP3   OH253863   6.226   6.581   2.310  0.1986  0.3824 -1.0589
10791TIP3    H153864   6.293   6.513   2.308  0.3276 -0.0422  4.2981
10791TIP3    H253865   6.253   6.639   2.381 -3.7455  1.6951 -0.3979
10792TIP3   OH253866   2.749   6.676   1.308 -0.1702  0.4881  0.3611
10792TIP3    H153867   2.758   6.588   1.345 -1.0598 -0.0562 -0.7059
10792TIP3    H253868   2.747   6.663   1.214 -2.2215  1.4558  0.2185
10793TIP3   OH253869   1.944   2.939  14.444  0.0613  0.1209  0.0263
10793TIP3    H153870   1.917   2.912  14.356  0.1397 -0.1503  0.0864
10793TIP3    H253871   1.867   2.922  14.498 -0.4524  1.5027 -0.2181
10794TIP3   OH253872   5.053   4.701  10.700  0.1491  0.4002 -0.7330
10794TIP3    H153873   5.104   4.636  10.748  0.4282  0.4034 -1.0202
10794TIP3    H253874   5.091   4.785  10.725 -0.8909  0.5478  0.4599
10795TIP3   OH253875   4.784   1.971   5.424 -0.1013 -0.1611  0.1248
10795TIP3    H153876   4.872   1.946   5.396  0.3139  1.7066 -0.3797
10795TIP3    H253877   4.728   1.950   5.349 -0.0633 -1.0889  0.3427
10796TIP3   OH253878   4.926   1.596   3.550  0.4509  0.3586  0.0687
10796TIP3    H153879   4.863   1.640   3.607  0.9891  0.7520  0.3648
10796TIP3    H253880   4.944   1.659   3.481  1.3689  0.7003  0.5980
10797TIP3   OH253881   5.349   6.624   1.941  0.4251  0.2156  0.1073
10797TIP3    H153882   5.405   6.590   1.872 -0.9772 -0.2984 -0.8220
10797TIP3    H253883   5.329   6.714   1.913  0.1210  0.1179  0.0087
10798TIP3   OH253884   6.348   0.270  15.966  0.0179  0.4819  0.2617
10798TIP3    H153885   6.375   0.244  16.054 -0.7203 -0.4801  0.2188
10798TIP3    H253886   6.398   0.213  15.908 -1.5670 -0.8704  0.1634
10799TIP3   OH253887   1.671   0.577   0.415  0.0200  0.0859  0.0749
10799TIP3    H153888   1.682   0.619   0.330 -1.5732  2.4441  0.9279
10799TIP3    H253889   1.747   0.519   0.423  0.8463  0.6822 -2.4044
10800TIP3   OH253890   0.779   3.566  15.544  0.0147  0.4915  0.0821
10800TIP3    H153891   0.855   3.596  15.495 -1.4722  0.5949 -2.3098
10800TIP3    H253892   0.706   3.569  15.482 -1.1983 -3.6502  0.9609
10801TIP3   OH253893   4.188   4.902  13.730 -0.4287 -0.1152 -1.1066
10801TIP3    H153894   4.199   4.997  13.735  0.9218 -0.3251  0.6964
10801TIP3    H253895   4.220   4.880  13.642  4.4671  0.5895  0.1994
10802TIP3   OH253896   0.371   5.706   1.875 -0.0209 -0.3045  0.2569
10802TIP3    H153897   0.401   5.797   1.863  0.9874 -0.4848  1.2121
10802TIP3    H253898   0.419   5.676   1.952 -2.5904 -0.6752  1.8468
10803TIP3   OH253899   3.847   2.162   0.120 -0.1299 -0.1656 -0.2335
10803TIP3    H153900   3.902   2.230   0.159  2.3160 -0.8916 -2.1781
10803TIP3    H253901   3.773   2.211   0.082  1.1668  1.3532 -0.9243
10804TIP3   OH253902   4.826   5.079   4.214 -0.2907 -1.0833  0.0335
10804TIP3    H153903   4.893   5.130   4.259  0.5385 -1.3040 -0.9040
10804TIP3    H253904   4.828   4.994   4.256  0.7812 -1.4261 -0.6641
10805TIP3   OH253905   3.082   3.139   2.776  0.1209  0.1026 -0.4098
10805TIP3    H153906   3.030   3.218   2.763  1.1649  1.3121  1.9688
10805TIP3    H253907   3.023   3.079   2.822 -0.0091  0.4193 -0.1523
10806TIP3   OH253908   4.899   2.324  13.255  0.0897  0.5693 -0.2267
10806TIP3    H153909   4.845   2.284  13.323 -3.0678  3.0918 -1.0167
10806TIP3    H253910   4.973   2.362  13.301  0.1918 -1.2477  1.2028
10807TIP3   OH253911   6.466   4.208  11.025 -0.2437 -0.9001 -0.2700
10807TIP3    H153912   6.427   4.143  11.084  0.5474 -0.2884  0.9521
10807TIP3    H253913   6.411   4.204  10.946 -2.1054 -0.8466  0.9574
10808TIP3   OH253914   0.690   6.175  15.220  0.0035  0.0482  0.0228
10808TIP3    H153915   0.721   6.186  15.131  0.6445 -0.3540  0.1854
10808TIP3    H253916   0.764   6.201  15.275 -0.0988 -0.4799  0.4236
10809TIP3   OH253917   3.145   5.563   1.334 -0.1009 -0.1047  0.6359
10809TIP3    H153918   3.146   5.470   1.357 -1.7746  0.0227  1.4285
10809TIP3    H253919   3.122   5.564   1.241 -0.0776 -0.4938  0.6215
10810TIP3   OH253920   5.715   5.284  15.043  0.2656 -0.5797  0.0509
10810TIP3    H153921   5.634   5.234  15.055  0.5308 -0.4704  3.2570
10810TIP3    H253922   5.685   5.374  15.029 -0.1595 -0.7427 -0.1053
10811TIP3   OH253923   2.392   6.195  13.103 -0.0191 -0.1669 -0.5491
10811TIP3    H153924   2.361   6.265  13.161  0.3013  0.7484 -1.4561
10811TIP3    H253925   2.486   6.211  13.093 -0.1519  0.0005 -1.7034
10812TIP3   OH253926   1.393   5.633   0.298 -0.0586 -0.2060  0.4351
10812TIP3    H153927   1.448   5.659   0.372 -0.1525 -0.4694  0.5984
10812TIP3    H253928   1.455   5.610   0.229  0.0291  0.0389  0.4306
10813TIP3   OH253929   0.040   1.513  11.347 -0.1808 -0.1737 -0.2886
10813TIP3    H153930  -0.038   1.518  11.291 -1.1917  0.9084  1.1474
10813TIP3    H253931   0.022   1.441  11.407  0.2974 -0.4410 -0.4590
10814TIP3   OH253932   3.442   4.207  16.201  0.1051 -0.3142 -0.6593
10814TIP3    H153933   3.533   4.222  16.175  1.1603 -2.4993  1.3187
10814TIP3    H253934   3.424   4.117  16.174 -1.9198  0.4291 -2.0139
10815TIP3   OH253935   1.578   6.750  14.079 -0.6699  0.6293  0.5142
10815TIP3    H153936   1.505   6.808  14.102 -0.6133 -0.2492  3.3500
10815TIP3    H253937   1.645   6.768  14.146 -0.1577 -1.7502  0.7410
10816TIP3   OH253938   4.298   3.029  14.024 -0.2935 -0.0632  0.4475
10816TIP3    H153939   4.358   3.077  13.968 -2.2283  0.0916 -1.6675
10816TIP3    H253940   4.336   2.942  14.032 -0.7254 -0.6501 -2.6514
10817TIP3   OH253941   4.489   1.079   2.630  0.5195  0.1691  0.3930
10817TIP3    H153942   4.465   1.145   2.564 -0.8584  0.1530  0.8479
10817TIP3    H253943   4.569   1.114   2.670  0.6066  0.8597 -0.3538
10818TIP3   OH253944   1.823   4.345  12.409 -0.1113 -0.1123  0.3857
10818TIP3    H153945   1.833   4.427  12.456  0.1928  1.2541 -1.9260
10818TIP3    H253946   1.734   4.348  12.374  0.6086  0.2469 -1.4793
10819TIP3   OH253947   1.465   1.912  12.715  0.6255  0.2366  0.1858
10819TIP3    H153948   1.405   1.867  12.775 -0.2115 -0.2841 -0.9977
10819TIP3    H253949   1.549   1.868  12.727  0.0689 -0.9613 -0.1928
10820TIP3   OH253950   4.901   1.119   3.737  0.3447 -0.2724 -0.1254
10820TIP3    H153951   4.876   1.052   3.674 -1.1863  1.4321 -1.4265
10820TIP3    H253952   4.861   1.199   3.704  1.5625  1.1746  1.7188
10821TIP3   OH253953   4.361   6.103   1.971  0.0853  0.9535 -0.3131
10821TIP3    H153954   4.406   6.142   1.897  0.1263  2.1747  0.3282
10821TIP3    H253955   4.396   6.149   2.048  3.8336 -3.5456  1.1437
10822TIP3   OH253956   0.280   2.605   0.866 -0.2250 -0.1859  0.3615
10822TIP3    H153957   0.217   2.653   0.813 -1.3469 -1.5385  0.3993
10822TIP3    H253958   0.280   2.650   0.950  0.7709  1.3274 -0.3978
10823TIP3   OH253959   1.298   2.669   3.907 -0.1473  0.1136  0.3260
10823TIP3    H153960   1.236   2.611   3.951  1.9787 -1.3847  1.5857
10823TIP3    H253961   1.311   2.741   3.969 -1.4806  1.0855 -0.4768
10824TIP3   OH253962   2.832   3.402  11.067  0.5055 -0.2544  0.2416
10824TIP3    H153963   2.907   3.345  11.048  1.0658  0.1578  1.1465
10824TIP3    H253964   2.757   3.343  11.065  1.1217 -1.1399  1.5771
10825TIP3   OH253965   1.349   0.974  13.217 -0.0397 -0.6332  0.3245
10825TIP3    H153966   1.319   1.041  13.278 -0.3184  0.4540 -0.9556
10825TIP3    H253967   1.380   1.023  13.141  0.2551 -1.9455 -0.4286
10826TIP3   OH253968   0.004   4.954   3.493  0.0911  0.2993 -0.3845
10826TIP3    H153969  -0.054   5.008   3.438 -0.7501 -1.9367 -1.8154
10826TIP3    H253970  -0.051   4.926   3.566 -1.7696 -3.9333 -3.0082
10827TIP3   OH253971   0.375   2.337   2.232  0.2477 -0.0144 -0.0859
10827TIP3    H153972   0.374   2.290   2.315  2.8611  1.3111  0.8190
10827TIP3    H253973   0.309   2.406   2.243  1.7302  1.2484  1.7117
10828TIP3   OH253974   0.224   5.715   1.059 -0.4360  0.3609 -0.2167
10828TIP3    H153975   0.143   5.687   1.102 -0.8942  0.7451 -0.8094
10828TIP3    H253976   0.216   5.682   0.969  0.7400 -0.8912  0.1046
10829TIP3   OH253977   3.446   4.931  15.543 -0.3731  0.0058  0.0546
10829TIP3    H153978   3.469   4.842  15.570 -1.2735 -0.2553 -0.0277
10829TIP3    H253979   3.401   4.969  15.618  0.6728  0.6762  0.3770
10830TIP3   OH253980   2.311   0.639  16.386 -0.0960  0.3788  0.5237
10830TIP3    H153981   2.328   0.545  16.384  0.4756  0.4116  2.1332
10830TIP3    H253982   2.377   0.678  16.329 -0.5090 -0.1929 -0.3676
10831TIP3   OH253983   4.938   2.953   5.652 -0.1830 -0.0316 -0.3141
10831TIP3    H153984   4.853   2.997   5.648 -0.1867 -0.0115 -0.0502
10831TIP3    H253985   5.002   3.021   5.631 -0.3206 -0.3744 -1.9484
10832TIP3   OH253986   4.734   2.432  12.460  0.1723 -0.7473  0.7690
10832TIP3    H153987   4.695   2.407  12.544  0.8697  0.4234  1.4667
10832TIP3    H253988   4.794   2.503  12.482 -1.2416  1.1039 -1.0079
10833TIP3   OH253989   0.874   2.203  16.135 -0.0059 -0.2471  0.0552
10833TIP3    H153990   0.890   2.292  16.167 -1.0091  0.3832 -1.1137
10833TIP3    H253991   0.830   2.215  16.051 -0.1272 -1.8598 -0.1463
10834TIP3   OH253992   2.957   3.913  14.276 -0.3803 -0.0750 -0.1918
10834TIP3    H153993   2.929   3.822  14.262  0.2672 -0.4082  0.6190
10834TIP3    H253994   2.900   3.945  14.346 -1.2076  0.4472 -1.0716
10835TIP3   OH253995   0.438   2.900   1.619  0.5513  0.1549 -0.8546
10835TIP3    H153996   0.428   2.905   1.524  0.7098  0.7429 -0.8465
10835TIP3    H253997   0.514   2.843   1.631 -0.2819 -1.0245 -1.0289
10836TIP3   OH253998   3.553   6.283  12.391 -0.0569 -0.4261  0.0068
10836TIP3    H153999   3.506   6.300  12.309 -0.4721  1.6448  0.6203
10836TIP3    H254000   3.497   6.320  12.459  2.3638  2.1337  0.7766
10837TIP3   OH254001   5.528   4.084   4.820  0.4875 -0.2548  0.7566
10837TIP3    H154002   5.441   4.092   4.860  0.5388  1.4814  0.5953
10837TIP3    H254003   5.538   3.990   4.804 -0.8715 -0.6306  1.8384
10838TIP3   OH254004   6.541   6.597   3.130 -0.0201  0.0055  0.0009
10838TIP3    H154005   6.471   6.659   3.148 -1.7390 -1.8356 -0.0463
10838TIP3    H254006   6.532   6.529   3.197  1.5487 -0.4318 -0.1735
10839TIP3   OH254007   0.378   1.137  15.701  0.2220  0.4361 -0.2826
10839TIP3    H154008   0.299   1.121  15.754  0.6771  0.1536  0.3321
10839TIP3    H254009   0.448   1.148  15.766  0.5465  1.5231 -0.7978
10840TIP3   OH254010   6.726   5.696   3.082  0.1362 -0.7528  0.1852
10840TIP3    H154011   6.667   5.671   3.153 -2.3240  1.6442 -0.7924
10840TIP3    H254012   6.711   5.631   3.014 -1.4733 -0.1994 -0.0339
10841TIP3   OH254013   4.632   4.799  12.718 -0.4873  0.0391 -0.3022
10841TIP3    H154014   4.618   4.718  12.668 -0.9260 -0.4545  0.5932
10841TIP3    H254015   4.545   4.822  12.751 -0.3620  0.8758 -0.5225
10842TIP3   OH254016   2.176   6.334   4.300  0.1616 -0.2023 -0.1967
10842TIP3    H154017   2.111   6.352   4.368  1.3126 -0.8813  1.1228
10842TIP3    H254018   2.217   6.252   4.327  0.2054 -0.8457 -2.0709
10843TIP3   OH254019   0.846   1.349  16.680 -0.3836  0.0072 -0.0207
10843TIP3    H154020   0.797   1.401  16.744  0.1719  1.0150 -0.3972
10843TIP3    H254021   0.784   1.283  16.650 -1.2334  0.7093  0.1619
10844TIP3   OH254022   3.963   6.878   3.944  0.3762 -0.1718 -0.1428
10844TIP3    H154023   3.932   6.889   4.034 -0.8984 -0.2286 -0.5498
10844TIP3    H254024   3.884   6.857   3.894  1.0296  0.0529 -1.3120
10845TIP3   OH254025   1.012   1.483  12.577 -0.0482 -0.0481 -0.1203
10845TIP3    H154026   1.103   1.510  12.590  0.3577 -0.8684 -1.0543
10845TIP3    H254027   0.960   1.561  12.595  0.8504  0.4552  0.3382
10846TIP3   OH254028   6.836   1.957   4.652 -0.0324 -0.5654 -0.2572
10846TIP3    H154029   6.866   1.922   4.736 -0.3392  0.4460  0.3063
10846TIP3    H254030   6.742   1.937   4.650 -0.1794  0.0700  0.0020
10847TIP3   OH254031   5.187   4.614   1.754  0.4414 -0.6180 -0.3478
10847TIP3    H154032   5.153   4.587   1.669  0.2680 -3.2368  0.4639
10847TIP3    H254033   5.280   4.633   1.738  0.4633 -1.2878 -1.0794
10848TIP3   OH254034   0.600   3.514  13.429 -0.0305  0.0354 -0.5392
10848TIP3    H154035   0.540   3.441  13.417  0.5986 -0.7628  0.9012
10848TIP3    H254036   0.577   3.576  13.360 -3.5056  0.4542  0.8143
10849TIP3   OH254037   1.711   2.999  14.093 -0.2577  0.0086 -0.4389
10849TIP3    H154038   1.625   2.978  14.128  0.6981 -2.2376  0.7951
10849TIP3    H254039   1.702   3.087  14.057 -2.4806  0.6785  1.5363
10850TIP3   OH254040   6.887   5.760  16.514  0.0341 -0.1298  0.2838
10850TIP3    H154041   6.940   5.706  16.456 -0.8536 -0.5410 -0.1711
10850TIP3    H254042   6.886   5.847  16.474  1.0224  0.0978  0.7296
10851TIP3   OH254043   3.091   5.292  11.326  0.1468 -0.6376 -0.0245
10851TIP3    H154044   3.019   5.332  11.278  1.0459 -0.2123 -1.0426
10851TIP3    H254045   3.089   5.200  11.299  1.3037 -0.1864 -1.7319
10852TIP3   OH254046   3.887   3.869  12.289  0.3029 -0.1440  0.0427
10852TIP3    H154047   3.975   3.896  12.263  0.8138 -1.7449  0.0072
10852TIP3    H254048   3.841   3.852  12.207 -0.3132  1.3998  0.0330
10853TIP3   OH254049   4.303   1.533   4.198  0.1834 -0.1488 -0.5826
10853TIP3    H154050   4.357   1.536   4.119  1.9137  0.2290  0.5587
10853TIP3    H254051   4.273   1.442   4.203 -2.7660  0.4676 -3.3856
10854TIP3   OH254052   6.589   5.712   5.147 -0.2957 -0.3937  0.4761
10854TIP3    H154053   6.570   5.619   5.158 -0.4298 -0.3601  0.5314
10854TIP3    H254054   6.525   5.756   5.203 -0.4740 -0.2512  0.1648
10855TIP3   OH254055   2.707   4.363   1.215 -0.0915  0.3754 -0.4691
10855TIP3    H154056   2.611   4.366   1.217 -0.2611 -1.5406 -2.0374
10855TIP3    H254057   2.729   4.369   1.122  1.2588  0.0841 -0.1902
10856TIP3   OH254058   1.768   4.710  15.167  0.3216  0.1811  0.5377
10856TIP3    H154059   1.691   4.718  15.224  0.1809 -2.4591  0.8842
10856TIP3    H254060   1.818   4.638  15.206  1.3848 -0.1796 -1.3935
10857TIP3   OH254061   6.542   0.410   4.844 -0.7636 -0.0344  0.3237
10857TIP3    H154062   6.448   0.420   4.830 -1.1733 -1.1697  1.9383
10857TIP3    H254063   6.553   0.318   4.867  0.7374  0.1060  0.2469
10858TIP3   OH254064   5.774   4.895   2.396 -0.1903  0.0483  0.3810
10858TIP3    H154065   5.694   4.845   2.379 -0.2522 -0.3747  1.7668
10858TIP3    H254066   5.830   4.835   2.446  0.1079  1.0466  1.2791
10859TIP3   OH254067   0.230   4.683  16.597 -0.2472 -0.0609  0.4211
10859TIP3    H154068   0.199   4.773  16.607 -1.3056 -0.0839 -1.9759
10859TIP3    H254069   0.310   4.679  16.648 -2.0804  1.1342  3.6937
10860TIP3   OH254070   3.415   4.354  13.059  0.2784 -0.0353 -0.7316
10860TIP3    H154071   3.505   4.331  13.082  0.0624  1.1796  1.6100
10860TIP3    H254072   3.423   4.412  12.984  1.3990 -0.4312 -0.9267
10861TIP3   OH254073   6.814   4.454   3.191 -0.3509  0.1893  0.6191
10861TIP3    H154074   6.862   4.526   3.233  0.9020 -0.1198 -0.2280
10861TIP3    H254075   6.722   4.470   3.214 -0.1922  2.4246 -0.0238
10862TIP3   OH254076   2.633   4.878  15.315 -0.4545 -0.2047 -0.0483
10862TIP3    H154077   2.631   4.872  15.410  0.2561 -0.0222 -0.0191
10862TIP3    H254078   2.625   4.971  15.296  1.4862 -0.0149 -0.0875
10863TIP3   OH254079   3.019   6.737   3.550  0.4451  0.5548  0.3989
10863TIP3    H154080   2.975   6.666   3.597 -2.2396  3.2533  2.3343
10863TIP3    H254081   2.985   6.731   3.461  2.9178 -2.5125 -0.5109
10864TIP3   OH254082   5.494   6.213  16.598 -0.1210 -0.2372  0.4200
10864TIP3    H154083   5.421   6.154  16.579 -0.4883  0.3074  0.1563
10864TIP3    H254084   5.547   6.164  16.662 -0.6830 -0.6536  0.5748
10865TIP3   OH254085   3.297   3.940  10.854 -0.1566  0.0194 -0.6206
10865TIP3    H154086   3.340   3.872  10.802  1.8706 -0.3303  1.3491
10865TIP3    H254087   3.342   4.021  10.830  2.3746 -0.4461  1.9548
10866TIP3   OH254088   1.260   1.960  11.270 -0.3900  0.6315 -0.8223
10866TIP3    H154089   1.166   1.967  11.252 -1.3780 -3.1587  1.5504
10866TIP3    H254090   1.268   1.981  11.363  1.1347  0.9646 -1.0070
10867TIP3   OH254091   5.218   0.237   5.944 -0.0973 -0.2406  0.0840
10867TIP3    H154092   5.160   0.218   5.870 -0.0121  0.8986 -0.2891
10867TIP3    H254093   5.159   0.249   6.018 -0.1740 -1.5598  0.2713
10868TIP3   OH254094   0.874   2.175   4.272 -0.1174 -0.5371  0.2744
10868TIP3    H154095   0.929   2.097   4.282 -0.3242 -0.8016 -0.6265
10868TIP3    H254096   0.851   2.198   4.362 -1.5561 -2.5951  0.5200
10869TIP3   OH254097   3.740   4.577  13.412  0.5715 -0.0928  0.3490
10869TIP3    H154098   3.677   4.649  13.410  0.0548 -0.5480 -0.1103
10869TIP3    H254099   3.756   4.556  13.320  0.8921 -0.4195  0.4728
10870TIP3   OH254100   4.299   0.404   1.742  0.1645  0.2796  0.5544
10870TIP3    H154101   4.281   0.388   1.649 -0.7675  0.2686  0.7274
10870TIP3    H254102   4.263   0.491   1.759 -1.2592 -0.4147  1.2989
10871TIP3   OH254103   6.851   1.783   1.260 -0.0440 -0.3522 -1.0022
10871TIP3    H154104   6.939   1.784   1.222  0.0292 -1.5251 -0.8703
10871TIP3    H254105   6.810   1.705   1.224 -1.2962  0.5409 -1.6096
10872TIP3   OH254106   4.681   4.518   4.308  0.3759  0.0824  0.6474
10872TIP3    H154107   4.593   4.539   4.274 -0.0031 -0.4347  1.2869
10872TIP3    H254108   4.677   4.541   4.400  0.9806  0.2293  0.6381
10873TIP3   OH254109   1.128   3.918   4.645 -0.2295  0.1427  0.5660
10873TIP3    H154110   1.149   3.982   4.576 -1.3209  0.6704  0.7032
10873TIP3    H254111   1.207   3.914   4.698  0.1801  0.6959  0.0215
10874TIP3   OH254112   0.804   0.174  16.560  0.2353 -0.2515  0.1220
10874TIP3    H154113   0.722   0.175  16.511  0.7642  2.2338 -0.8709
10874TIP3    H254114   0.843   0.088  16.540 -1.3874 -0.8569 -0.6109
10875TIP3   OH254115   1.794   1.054   1.609  0.1325 -0.3897 -0.4020
10875TIP3    H154116   1.750   0.991   1.666 -2.0454  2.3005  1.1265
10875TIP3    H254117   1.887   1.031   1.615 -0.1916 -1.3377  2.9082
10876TIP3   OH254118   6.496   2.500   3.967 -0.7670 -0.1869  0.6982
10876TIP3    H154119   6.544   2.425   3.932  0.2183 -0.7459  3.0609
10876TIP3    H254120   6.555   2.538   4.032 -1.7806  1.8687  0.4848
10877TIP3   OH254121   2.830   1.592  11.075  0.6808 -0.5949 -0.5364
10877TIP3    H154122   2.855   1.550  11.157 -1.3071 -1.6115 -0.3736
10877TIP3    H254123   2.876   1.542  11.008  0.1794 -1.5427 -0.1926
10878TIP3   OH254124   4.452   5.306   5.982  0.3574 -0.4954  0.4311
10878TIP3    H154125   4.479   5.396   6.002  1.3014 -0.8065  0.5808
10878TIP3    H254126   4.534   5.257   5.975  0.0296 -0.7732 -2.5130
10879TIP3   OH254127   2.680   6.194   5.524  0.3648  0.0331 -0.0915
10879TIP3    H154128   2.690   6.285   5.495 -0.3569 -0.1124 -0.8311
10879TIP3    H254129   2.767   6.170   5.555  0.6086  0.9256 -0.0406
10880TIP3   OH254130   5.445   4.495  12.348  0.5481 -0.1308 -0.1335
10880TIP3    H154131   5.519   4.494  12.409  0.1965  0.6921  0.3251
10880TIP3    H254132   5.368   4.494  12.404  0.2076  1.8963 -0.4895
10881TIP3   OH254133   1.121   1.181  14.243 -0.5456  0.9512 -0.1143
10881TIP3    H154134   1.167   1.261  14.220  0.8484 -0.1882 -1.6279
10881TIP3    H254135   1.029   1.206  14.250 -0.3794  2.4060 -2.2152
10882TIP3   OH254136   2.145   2.512  16.924  0.1381  0.5804  0.6053
10882TIP3    H154137   2.131   2.456  17.000 -1.0892  0.8656  0.6053
10882TIP3    H254138   2.140   2.452  16.849 -2.8827  0.8382  0.4730
10883TIP3   OH254139   2.420   6.381   6.048  0.6383 -0.0991  0.3584
10883TIP3    H154140   2.442   6.449   6.112  0.4098  0.2641  0.0539
10883TIP3    H254141   2.497   6.376   5.991  1.2819 -1.1552  1.2663
10884TIP3   OH254142   0.298   0.712  15.136  0.1921 -0.0467 -0.6014
10884TIP3    H154143   0.350   0.792  15.125 -0.8627  0.8614  0.6119
10884TIP3    H254144   0.315   0.661  15.057  2.3443  0.5240 -0.5660
10885TIP3   OH254145   1.898   1.812  10.493 -0.3607  0.4703 -0.1058
10885TIP3    H154146   1.884   1.839  10.402 -0.6300 -0.0217 -0.2137
10885TIP3    H254147   1.888   1.717  10.491 -1.7144  0.5697  0.6782
10886TIP3   OH254148   0.517   1.103   4.760 -0.1440  0.3767  0.3414
10886TIP3    H154149   0.608   1.081   4.740  0.9566  2.2928  2.7606
10886TIP3    H254150   0.507   1.193   4.728 -0.9782  0.4177  0.7039
10887TIP3   OH254151   2.817   3.408   1.469 -0.4203  0.3111  0.1619
10887TIP3    H154152   2.817   3.407   1.565  1.5229 -1.0921  0.2078
10887TIP3    H254153   2.833   3.316   1.445  0.4387  0.8551 -1.4721
10888TIP3   OH254154   4.938   3.636  12.880 -0.3765 -0.1333 -0.3119
10888TIP3    H154155   4.912   3.680  12.799 -0.7381 -1.1321 -0.7563
10888TIP3    H254156   4.982   3.704  12.932  0.0718  0.4501 -1.4395
10889TIP3   OH254157   6.323   5.276   1.664 -0.2352 -0.0812  0.3116
10889TIP3    H154158   6.316   5.370   1.684  2.3038  0.8445 -2.4262
10889TIP3    H254159   6.398   5.247   1.715  1.0076  0.2454 -1.2551
10890TIP3   OH254160   4.140   4.851  15.482 -0.2332 -0.3084 -0.4662
10890TIP3    H154161   4.133   4.829  15.575 -1.7580  2.1097  0.0846
10890TIP3    H254162   4.234   4.863  15.467  0.0675 -1.1082  0.6377
10891TIP3   OH254163   3.273   6.159  13.544  0.2108 -0.3477  0.3013
10891TIP3    H154164   3.182   6.154  13.575 -0.5066  1.2430 -1.3218
10891TIP3    H254165   3.269   6.124  13.455  1.2884 -0.5618  0.3244
10892TIP3   OH254166   6.070   2.657  12.574 -0.0074  0.0283 -1.0060
10892TIP3    H154167   6.040   2.581  12.525  1.1788 -1.0151 -0.1931
10892TIP3    H254168   6.047   2.732  12.520 -0.5891 -0.9541 -2.1510
10893TIP3   OH254169   1.169   5.923  12.233  0.2654  0.2263  0.0703
10893TIP3    H154170   1.177   5.873  12.152  1.6117 -0.2298  0.4583
10893TIP3    H254171   1.141   6.010  12.204 -1.5003 -0.5368 -0.6601
10894TIP3   OH254172   6.238   5.474   2.313 -0.6619  0.0884  0.0540
10894TIP3    H154173   6.255   5.460   2.406 -0.6354  0.3306  0.0872
10894TIP3    H254174   6.154   5.433   2.297 -0.4803 -0.3060  0.0961
10895TIP3   OH254175   6.765   6.752  10.623  0.1401  0.0487  0.7626
10895TIP3    H154176   6.716   6.834  10.610  0.7376  0.5424  1.5007
10895TIP3    H254177   6.723   6.689  10.564 -0.8944  0.6560  0.8211
10896TIP3   OH254178   4.835   2.517   1.045 -0.1196  0.7782 -0.2559
10896TIP3    H154179   4.861   2.552   1.131  0.3660  1.3646 -0.6276
10896TIP3    H254180   4.910   2.464   1.018  0.3978  1.8622 -1.0006
10897TIP3   OH254181   1.235   0.558   1.401 -0.5588 -0.5172  0.1560
10897TIP3    H154182   1.257   0.518   1.485  1.7766 -2.2777 -1.1476
10897TIP3    H254183   1.141   0.543   1.391 -1.0360  0.3292  2.6733
10898TIP3   OH254184   3.346   0.120   5.443  0.2557 -0.0347 -0.2533
10898TIP3    H154185   3.333   0.210   5.474 -1.2384 -0.5353  0.6679
10898TIP3    H254186   3.440   0.113   5.429  0.4444  1.5560  0.0376
10899TIP3   OH254187   3.175   5.279   1.822 -0.2129  0.5737 -0.2112
10899TIP3    H154188   3.186   5.210   1.887 -2.5546  0.0123 -0.3490
10899TIP3    H254189   3.215   5.242   1.742  0.4026  0.2494  0.2330
10900TIP3   OH254190   5.791   3.726   0.224  0.3593  0.1316  0.4012
10900TIP3    H154191   5.787   3.704   0.131  2.5970  3.5423 -0.6899
10900TIP3    H254192   5.701   3.718   0.254 -0.7330  0.3788 -2.4628
10901TIP3   OH254193   4.372   4.060   4.363 -0.4741 -0.3046 -0.2798
10901TIP3    H154194   4.280   4.085   4.357 -0.8981 -1.4754  0.7123
10901TIP3    H254195   4.371   3.980   4.416  1.4851  1.9693  3.6209
10902TIP3   OH254196   3.557   1.668  14.389 -0.0006  0.4614 -0.1199
10902TIP3    H154197   3.633   1.726  14.397  1.2873 -1.0005 -1.1889
10902TIP3    H254198   3.488   1.712  14.439  1.0140  2.7166 -0.5660
10903TIP3   OH254199   5.029   5.111   2.216  0.5417 -0.0783 -0.2346
10903TIP3    H154200   5.079   5.029   2.217  0.5663 -0.0712  1.0190
10903TIP3    H254201   4.992   5.115   2.128 -0.0844 -1.8164 -0.1016
10904TIP3   OH254202   5.839   5.346  12.209 -0.1032 -0.2173  0.1612
10904TIP3    H154203   5.920   5.315  12.169 -1.6249  0.2061 -3.6991
10904TIP3    H254204   5.867   5.410  12.274  2.6624 -0.1193 -0.9966
10905TIP3   OH254205   5.984   4.172  13.369  0.7458  0.2883  0.5079
10905TIP3    H154206   5.904   4.198  13.415  0.7367  0.4668  0.3916
10905TIP3    H254207   5.983   4.223  13.288 -0.3248 -1.5446 -0.7078
10906TIP3   OH254208   5.693   1.524   6.089  0.2376  0.0455  0.5940
10906TIP3    H154209   5.601   1.531   6.112 -0.0672 -0.2639 -0.4881
10906TIP3    H254210   5.714   1.431   6.100  0.0469 -0.1375 -0.4725
10907TIP3   OH254211   6.270   4.134   3.238  0.3590  0.0299  1.0546
10907TIP3    H154212   6.195   4.076   3.249  0.5050 -0.4931 -0.4222
10907TIP3    H254213   6.332   4.082   3.186  1.3824  0.7641  1.5069
10908TIP3   OH254214   0.626   4.060  15.563 -0.1223  0.4908 -0.0138
10908TIP3    H154215   0.621   4.144  15.610 -0.6878  2.1084 -2.6998
10908TIP3    H254216   0.705   4.068  15.509 -0.5713 -0.4129 -0.8336
10909TIP3   OH254217   2.658   5.313   5.875 -0.6939  0.1323 -0.0310
10909TIP3    H154218   2.736   5.293   5.927 -0.4422 -1.1653 -0.8531
10909TIP3    H254219   2.666   5.406   5.855  0.0618  0.2704  0.8390
10910TIP3   OH254220   1.866   5.028  13.550  0.1315 -0.2125 -0.3660
10910TIP3    H154221   1.846   5.106  13.601 -0.8719  0.0513 -1.1434
10910TIP3    H254222   1.903   4.967  13.614  1.7048  1.1562  0.1237
10911TIP3   OH254223   4.767   4.790  13.446  0.6876 -0.3619 -0.0918
10911TIP3    H154224   4.830   4.830  13.386  2.3029  1.2702  2.5097
10911TIP3    H254225   4.806   4.706  13.469  0.6272 -0.4917 -0.4597
10912TIP3   OH254226   4.147   6.056   4.584  0.5736 -0.2601 -0.2969
10912TIP3    H154227   4.107   5.969   4.589  0.3720 -0.0988  2.0768
10912TIP3    H254228   4.228   6.048   4.633  0.1431  1.0648  0.7077
10913TIP3   OH254229   2.733   3.011   4.647  0.4458 -0.2245  0.6482
10913TIP3    H154230   2.778   3.043   4.726  1.1596  0.1149  0.1118
10913TIP3    H254231   2.653   3.063   4.643  0.7761  0.3033  0.7346
10914TIP3   OH254232   2.666   3.020   4.353 -0.0247  0.6729  0.0312
10914TIP3    H154233   2.680   3.019   4.448  1.3319  1.6789 -0.1279
10914TIP3    H254234   2.754   3.021   4.316 -0.5367  0.1776 -1.2534
10915TIP3   OH254235   6.051   6.388   0.438  0.8279  0.8216 -0.2436
10915TIP3    H154236   6.102   6.408   0.360  1.5166 -0.1882 -0.0737
10915TIP3    H254237   5.983   6.455   0.441  1.0796  1.1385 -1.4488
10916TIP3   OH254238   2.610   4.105  15.242 -0.0635 -0.3596  0.0346
10916TIP3    H154239   2.575   4.192  15.259 -2.1383 -1.4568  2.1257
10916TIP3    H254240   2.532   4.050  15.234  1.0217 -2.8012  3.7232
10917TIP3   OH254241   6.096   1.070  13.159 -0.0008 -0.1555 -0.0677
10917TIP3    H154242   6.182   1.102  13.134 -0.6495  0.4701 -1.6475
10917TIP3    H254243   6.050   1.148  13.191 -1.1338  0.3616 -2.6563
10918TIP3   OH254244   5.445   0.285   4.001  0.0624 -0.5683 -0.4162
10918TIP3    H154245   5.507   0.212   3.997 -0.2842 -1.0476  1.5712
10918TIP3    H254246   5.379   0.264   3.936  2.0259  0.0712 -2.7552
10919TIP3   OH254247   2.104   5.012  15.243  0.3549  0.7734  0.2971
10919TIP3    H154248   2.121   4.923  15.274 -0.0429  0.2115 -0.9908
10919TIP3    H254249   2.190   5.053  15.236  0.8400 -0.4163 -1.5814
10920TIP3   OH254250   3.763   1.750  12.599  0.4632  0.1451  0.1536
10920TIP3    H154251   3.727   1.802  12.671  1.3627  0.1766  0.5989
10920TIP3    H254252   3.756   1.659  12.630 -0.3710  0.0493 -0.2870
10921TIP3   OH254253   6.804   5.956   1.497 -0.3280 -0.1102 -0.3336
10921TIP3    H154254   6.868   6.026   1.498 -0.7117  0.2794 -1.3872
10921TIP3    H254255   6.764   5.958   1.584  1.1840 -0.4746  0.3979
10922TIP3   OH254256   2.690   2.303   4.332  0.6734 -0.4111  0.3211
10922TIP3    H154257   2.714   2.390   4.365  0.1725 -0.3652  0.5841
10922TIP3    H254258   2.660   2.256   4.409  0.7199 -0.7384  0.1394
10923TIP3   OH254259   1.933   1.925  12.946 -0.1692 -0.3357  0.1085
10923TIP3    H154260   1.881   2.005  12.951  0.0809 -0.1318 -0.4122
10923TIP3    H254261   2.016   1.954  12.907  1.0719 -0.2816  2.6134
10924TIP3   OH254262   0.374   2.544   5.870  0.3200 -0.6749 -0.0863
10924TIP3    H154263   0.281   2.555   5.888  0.7272  0.4054  1.6187
10924TIP3    H254264   0.390   2.599   5.794 -0.2631 -0.0406  0.2340
10925TIP3   OH254265   6.783   2.164  15.313  0.2249 -0.2386 -0.0577
10925TIP3    H154266   6.759   2.256  15.323  1.6606  0.1792 -0.1007
10925TIP3    H254267   6.716   2.126  15.256 -0.2651  0.8269 -0.2029
10926TIP3   OH254268   3.509   1.955   3.320 -0.0583  0.0060  0.1448
10926TIP3    H154269   3.469   2.036   3.351 -0.9644 -0.9591  1.6447
10926TIP3    H254270   3.557   1.921   3.396  2.3709  0.3056 -1.1338
10927TIP3   OH254271   2.208   3.798   3.423 -0.2911 -0.0866  0.3423
10927TIP3    H154272   2.254   3.767   3.501 -0.0262  1.6379  0.9108
10927TIP3    H254273   2.259   3.874   3.394 -1.1215  0.0705 -0.7525
10928TIP3   OH254274   2.416   0.994  10.906 -0.0539  0.0970  0.4640
10928TIP3    H154275   2.476   0.924  10.933 -1.4724 -1.0750  0.7081
10928TIP3    H254276   2.366   0.956  10.833  0.7749  1.7230 -1.0086
10929TIP3   OH254277   2.253   4.804   1.518  0.3728 -0.9737  0.7604
10929TIP3    H154278   2.272   4.877   1.577 -0.2001  0.2253 -0.4782
10929TIP3    H254279   2.320   4.739   1.538  2.1291  0.6844  0.5857
10930TIP3   OH254280   5.342   0.499  12.163 -0.4390 -0.2947  0.0113
10930TIP3    H154281   5.435   0.519  12.167 -0.6465  0.5705  3.1829
10930TIP3    H254282   5.339   0.405  12.142  1.1751 -0.4505  0.3361
10931TIP3   OH254283   5.226   1.160   4.075  0.1858 -0.2299 -0.6400
10931TIP3    H154284   5.294   1.113   4.124 -0.2687  0.8512  1.1078
10931TIP3    H254285   5.207   1.103   4.001  0.9811 -1.9155  0.3858
10932TIP3   OH254286   5.269   5.090   2.381  0.3850 -0.7271  0.3325
10932TIP3    H154287   5.203   5.156   2.358  2.0016  1.3698  1.3110
10932TIP3    H254288   5.317   5.076   2.299  0.4272 -0.1632  0.2515
10933TIP3   OH254289   6.293   3.302   0.471  0.3746  0.3381 -0.0114
10933TIP3    H154290   6.318   3.218   0.509  1.9505  0.8507  0.1453
10933TIP3    H254291   6.253   3.279   0.387 -1.9320 -0.7236  1.2932
10934TIP3   OH254292   5.551   6.804  14.422  0.0261 -0.4581  0.1930
10934TIP3    H154293   5.479   6.856  14.458 -1.9005 -2.7335 -0.1300
10934TIP3    H254294   5.608   6.787  14.497  0.1660  1.1744  0.5041
10935TIP3   OH254295   0.491   3.147   3.820  0.4878  0.4697 -0.2410
10935TIP3    H154296   0.475   3.230   3.775  1.6035  0.9278  0.1606
10935TIP3    H254297   0.565   3.108   3.774  1.2159  0.6306  0.7583
10936TIP3   OH254298   2.769   4.290   2.969  0.3917  0.4938  0.2970
10936TIP3    H154299   2.683   4.329   2.985  0.4509  1.1105 -0.7544
10936TIP3    H254300   2.786   4.307   2.876  0.8782 -1.1881  0.0468
10937TIP3   OH254301   2.893   5.621  12.490  0.3319  0.6031  0.2865
10937TIP3    H154302   2.883   5.530  12.464  1.2169  0.3033  0.9210
10937TIP3    H254303   2.957   5.618  12.562  1.7180  1.8894 -0.8235
10938TIP3   OH254304   2.544   4.367   1.654 -0.1502  0.3248 -0.4008
10938TIP3    H154305   2.574   4.331   1.738  0.6864  2.9839  0.5339
10938TIP3    H254306   2.607   4.332   1.590 -0.2048 -0.9451  0.1960
10939TIP3   OH254307   1.749   0.101  15.082 -0.1327  0.2185  0.4356
10939TIP3    H154308   1.736   0.025  15.025  0.1035 -0.0754  0.7725
10939TIP3    H254309   1.666   0.149  15.077 -0.8935 -0.9174  1.5032
10940TIP3   OH254310   3.170   3.816   4.889 -0.3727 -0.3897  0.2415
10940TIP3    H154311   3.086   3.804   4.845 -0.1867 -0.8003 -0.0122
10940TIP3    H254312   3.157   3.890   4.948 -0.6962  0.0187 -0.3366
10941TIP3   OH254313   6.147   6.340   5.005  0.3895 -0.4494  0.0299
10941TIP3    H154314   6.109   6.424   4.981 -0.9428 -1.4042 -1.4143
10941TIP3    H254315   6.238   6.345   4.976  1.3835  1.6749  3.0438
10942TIP3   OH254316   5.301   3.952   1.102  0.8910  0.0727 -0.1859
10942TIP3    H154317   5.241   3.931   1.173 -0.5878 -0.2448 -1.4621
10942TIP3    H254318   5.356   4.022   1.137 -1.8368  2.1458  0.3002
10943TIP3   OH254319   5.580   2.469   2.146 -0.1814 -0.5558  0.1718
10943TIP3    H154320   5.663   2.450   2.102  0.5155 -0.3715  1.3841
10943TIP3    H254321   5.516   2.468   2.075  1.1019  1.0982 -1.1147
10944TIP3   OH254322   4.499   3.432  12.512  0.7733 -0.7836  0.3440
10944TIP3    H154323   4.406   3.454  12.526  0.6231 -2.2839  2.0121
10944TIP3    H254324   4.501   3.395  12.423  0.4220  2.2660 -1.0803
10945TIP3   OH254325   2.545   3.302  15.221  0.0804  0.1460 -0.2266
10945TIP3    H154326   2.512   3.214  15.203 -1.4718  1.1369 -2.9277
10945TIP3    H254327   2.560   3.303  15.315 -0.6816 -2.7219  0.0345
10946TIP3   OH254328   2.379   5.644  16.641 -0.0490 -0.4179  0.1199
10946TIP3    H154329   2.313   5.692  16.591 -0.8885 -2.1516 -0.5324
10946TIP3    H254330   2.334   5.564  16.669  2.0838 -2.3133 -1.4552
10947TIP3   OH254331   0.911   6.638  13.131  0.4405  0.5856  0.0782
10947TIP3    H154332   0.993   6.601  13.098  0.4409  0.2109  0.4984
10947TIP3    H254333   0.909   6.727  13.095 -1.0102 -0.7098 -3.4838
10948TIP3   OH254334   3.780   2.897  11.908  0.0391 -0.0254  1.1492
10948TIP3    H154335   3.746   2.971  11.857 -1.0739  0.7965  2.9879
10948TIP3    H254336   3.702   2.853  11.940  0.6358 -2.6658 -0.6866
10949TIP3   OH254337   2.816   2.639   5.078  0.4747 -0.3678  0.2708
10949TIP3    H154338   2.892   2.698   5.075  0.5926 -0.5564 -1.3065
10949TIP3    H254339   2.816   2.595   4.993 -2.8613  1.4974 -0.9122
10950TIP3   OH254340   3.072   4.404  10.821 -0.4093  0.2538  0.1416
10950TIP3    H154341   3.027   4.366  10.745  1.3647 -2.0622  0.1554
10950TIP3    H254342   3.052   4.345  10.893 -0.3802  1.2948  1.0409
10951TIP3   OH254343   3.727   6.353  12.779  1.0337  0.2150 -0.7665
10951TIP3    H154344   3.777   6.429  12.809 -1.9030  1.2671  1.9848
10951TIP3    H254345   3.656   6.390  12.726 -1.4709 -0.2200  2.0381
10952TIP3   OH254346   2.947   5.255  15.539 -0.1487  0.1862  0.2130
10952TIP3    H154347   2.987   5.325  15.591  0.1489 -0.2158  0.5294
10952TIP3    H254348   2.899   5.201  15.603 -0.7339  0.3389 -0.0844
10953TIP3   OH254349   6.259   2.907   4.153 -0.2551  0.1336  0.0684
10953TIP3    H154350   6.228   2.964   4.083 -2.2084  1.0060  1.5507
10953TIP3    H254351   6.199   2.923   4.226  1.2276 -1.2908  1.7100
10954TIP3   OH254352   6.582   5.063   2.814  0.1621  0.2197 -0.2239
10954TIP3    H154353   6.606   5.100   2.899  0.3349  1.1455 -0.6626
10954TIP3    H254354   6.499   5.106   2.793 -0.4917 -0.8808 -0.0013
10955TIP3   OH254355   6.795   0.048   1.491 -0.5236 -0.1837 -0.7186
10955TIP3    H154356   6.869  -0.002   1.526 -0.0906 -1.3889 -3.1375
10955TIP3    H254357   6.718   0.006   1.528 -0.1202 -2.0827 -1.8757
10956TIP3   OH254358   2.171   4.646   5.954 -0.0607  0.2470 -0.6895
10956TIP3    H154359   2.157   4.667   6.047 -0.8128 -0.8922 -0.5265
10956TIP3    H254360   2.093   4.598   5.929 -0.1620  1.1114 -2.1143
10957TIP3   OH254361   6.128   3.675  13.969 -0.1455  0.2016 -0.0544
10957TIP3    H154362   6.041   3.681  14.008 -0.6133 -0.7712 -0.9028
10957TIP3    H254363   6.112   3.669  13.875  0.8270 -0.1753 -0.2105
10958TIP3   OH254364   5.898   2.149  16.813  0.1169  0.7137 -0.0313
10958TIP3    H154365   5.940   2.203  16.745  1.4705  0.2750  0.4300
10958TIP3    H254366   5.839   2.092  16.765  0.4355  0.9822 -0.7631
10959TIP3   OH254367   3.186   5.740   1.518  0.0265 -1.0263 -0.1123
10959TIP3    H154368   3.096   5.760   1.544  0.8669  0.9957  1.5593
10959TIP3    H254369   3.177   5.673   1.450 -2.8207  0.4659 -1.3887
10960TIP3   OH254370   6.851   1.258  15.905  0.4849 -0.1803  0.4254
10960TIP3    H154371   6.800   1.182  15.934  0.6034  0.2058  1.6859
10960TIP3    H254372   6.843   1.256  15.809  0.7259 -1.9429  0.4009
10961TIP3   OH254373   4.524   5.193  13.522  0.2392  0.1158 -0.0345
10961TIP3    H154374   4.545   5.115  13.573 -0.2670  0.4780  0.7363
10961TIP3    H254375   4.597   5.201  13.460  0.7095 -0.4971  0.4282
10962TIP3   OH254376   3.461   4.189  10.841 -0.0906  0.6174 -0.1520
10962TIP3    H154377   3.404   4.210  10.915 -2.5965 -0.2213 -1.7000
10962TIP3    H254378   3.549   4.201  10.874 -1.1241  1.0817  2.7099
10963TIP3   OH254379   4.074   1.140   1.261 -0.2426  0.2607  0.6928
10963TIP3    H154380   4.110   1.140   1.172 -1.1419  1.8876  0.2784
10963TIP3    H254381   4.065   1.048   1.283 -1.7375 -0.2645 -1.6746
10964TIP3   OH254382   6.775   3.926  11.556 -0.2715  0.4172 -0.0522
10964TIP3    H154383   6.830   3.918  11.478  0.8299  0.1842  0.7206
10964TIP3    H254384   6.832   3.898  11.628 -0.4328  2.9241  1.1750
10965TIP3   OH254385   1.805   1.408  14.014  0.2475 -0.1227 -0.4472
10965TIP3    H154386   1.888   1.400  13.967 -0.1479 -1.0298 -1.0242
10965TIP3    H254387   1.824   1.374  14.102 -0.2807 -3.7399 -1.5505
10966TIP3   OH254388   6.778   1.382  11.688  0.5836 -0.5953 -0.0773
10966TIP3    H154389   6.823   1.343  11.613  0.7538 -1.3076  0.3833
10966TIP3    H254390   6.699   1.423  11.651  0.4594 -1.2901 -0.5930
10967TIP3   OH254391   1.467   4.691   5.439 -0.0263 -0.2313 -0.1746
10967TIP3    H154392   1.494   4.697   5.348  0.3652 -1.4707 -0.1664
10967TIP3    H254393   1.509   4.611   5.471 -1.4441 -0.6952  0.6434
10968TIP3   OH254394   0.230   6.217   4.693 -0.8913 -0.0513 -0.1184
10968TIP3    H154395   0.294   6.188   4.628  0.5162  0.1441  1.1236
10968TIP3    H254396   0.164   6.263   4.643  0.5341  0.7481 -1.3464
10969TIP3   OH254397   6.481   0.687  15.104  0.1568  0.3380  0.3703
10969TIP3    H154398   6.420   0.625  15.143 -0.0717  0.3503  0.0344
10969TIP3    H254399   6.449   0.773  15.132  0.5431  0.3024  0.9362
10970TIP3   OH254400   0.335   3.633   0.239 -0.3664  0.4789 -0.5704
10970TIP3    H154401   0.342   3.601   0.329 -2.7301 -0.8591 -0.7715
10970TIP3    H254402   0.405   3.697   0.230  1.1964 -0.8197  1.5848
10971TIP3   OH254403   5.935   0.112   6.199  0.2166  0.0560  0.5031
10971TIP3    H154404   5.922   0.030   6.150 -2.0834  1.0993 -0.7834
10971TIP3    H254405   5.971   0.173   6.134  1.3328  0.2737  1.2969
10972TIP3   OH254406   4.959   0.226   5.811  0.1087 -0.6144 -0.0321
10972TIP3    H154407   4.948   0.142   5.766  1.5142 -1.2399  0.7499
10972TIP3    H254408   4.915   0.215   5.895 -2.5459  0.5680 -1.1210
10973TIP3   OH254409   5.927   3.882   2.249 -0.2567  0.1170  0.1865
10973TIP3    H154410   5.913   3.810   2.309  2.7081 -1.2209 -0.4995
10973TIP3    H254411   5.861   3.871   2.181 -1.8826  0.0337  1.7200
10974TIP3   OH254412   4.996   5.035   3.594 -0.8430  0.3025  0.0742
10974TIP3    H154413   4.953   4.958   3.632  0.6689 -0.3972  0.4555
10974TIP3    H254414   5.056   5.065   3.662 -1.5223  1.9421 -0.0198
10975TIP3   OH254415   1.188   3.564   0.411  0.0944  0.1151  0.1670
10975TIP3    H154416   1.225   3.515   0.485  1.3442 -1.1210 -1.2200
10975TIP3    H254417   1.135   3.500   0.364  0.8426  0.3609 -1.0495
10976TIP3   OH254418   4.221   4.961  16.865  0.4818  0.5861 -0.3622
10976TIP3    H154419   4.234   5.049  16.900  0.8494  0.1908  0.5194
10976TIP3    H254420   4.308   4.922  16.863  0.0752 -0.5487  1.4442
10977TIP3   OH254421   1.514   0.002  15.415 -0.7612 -0.3502  0.1315
10977TIP3    H154422   1.428   0.042  15.405 -1.4671 -1.6439  0.8797
10977TIP3    H254423   1.510  -0.045  15.498  0.4564 -0.9628 -0.1306
10978TIP3   OH254424   1.732   2.501  16.789  0.2950  0.4255  0.0621
10978TIP3    H154425   1.747   2.586  16.829 -1.4771  1.9985 -2.3176
10978TIP3    H254426   1.637   2.488  16.794  0.5373 -1.5836  0.5884
10979TIP3   OH254427   6.852   0.600   0.744  0.2410 -0.4125 -0.6062
10979TIP3    H154428   6.865   0.613   0.838  1.6123 -1.2943 -0.6421
10979TIP3    H254429   6.868   0.686   0.705 -2.2782  0.4427  0.0915
10980TIP3   OH254430   2.015   5.481   6.636 -0.1459  0.1888 -0.3917
10980TIP3    H154431   1.948   5.523   6.691 -1.2781 -1.4285 -0.4709
10980TIP3    H254432   2.088   5.543   6.636 -0.6660  0.8968  1.7469
10981TIP3   OH254433   3.962   3.844   3.666  0.0444  0.7509  0.0186
10981TIP3    H154434   4.005   3.847   3.581 -0.9892  2.6932 -0.5014
10981TIP3    H254435   3.986   3.759   3.703  0.2982 -0.2535 -2.3223
10982TIP3   OH254436   0.995   2.671   4.575  0.1065  0.1224 -0.2590
10982TIP3    H154437   1.011   2.739   4.640  0.2886 -0.6441  0.5105
10982TIP3    H254438   1.080   2.657   4.534  0.3180 -0.4064  0.3460
10983TIP3   OH254439   3.949   3.352  14.314 -0.6645  0.5396 -0.5715
10983TIP3    H154440   3.927   3.442  14.290  0.3873  0.6260 -1.3330
10983TIP3    H254441   4.045   3.348  14.307 -0.8027 -1.2808 -3.1441
10984TIP3   OH254442   5.202   6.338  15.396  0.0075 -0.2981 -0.2433
10984TIP3    H154443   5.256   6.416  15.407  1.6112 -1.2969 -0.6617
10984TIP3    H254444   5.118   6.371  15.363  0.8086  1.2031 -0.8869
10985TIP3   OH254445   2.505   6.788  11.010 -0.4010  0.1311 -0.7051
10985TIP3    H154446   2.599   6.781  11.025 -0.4673 -1.2784 -0.7779
10985TIP3    H254447   2.491   6.750  10.923 -1.0055  0.5850 -0.8141
10986TIP3   OH254448   5.878   0.756   2.802  0.4924  0.1840  0.6696
10986TIP3    H154449   5.791   0.783   2.832  0.5324 -0.1161  1.0698
10986TIP3    H254450   5.860   0.687   2.737  0.4245  0.2917  0.5740
10987TIP3   OH254451   4.006   5.493   2.151  0.5270  0.0701 -0.7452
10987TIP3    H154452   3.938   5.544   2.107 -1.7803 -0.8690  1.4680
10987TIP3    H254453   4.049   5.555   2.210 -0.0522  0.1847 -0.4340
10988TIP3   OH254454   6.500   3.115  12.586 -0.0821  0.1923 -0.3561
10988TIP3    H154455   6.447   3.137  12.663  0.8781 -1.2474  0.7717
10988TIP3    H254456   6.446   3.055  12.536 -0.0565 -0.2278  0.1077
10989TIP3   OH254457   0.931   1.398   4.612 -0.0352 -0.2111  0.0935
10989TIP3    H154458   0.844   1.425   4.583  0.1082  0.0927 -0.0560
10989TIP3    H254459   0.977   1.479   4.631  1.2345 -0.1380 -2.7282
10990TIP3   OH254460   3.285   2.669  16.112  0.5327  0.1024 -0.0434
10990TIP3    H154461   3.190   2.653  16.116  0.5457  0.1501  0.5102
10990TIP3    H254462   3.312   2.632  16.028  0.1978 -0.8465  0.2585
10991TIP3   OH254463   5.818   0.834   4.519  0.4888  0.0173  0.1611
10991TIP3    H154464   5.818   0.744   4.487 -1.2202  0.3826 -1.0039
10991TIP3    H254465   5.788   0.827   4.610  1.2348 -0.6613  0.3623
10992TIP3   OH254466   1.592   3.630   2.996 -0.4419  0.2862 -0.0401
10992TIP3    H154467   1.615   3.696   2.931  3.3439 -1.2826 -0.5522
10992TIP3    H254468   1.607   3.672   3.080 -0.8295  0.8968 -0.2659
10993TIP3   OH254469   1.661   6.767  14.968  0.0143  0.7530 -0.2206
10993TIP3    H154470   1.587   6.718  15.005  1.0808 -0.9588 -0.2228
10993TIP3    H254471   1.707   6.703  14.914  0.8061  2.1145 -1.2234
10994TIP3   OH254472   0.284   5.005  16.667 -0.5897 -0.0808  1.1115
10994TIP3    H154473   0.253   5.020  16.757  0.9904  0.1454  1.6597
10994TIP3    H254474   0.366   4.957  16.678 -1.0832 -1.2993 -0.2989
10995TIP3   OH254475   5.328   2.219  16.249  0.6198 -0.2182  0.6524
10995TIP3    H154476   5.312   2.294  16.192 -2.5141 -0.4187  1.1267
10995TIP3    H254477   5.418   2.231  16.280  0.3496  3.1364  0.4408
10996TIP3   OH254478   4.669   1.085   5.403  0.4553 -0.2095  0.1704
10996TIP3    H154479   4.726   1.026   5.354 -0.1986 -0.0150 -0.8493
10996TIP3    H254480   4.671   1.167   5.354 -1.1023 -0.3637 -0.1937
10997TIP3   OH254481   4.394   1.360  12.494 -0.1519 -0.0300 -0.3290
10997TIP3    H154482   4.433   1.317  12.418 -0.8340  0.2944 -0.8795
10997TIP3    H254483   4.307   1.386  12.464 -0.2295  0.5781  0.4047
10998TIP3   OH254484   4.922   0.474   0.536  0.1975 -0.2395 -0.3833
10998TIP3    H154485   4.968   0.501   0.457  0.4552 -0.0454 -0.1692
10998TIP3    H254486   4.927   0.550   0.594  1.2352 -0.8489  0.3705
10999TIP3   OH254487   2.446   4.634   4.797  0.0576 -0.6253 -0.0412
10999TIP3    H154488   2.499   4.709   4.822 -0.4826 -0.1287 -0.3662
10999TIP3    H254489   2.509   4.563   4.784  0.3514 -1.2877  3.7902
11000TIP3   OH254490   0.755   5.580  16.188 -0.0133 -0.4757 -0.0854
11000TIP3    H154491   0.685   5.534  16.234  0.3199  0.9875  2.0420
11000TIP3    H254492   0.710   5.641  16.130 -0.5487  0.0822  0.8820
11001TIP3   OH254493   0.302   3.620   3.262 -0.3890  0.1197  0.2601
11001TIP3    H154494   0.372   3.563   3.232  0.3393  1.5589 -0.8950
11001TIP3    H254495   0.224   3.564   3.264  0.4432 -1.0798 -0.0884
11002TIP3   OH254496   3.954   3.329   5.350  0.2897 -0.3396 -0.3674
11002TIP3    H154497   4.047   3.330   5.370 -0.1216  0.4983  1.6759
11002TIP3    H254498   3.950   3.304   5.257  2.5568  0.2325 -0.6745
11003TIP3   OH254499   3.244   4.895   2.466 -0.0391 -0.3411 -0.9931
11003TIP3    H154500   3.237   4.955   2.541 -2.2332 -0.1066 -1.3126
11003TIP3    H254501   3.338   4.887   2.450  0.3655  2.1747 -0.2747
11004TIP3   OH254502   1.026   6.707  14.016 -0.3410 -0.3002  0.3387
11004TIP3    H154503   0.958   6.751  14.067 -1.4842 -2.6922  0.9881
11004TIP3    H254504   1.071   6.651  14.078 -1.3853 -2.8570 -1.0642
11005TIP3   OH254505   1.668   5.300  13.657 -0.3055 -0.1574 -0.0054
11005TIP3    H154506   1.619   5.334  13.731  0.9686  0.7611  0.4442
11005TIP3    H254507   1.689   5.377  13.604 -1.7432 -0.8557 -1.7070
11006TIP3   OH254508   2.556   0.984  12.736  0.0567 -0.7862 -0.3127
11006TIP3    H154509   2.632   0.991  12.794 -0.7131 -2.8427  1.0583
11006TIP3    H254510   2.588   1.014  12.651  2.1162 -0.6157  0.4656
11007TIP3   OH254511   3.127   4.290  11.982 -0.0163  0.9135 -0.1712
11007TIP3    H154512   3.106   4.243  12.063  0.2998  0.9572 -0.0626
11007TIP3    H254513   3.173   4.225  11.928  2.0783  1.5839  0.7071
11008TIP3   OH254514   4.904   5.322  12.526 -0.3922  0.2910 -0.1524
11008TIP3    H154515   4.853   5.247  12.495 -0.6149  0.1871  0.4591
11008TIP3    H254516   4.953   5.289  12.601 -0.2940  0.6935 -0.0364
11009TIP3   OH254517   3.352   1.043  14.100 -0.3335 -0.0448 -0.2062
11009TIP3    H154518   3.378   0.962  14.056  0.4803  0.7336 -1.2262
11009TIP3    H254519   3.307   1.014  14.179 -0.6558 -1.4887 -0.8851
11010TIP3   OH254520   4.804   4.843   0.480 -0.2771  0.4188 -0.0411
11010TIP3    H154521   4.719   4.873   0.447 -0.3491  0.7771  0.4611
11010TIP3    H254522   4.812   4.753   0.448 -0.7061  0.4922 -0.3556
11011TIP3   OH254523   0.233   5.609  14.558  0.7305 -0.3156  0.1231
11011TIP3    H154524   0.315   5.649  14.585  0.0847 -0.2732  2.1947
11011TIP3    H254525   0.166   5.674  14.579  0.0910 -0.6511 -0.8169
11012TIP3   OH254526   0.283   6.675   2.129 -0.0406  0.1294  0.0584
11012TIP3    H154527   0.206   6.711   2.084 -0.4186 -0.6608  0.0493
11012TIP3    H254528   0.290   6.585   2.097  0.3420 -0.0977  0.7461
11013TIP3   OH254529   6.856   1.568  12.994 -0.2581  0.1111  0.0915
11013TIP3    H154530   6.768   1.589  12.961  0.8230  1.4999 -2.1554
11013TIP3    H254531   6.841   1.502  13.061 -2.9890 -0.0361 -0.5409
11014TIP3   OH254532   3.390   1.648  15.727 -0.0160  0.4711 -0.3421
11014TIP3    H154533   3.299   1.677  15.729 -0.1225  0.1640 -0.6277
11014TIP3    H254534   3.422   1.676  15.641  0.1668  0.5978 -0.2336
11015TIP3   OH254535   4.359   0.422   4.937 -0.4618 -0.1797 -0.4620
11015TIP3    H154536   4.284   0.473   4.969 -0.3900  0.6264 -1.5215
11015TIP3    H254537   4.430   0.485   4.930  0.2235 -0.8616  0.1554
11016TIP3   OH254538   4.077   4.709  14.814 -0.2269 -0.2830 -0.0211
11016TIP3    H154539   4.166   4.695  14.845 -0.2124 -0.1422  0.0030
11016TIP3    H254540   4.086   4.735  14.723 -0.2318 -0.1069  0.0270
11017TIP3   OH254541   3.131   2.595  12.227  0.5048  0.2036 -0.4132
11017TIP3    H154542   3.138   2.629  12.138 -1.0411  1.0352 -0.2475
11017TIP3    H254543   3.220   2.603  12.262  0.3908  3.7600 -0.5448
11018TIP3   OH254544   0.692   2.158   0.892  0.7699  0.3228 -0.2758
11018TIP3    H154545   0.614   2.207   0.865  0.3643  0.6079  1.3140
11018TIP3    H254546   0.763   2.221   0.883  0.2622  1.2646  1.6816
11019TIP3   OH254547   1.402   4.593   1.506 -0.0935  0.3402  0.2202
11019TIP3    H154548   1.392   4.661   1.572  1.1250  1.4611 -0.7049
11019TIP3    H254549   1.462   4.530   1.546 -0.3053  0.3953  0.6305
11020TIP3   OH254550   6.429   1.784  12.797  0.7386  0.4143  0.4658
11020TIP3    H154551   6.448   1.742  12.713  0.9463  0.9253  0.2540
11020TIP3    H254552   6.464   1.723  12.863  1.7859  0.6426  0.1332
11021TIP3   OH254553   3.644   1.101  13.187 -0.3039  0.2447 -0.5084
11021TIP3    H154554   3.708   1.056  13.132  0.5904 -0.7856  1.2768
11021TIP3    H254555   3.560   1.064  13.161 -0.1283  1.0000 -2.3007
11022TIP3   OH254556   0.969   2.201  12.206  0.2652  0.2590  0.5229
11022TIP3    H154557   0.960   2.167  12.116  3.1398 -0.2079  0.3144
11022TIP3    H254558   0.897   2.160  12.254  1.1618 -2.9905 -0.6399
11023TIP3   OH254559   3.568   6.733  16.818  0.1593  0.4864 -0.3813
11023TIP3    H154560   3.634   6.754  16.753  0.8578 -0.3430  0.0494
11023TIP3    H254561   3.559   6.638  16.814 -0.3084  0.4967  0.2366
11024TIP3   OH254562   4.358   1.547  11.768  0.1316 -0.2289  0.3743
11024TIP3    H154563   4.391   1.528  11.680 -0.2035  0.8094  0.0155
11024TIP3    H254564   4.437   1.559  11.821  0.3537  0.7459 -0.1473
11025TIP3   OH254565   0.240   2.581  14.230  0.2895 -0.3721 -0.1220
11025TIP3    H154566   0.160   2.529  14.242 -0.8544  1.9013  3.6042
11025TIP3    H254567   0.208   2.671  14.220  2.3620  0.2216 -2.3240
11026TIP3   OH254568   1.468   4.755  11.165 -0.1814  0.0266 -0.1162
11026TIP3    H154569   1.467   4.783  11.074  1.0234 -0.4192 -0.2864
11026TIP3    H254570   1.489   4.662  11.162  1.3955  0.3187  0.6584
11027TIP3   OH254571   3.662   0.478   5.039 -0.2602 -0.5313 -0.4694
11027TIP3    H154572   3.594   0.536   5.074 -0.7572 -0.2976 -1.7479
11027TIP3    H254573   3.664   0.404   5.099 -1.1728 -0.2134 -0.0332
11028TIP3   OH254574   0.275   4.159  16.823  0.2780 -0.0438  0.2751
11028TIP3    H154575   0.356   4.201  16.852  0.0737  0.0268  0.7604
11028TIP3    H254576   0.228   4.141  16.904 -0.4369  0.4064 -0.0295
11029TIP3   OH254577   6.007   1.576  13.541 -0.2540  1.2326  0.1806
11029TIP3    H154578   6.074   1.520  13.580 -1.0560  1.5276  2.1562
11029TIP3    H254579   5.935   1.516  13.519  1.0990  0.6909 -3.3155
11030TIP3   OH254580   4.142   6.861  11.451  0.1998  0.0323 -0.3342
11030TIP3    H154581   4.198   6.786  11.470 -0.9220 -1.0236 -1.1319
11030TIP3    H254582   4.176   6.896  11.369 -0.5877 -0.8908 -1.0609
11031TIP3   OH254583   3.161   1.687  12.363 -0.0549 -0.8271 -0.1971
11031TIP3    H154584   3.247   1.654  12.388  0.8374  0.1408 -1.8549
11031TIP3    H254585   3.108   1.609  12.351  0.2883 -1.4144  1.7096
11032TIP3   OH254586   4.343   4.956  14.673 -0.1198  0.8059 -0.0682
11032TIP3    H154587   4.428   4.997  14.688  0.6084 -1.1344  1.4286
11032TIP3    H254588   4.318   4.921  14.759 -2.2290  0.9398 -0.5830
11033TIP3   OH254589   6.678   6.516  15.300 -0.2855 -0.4864  0.0365
11033TIP3    H154590   6.756   6.542  15.350 -0.8235 -1.0992  1.2457
11033TIP3    H254591   6.713   6.465  15.227  0.4003 -2.6778  1.7838
11034TIP3   OH254592   6.722   0.162   0.974 -0.0491 -0.2048 -0.2609
11034TIP3    H154593   6.774   0.241   0.957  0.4859  0.0039  1.9324
11034TIP3    H254594   6.632   0.188   0.957  0.2705  0.3733 -1.1449
11035TIP3   OH254595   0.275   3.002  10.810 -0.5943  0.0112  0.1144
11035TIP3    H154596   0.343   3.052  10.764  0.1971 -0.0364  1.1804
11035TIP3    H254597   0.210   2.983  10.743  1.0699 -1.1041 -1.2848
11036TIP3   OH254598   6.071   2.328  12.748  0.1189  0.4093  0.0276
11036TIP3    H154599   6.000   2.304  12.688  0.1047 -0.0840  0.2405
11036TIP3    H254600   6.066   2.264  12.819  1.7820 -0.6525 -0.7388
11037TIP3   OH254601   2.391   2.475  12.258 -0.4020  0.2507 -0.5437
11037TIP3    H154602   2.301   2.474  12.291 -0.5748 -0.3305 -1.0279
11037TIP3    H254603   2.420   2.384  12.265 -0.0327  0.3406 -0.8858
11038TIP3   OH254604   0.448   4.724  14.088  0.6120  0.6248  0.4416
11038TIP3    H154605   0.381   4.677  14.038  0.3754  0.6124  0.7707
11038TIP3    H254606   0.420   4.815  14.086  0.3920  0.5676  0.8874
11039TIP3   OH254607   3.828   6.267  12.286  0.1361  0.5211  0.3831
11039TIP3    H154608   3.736   6.287  12.303 -0.3804 -1.4961  0.2635
11039TIP3    H254609   3.826   6.211  12.208  1.2500 -1.1359  1.4797
11040TIP3   OH254610   2.439   0.548  15.196  0.3564  0.5887  0.8529
11040TIP3    H154611   2.492   0.521  15.271 -1.4530  0.4045  2.1301
11040TIP3    H254612   2.447   0.476  15.133  0.9665  0.2095  1.3567
11041TIP3   OH254613   2.447   6.212  15.538 -0.0714 -0.3062 -0.5318
11041TIP3    H154614   2.373   6.226  15.480 -0.8630  0.5277  0.6337
11041TIP3    H254615   2.443   6.285  15.600  1.9364 -0.0219 -0.6489
11042TIP3   OH254616   6.861   5.373  13.373  0.1734 -0.1175  0.4884
11042TIP3    H154617   6.847   5.278  13.365  0.4382 -0.1894  0.8742
11042TIP3    H254618   6.935   5.391  13.315 -1.0491  0.1644 -1.0637
11043TIP3   OH254619   0.070   5.998  12.978 -0.1329 -0.1671 -0.0113
11043TIP3    H154620   0.041   6.065  12.916  1.4701  2.7591  2.1565
11043TIP3    H254621   0.156   5.972  12.946 -0.2105 -0.2575 -0.1514
11044TIP3   OH254622   1.916   6.119  14.805  0.5059 -0.1108 -0.5799
11044TIP3    H154623   1.826   6.089  14.817  1.3471 -3.1962 -0.9778
11044TIP3    H254624   1.934   6.173  14.882 -1.2666 -0.5277  0.1739
11045TIP3   OH254625   0.723   6.186   3.449 -0.2655  0.7010 -0.1558
11045TIP3    H154626   0.728   6.280   3.466 -2.2207  1.0434 -1.1669
11045TIP3    H254627   0.654   6.177   3.383 -0.1894 -1.4684 -0.0212
11046TIP3   OH254628   0.385   3.210   4.505 -0.4898 -0.6151 -0.0639
11046TIP3    H154629   0.365   3.282   4.564  1.3643 -0.6036  0.6095
11046TIP3    H254630   0.304   3.159   4.502 -1.0421  0.1048  1.4272
11047TIP3   OH254631   5.850   5.069  10.391  0.0074  0.3348  0.5970
11047TIP3    H154632   5.910   5.140  10.412 -0.6737  1.1350 -0.0947
11047TIP3    H254633   5.877   4.997  10.448  0.3603  1.3269  1.7184
11048TIP3   OH254634   3.128   0.323   3.783  0.2383 -0.6748 -0.3314
11048TIP3    H154635   3.099   0.232   3.779 -0.4062 -0.4248 -1.8925
11048TIP3    H254636   3.049   0.374   3.797  0.6751 -0.3640  1.2210
11049TIP3   OH254637   6.366   0.125  11.080  0.1067 -0.0791  0.1335
11049TIP3    H154638   6.381   0.129  10.986 -2.9816  0.7347 -0.4000
11049TIP3    H254639   6.397   0.209  11.113  0.9458 -0.2612 -0.1608
11050TIP3   OH254640   1.831   0.290  10.825  0.1195 -0.1984  0.1102
11050TIP3    H154641   1.866   0.312  10.738  2.1078  0.8109  1.1065
11050TIP3    H254642   1.737   0.276  10.809  0.1492  1.3485 -1.9755
11051TIP3   OH254643   6.735   4.925  11.772  0.4523 -0.5361  0.3674
11051TIP3    H154644   6.683   5.001  11.746 -0.1597 -1.0164  0.1583
11051TIP3    H254645   6.826   4.952  11.760  0.2552  0.3471  0.8197
11052TIP3   OH254646   6.274   2.512   5.658 -0.0373  1.1414  0.0178
11052TIP3    H154647   6.326   2.449   5.608 -0.3265  0.4888  0.5187
11052TIP3    H254648   6.212   2.548   5.596  0.6034  1.4687 -0.4429
11053TIP3   OH254649   2.243   3.945   2.397  0.5669  0.4776  0.3718
11053TIP3    H154650   2.176   3.883   2.427  0.4804  0.0529 -0.6485
11053TIP3    H254651   2.307   3.890   2.352  2.6309  0.6065  2.8847
11054TIP3   OH254652   5.302   4.066  13.957  0.4032 -0.2566  0.3806
11054TIP3    H154653   5.369   4.088  14.022  0.0015  0.5373  0.5465
11054TIP3    H254654   5.219   4.083  14.002  0.1216  0.5791 -0.4137
11055TIP3   OH254655   6.242   0.721  14.803 -0.1347  0.1869  0.0676
11055TIP3    H154656   6.189   0.643  14.816  0.2962 -0.1657 -0.2476
11055TIP3    H254657   6.313   0.712  14.867  0.4508 -0.1727 -0.6086
11056TIP3   OH254658   3.123   3.704  11.438  0.2637 -0.4395 -0.3249
11056TIP3    H154659   3.037   3.745  11.441  0.6481  0.3335  0.5251
11056TIP3    H254660   3.131   3.673  11.348 -0.2972  0.8053 -0.8266
11057TIP3   OH254661   1.314   6.609   3.182  0.0060 -0.3274 -0.0678
11057TIP3    H154662   1.249   6.671   3.216  1.4692  1.2326  0.0234
11057TIP3    H254663   1.384   6.608   3.248  0.8799 -0.6141 -0.9646
11058TIP3   OH254664   4.476   1.431   3.274 -0.0575 -0.2994  0.0699
11058TIP3    H154665   4.522   1.390   3.200  0.0077  0.8008 -0.5214
11058TIP3    H254666   4.398   1.471   3.234 -0.9557 -1.1888  0.8890
11059TIP3   OH254667   5.490   1.027  13.662  0.7017 -0.2892 -0.6035
11059TIP3    H154668   5.574   1.016  13.617  1.3576  0.5187  0.3928
11059TIP3    H254669   5.434   1.070  13.597  1.2395 -0.2848 -1.0751
11060TIP3   OH254670   4.804   4.692  15.245 -0.4745 -0.0915  0.2555
11060TIP3    H154671   4.797   4.726  15.156 -0.5081 -0.6623  0.0381
11060TIP3    H254672   4.720   4.649  15.261  0.1068 -1.3744 -0.0239
11061TIP3   OH254673   6.706   0.195   5.146  0.1521  0.4502 -0.8440
11061TIP3    H154674   6.793   0.155   5.149 -0.6025 -1.2012  0.5793
11061TIP3    H254675   6.696   0.223   5.055  1.9945  0.3327 -1.1351
11062TIP3   OH254676   1.791   6.751  16.413 -0.6161 -0.0754  0.1921
11062TIP3    H154677   1.770   6.762  16.505 -3.6221  3.0164 -0.6478
11062TIP3    H254678   1.708   6.725  16.372 -0.6501  3.0210 -2.1110
11063TIP3   OH254679   2.370   0.374  16.397  0.3019  0.8924  0.1241
11063TIP3    H154680   2.463   0.361  16.379  0.1196  1.2131 -1.1214
11063TIP3    H254681   2.353   0.319  16.474  1.5030  0.8076  0.3545
11064TIP3   OH254682   2.010   5.698  13.186 -0.5732  0.2776 -0.5741
11064TIP3    H154683   1.959   5.681  13.107 -0.1955 -1.7171 -0.4393
11064TIP3    H254684   2.018   5.613  13.228  0.3401  1.0762  0.9515
11065TIP3   OH254685   4.711   5.010  13.896 -0.1490  0.5144  0.0709
11065TIP3    H154686   4.707   4.990  13.803  0.7692  2.2245 -0.3631
11065TIP3    H254687   4.643   5.076  13.910  0.4113  1.0378  0.3884
11066TIP3   OH254688   5.657   1.277  16.561 -0.0200 -0.0591  0.5114
11066TIP3    H154689   5.565   1.300  16.576 -0.2001  0.8484 -1.6357
11066TIP3    H254690   5.683   1.229  16.640 -1.5488  1.9296  2.3474
11067TIP3   OH254691   1.928   1.507  13.377  0.5834  0.6710 -0.2185
11067TIP3    H154692   1.875   1.586  13.390  1.3504  0.8389  2.5207
11067TIP3    H254693   2.004   1.520  13.433  0.1688 -2.5175  1.2797
11068TIP3   OH254694   1.667   6.519   2.119 -0.7368 -0.4159  0.2366
11068TIP3    H154695   1.751   6.499   2.078 -1.5813  0.0070 -1.8050
11068TIP3    H254696   1.689   6.580   2.189  0.5323  1.1162 -1.3947
11069TIP3   OH254697   3.750   4.494   4.576 -0.0060  0.2065  0.1261
11069TIP3    H154698   3.694   4.423   4.544 -0.6286  0.4015  0.7592
11069TIP3    H254699   3.758   4.553   4.501  0.2118 -0.3424 -0.2908
11070TIP3   OH254700   2.557   0.014  16.376 -0.3842 -0.9354 -0.3933
11070TIP3    H154701   2.540  -0.058  16.437 -0.0247  0.3784  1.3579
11070TIP3    H254702   2.492   0.081  16.399  1.6394  0.7957  0.6850
11071TIP3   OH254703   2.343   1.942  11.590  0.2697 -0.1788 -0.2694
11071TIP3    H154704   2.390   2.026  11.591  0.8331 -0.4774 -0.8716
11071TIP3    H254705   2.367   1.900  11.673  2.8191 -1.2472 -1.4284
11072TIP3   OH254706   6.594   1.091   3.015  0.4437 -0.5972 -0.0441
11072TIP3    H154707   6.566   1.180   3.035 -0.5928 -1.1163  0.9219
11072TIP3    H254708   6.563   1.076   2.925 -1.7172 -0.8431  0.6744
11073TIP3   OH254709   0.109   5.841  15.441  0.1189  0.0996  0.5810
11073TIP3    H154710   0.092   5.915  15.383  3.0836  0.5442  0.1500
11073TIP3    H254711   0.153   5.880  15.517  2.4647 -1.2442 -0.0179
11074TIP3   OH254712   6.663   0.409  13.913  0.0501  0.5481  0.2025
11074TIP3    H154713   6.746   0.379  13.878  0.1637  1.6974 -0.5448
11074TIP3    H254714   6.632   0.335  13.966  1.9800  0.4454  1.2904
11075TIP3   OH254715   2.477   0.653  15.818  0.3977 -0.1065 -0.1701
11075TIP3    H154716   2.537   0.719  15.854  0.3537 -0.5614  0.7594
11075TIP3    H254717   2.456   0.685  15.731 -0.7165  1.8428  0.7572
11076TIP3   OH254718   3.792   1.981  12.859  0.4899 -0.2219  0.0254
11076TIP3    H154719   3.826   2.026  12.781  0.5696  1.2995  0.9083
11076TIP3    H254720   3.697   1.992  12.854  0.5416  0.5244  0.5013
11077TIP3   OH254721   3.664   1.342  14.995  0.3010  0.2326  0.9841
11077TIP3    H154722   3.620   1.423  15.017 -0.8905  0.3465 -1.4517
11077TIP3    H254723   3.593   1.281  14.972  1.2632 -0.3733 -0.5682
11078TIP3   OH254724   5.029   5.479   0.628 -0.4599 -0.2787  0.1005
11078TIP3    H154725   4.966   5.491   0.699 -2.0063 -0.5274 -1.1817
11078TIP3    H254726   5.044   5.568   0.595 -0.5103 -0.2812  0.0727
11079TIP3   OH254727   1.686   0.140  10.551  0.2146  0.0912 -0.3586
11079TIP3    H154728   1.661   0.190  10.629  1.5988  0.4860 -0.1333
11079TIP3    H254729   1.767   0.182  10.522  1.1239 -1.6782 -0.4900
11080TIP3   OH254730   2.666   0.159   5.582 -0.7556 -0.8390  0.8248
11080TIP3    H154731   2.654   0.193   5.494 -1.1773 -2.4161  0.2314
11080TIP3    H254732   2.726   0.220   5.624  0.9586 -1.0372 -1.1700
11081TIP3   OH254733   3.633   5.512   3.540 -0.5609 -0.0457 -0.0018
11081TIP3    H154734   3.697   5.468   3.596  1.0553 -0.9628 -2.4303
11081TIP3    H254735   3.548   5.486   3.576  0.3919 -1.0838  1.6203
11082TIP3   OH254736   3.186   2.568  15.137  0.2069  0.2897  0.1097
11082TIP3    H154737   3.190   2.478  15.169  0.4768  0.3193  0.1647
11082TIP3    H254738   3.094   2.592  15.145 -0.0476 -0.3194 -0.8621
11083TIP3   OH254739   4.517   0.508  16.885 -0.4186  0.4878 -0.0599
11083TIP3    H154740   4.604   0.475  16.864  0.6951  1.8111  2.1227
11083TIP3    H254741   4.474   0.435  16.932  0.8599  0.9418  1.9378
11084TIP3   OH254742   2.162   3.490  13.741 -0.1759  0.1522  0.3089
11084TIP3    H154743   2.141   3.398  13.726 -0.4289 -0.0990  1.9831
11084TIP3    H254744   2.080   3.529  13.771 -0.2441  1.1132 -1.0242
11085TIP3   OH254745   5.503   1.323   4.144 -0.0871  0.5987  0.0949
11085TIP3    H154746   5.424   1.269   4.155 -0.7988  1.9671  2.3235
11085TIP3    H254747   5.502   1.348   4.052 -0.2359 -2.3304 -0.8190
11086TIP3   OH254748   5.407   4.496   3.715 -0.2946  0.2069 -0.1526
11086TIP3    H154749   5.342   4.559   3.685  0.7274  3.0130  3.0044
11086TIP3    H254750   5.357   4.417   3.734 -2.2202  1.1999 -0.8142
11087TIP3   OH254751   2.334   3.728   3.656 -0.4195  0.1549 -0.2973
11087TIP3    H154752   2.322   3.781   3.734 -0.5419 -0.7991  0.3477
11087TIP3    H254753   2.425   3.698   3.661 -0.7352 -0.8037  0.0808
11088TIP3   OH254754   3.749   3.047  13.325  0.3652 -0.0651  0.3222
11088TIP3    H154755   3.703   2.971  13.361  0.9459 -0.3803  0.4239
11088TIP3    H254756   3.841   3.032  13.348  0.4351  0.8947  0.7434
11089TIP3   OH254757   5.466   5.572  14.476  0.2127  0.4470 -0.5937
11089TIP3    H154758   5.511   5.642  14.429  0.3524  1.5347  1.0570
11089TIP3    H254759   5.521   5.556  14.553  0.5727 -2.0412 -1.2807
11090TIP3   OH254760   3.998   4.918  15.029 -0.1244  0.4088 -0.5164
11090TIP3    H154761   3.994   4.890  14.937 -0.5540 -0.3093 -0.2862
11090TIP3    H254762   3.907   4.939  15.051 -0.2910 -0.9900  0.2187
11091TIP3   OH254763   6.830   5.793  10.764 -0.0240  0.3909  0.2631
11091TIP3    H154764   6.871   5.749  10.689 -1.0149 -0.2967  0.0981
11091TIP3    H254765   6.743   5.820  10.732 -1.0622 -1.2263  1.5343
11092TIP3   OH254766   5.604   0.128  16.022 -0.0952  0.1841  0.7116
11092TIP3    H154767   5.526   0.085  15.986 -0.2447  0.0236  1.2110
11092TIP3    H254768   5.598   0.111  16.116  1.6267 -1.6073  0.5474
11093TIP3   OH254769   2.120   5.258  11.144  0.1031  0.3808  0.2333
11093TIP3    H154770   2.181   5.189  11.119 -0.0240 -0.2555  1.5889
11093TIP3    H254771   2.033   5.222  11.125  0.0937  1.5870 -2.4473
11094TIP3   OH254772   4.524   2.177   3.681  0.4704 -0.3729  0.5162
11094TIP3    H154773   4.529   2.239   3.754  1.8837 -2.3450  2.2083
11094TIP3    H254774   4.597   2.201   3.624  0.2456  0.2547  0.4746
11095TIP3   OH254775   2.920   4.579   3.491  0.5793 -0.1639  0.8343
11095TIP3    H154776   2.835   4.573   3.536 -1.0378  2.4481 -1.5491
11095TIP3    H254777   2.918   4.507   3.428 -0.6145  0.7940 -0.2632
11096TIP3   OH254778   1.219   0.147  16.652  0.3505  0.8811 -0.3869
11096TIP3    H154779   1.219   0.091  16.575 -0.7162 -0.9337  0.8444
11096TIP3    H254780   1.261   0.228  16.624 -0.6960  0.5884 -3.0706
11097TIP3   OH254781   2.893   4.432   4.340  0.1008  0.4546  0.1572
11097TIP3    H154782   2.884   4.337   4.348 -0.4062  0.5515  0.8873
11097TIP3    H254783   2.972   4.445   4.287  0.8579 -0.3579  1.0554
11098TIP3   OH254784   4.700   1.835  11.367  0.4014 -0.6325  0.6190
11098TIP3    H154785   4.638   1.771  11.333 -0.2461 -0.1947  0.9653
11098TIP3    H254786   4.651   1.917  11.371  1.1999 -0.1195  0.2358
11099TIP3   OH254787   6.549   3.125   2.888  0.2550  0.5721 -0.2125
11099TIP3    H154788   6.522   3.141   2.978  0.8204 -1.7393  0.4317
11099TIP3    H254789   6.512   3.198   2.838  0.6938  2.4057  1.9928
11100TIP3   OH254790   2.632   4.997   4.281  0.2236 -0.4055 -0.2442
11100TIP3    H154791   2.575   5.056   4.332  0.0606 -1.6464  1.0834
11100TIP3    H254792   2.606   5.011   4.190 -1.7887 -0.4706  0.2704
11101TIP3   OH254793   1.310   3.066   3.744  0.2363  0.7543 -0.4887
11101TIP3    H154794   1.365   3.025   3.677 -0.3821  2.5767 -2.1916
11101TIP3    H254795   1.221   3.045   3.719  0.0008  1.3443 -0.1763
11102TIP3   OH254796   1.506   5.983   0.195 -0.1143  0.1553 -0.4746
11102TIP3    H154797   1.561   6.054   0.230  1.6291 -1.5115  0.3656
11102TIP3    H254798   1.428   5.983   0.250  0.6182  0.3930  0.5917
11103TIP3   OH254799   1.187   4.981   5.849  0.1809 -0.2396  0.8073
11103TIP3    H154800   1.092   4.981   5.861 -0.0605  1.5662 -0.7122
11103TIP3    H254801   1.201   4.936   5.766  0.1547  3.3615 -1.3659
11104TIP3   OH254802   4.221   0.310   2.659  0.1521 -0.5853  0.3047
11104TIP3    H154803   4.185   0.391   2.696  1.5263  0.4916 -0.6220
11104TIP3    H254804   4.159   0.242   2.686 -0.9941  0.7490  1.1826
11105TIP3   OH254805   3.554   2.530  11.810  0.1375  0.0370  0.3904
11105TIP3    H154806   3.540   2.459  11.873 -3.1403  0.0193 -0.1458
11105TIP3    H254807   3.490   2.513  11.741  0.9198  2.1933 -0.9673
11106TIP3   OH254808   0.824   2.186   0.480  0.2211 -0.3373 -0.2227
11106TIP3    H154809   0.840   2.178   0.574 -0.1479 -0.7940 -0.1944
11106TIP3    H254810   0.810   2.280   0.467  1.4859 -0.1115 -0.0282
11107TIP3   OH254811   3.456   6.340   3.886 -0.0874  0.3556  0.4406
11107TIP3    H154812   3.406   6.394   3.948 -0.4591  1.8669 -1.1231
11107TIP3    H254813   3.520   6.400   3.848 -0.1621 -0.4215 -0.9655
11108TIP3   OH254814   5.466   3.758   0.176  0.5242  0.2776  0.1387
11108TIP3    H154815   5.491   3.777   0.085  1.3836 -0.7959  0.1378
11108TIP3    H254816   5.490   3.837   0.224  0.4742  0.6875 -0.4947
11109TIP3   OH254817   0.975   4.162  13.724  0.0012 -0.6565  0.6461
11109TIP3    H154818   0.987   4.162  13.629 -0.5874  3.2297  0.4060
11109TIP3    H254819   0.898   4.106  13.738 -1.1121  0.2504 -1.4207
11110TIP3   OH254820   0.919   4.414   0.607 -0.0643  0.3642  0.0280
11110TIP3    H154821   0.937   4.400   0.514 -0.7077 -2.7784  0.2553
11110TIP3    H254822   0.974   4.488   0.631 -0.4164  1.7515 -2.9680
11111TIP3   OH254823   2.638   2.515   1.263 -0.0884 -0.1402 -0.2035
11111TIP3    H154824   2.695   2.578   1.306 -1.2475  0.6132  0.2846
11111TIP3    H254825   2.677   2.501   1.177  1.3983 -0.4601  0.5002
11112TIP3   OH254826   6.032   2.520   2.932  0.4262 -0.2838  0.6791
11112TIP3    H154827   6.056   2.558   3.017  2.3904  0.2697 -0.0670
11112TIP3    H254828   5.964   2.578   2.899  0.5071  0.2177  1.3475
11113TIP3   OH254829   4.686   6.305   2.665 -0.0478 -0.1078  0.0173
11113TIP3    H154830   4.729   6.383   2.630  1.0628 -0.4166  0.6403
11113TIP3    H254831   4.594   6.315   2.641  0.2834  0.8120 -0.9367
11114TIP3   OH254832   4.861   3.683   0.658 -0.3497  0.3264  0.5639
11114TIP3    H154833   4.943   3.647   0.625  0.5859  1.8977  1.1093
11114TIP3    H254834   4.808   3.605   0.679  1.6571 -0.7833  1.8722
11115TIP3   OH254835   3.358   6.675   4.495  0.1015 -0.1809 -0.5134
11115TIP3    H154836   3.451   6.673   4.519 -0.0588 -2.3571  0.1185
11115TIP3    H254837   3.325   6.757   4.533  2.0098  1.3224 -1.8997
11116TIP3   OH254838   3.644   2.747   0.223 -0.0331 -0.0233  0.0764
11116TIP3    H154839   3.718   2.776   0.276  0.6906 -0.6229 -0.5845
11116TIP3    H254840   3.595   2.689   0.281 -0.0281  0.4160  0.5340
11117TIP3   OH254841   3.102   0.340   2.391  0.0030  0.1559  0.0466
11117TIP3    H154842   3.064   0.427   2.383 -1.3643 -0.1952  1.9735
11117TIP3    H254843   3.101   0.322   2.485  0.5183 -1.8208 -0.2819
11118TIP3   OH254844   2.614   4.373   4.297 -0.1475 -0.2962  0.1093
11118TIP3    H154845   2.614   4.290   4.345 -0.5563 -1.1694 -1.3316
11118TIP3    H254846   2.692   4.418   4.328  0.8009 -1.7835  0.0068
11119TIP3   OH254847   3.369   1.330   2.427 -0.7163 -0.0123 -0.1644
11119TIP3    H154848   3.363   1.320   2.522 -1.5454 -0.7516 -0.2827
11119TIP3    H254849   3.445   1.386   2.414  1.4248 -2.5184  0.7769
11120TIP3   OH254850   5.931   4.533  16.082 -0.6782 -0.1105  0.2776
11120TIP3    H154851   5.882   4.466  16.131  0.7352 -1.9432 -0.6670
11120TIP3    H254852   5.868   4.563  16.016 -1.0785 -1.2534  0.0997
11121TIP3   OH254853   1.872   4.232   0.652 -0.4012 -0.6228 -0.4705
11121TIP3    H154854   1.856   4.271   0.566 -1.0200 -0.8780 -0.4725
11121TIP3    H254855   1.795   4.253   0.704  0.1288 -0.1589  0.1456
11122TIP3   OH254856   5.487   0.544  16.842 -0.1071 -0.1254  0.4925
11122TIP3    H154857   5.453   0.456  16.861  0.1830 -0.4226 -0.3014
11122TIP3    H254858   5.572   0.547  16.886  0.6577 -0.8839 -0.8465
11123TIP3   OH254859   5.949   3.131  15.238 -0.2215 -0.0782 -0.1156
11123TIP3    H154860   5.907   3.199  15.185  1.1182  1.0490  0.2083
11123TIP3    H254861   5.889   3.117  15.311 -0.3743  1.0082 -0.0150
11124TIP3   OH254862   1.354   6.547   0.508 -0.0920  0.1707 -0.6649
11124TIP3    H154863   1.427   6.607   0.497 -0.2501  0.3771 -0.5785
11124TIP3    H254864   1.362   6.514   0.597 -0.3251  0.4857 -0.5254
11125TIP3   OH254865   2.526   6.323   2.981  0.3003 -0.5580 -0.5537
11125TIP3    H154866   2.610   6.339   2.938 -0.5981  0.9728 -1.9055
11125TIP3    H254867   2.502   6.234   2.957  0.4014 -0.1506 -2.3284
11126TIP3   OH254868   3.933   2.911   3.170 -0.4972  0.6569 -0.3525
11126TIP3    H154869   3.940   2.820   3.141  0.3802  1.0334 -1.3643
11126TIP3    H254870   3.976   2.962   3.102 -1.1301  1.8619  0.1126
11127TIP3   OH254871   1.747   6.805  14.297 -0.2362  0.0108  0.5863
11127TIP3    H154872   1.828   6.790  14.248 -0.5956 -0.7269  0.2018
11127TIP3    H254873   1.773   6.863  14.369  0.8777 -1.1333  1.1434
11128TIP3   OH254874   6.714   1.912  15.999  0.0758  0.5064 -0.3095
11128TIP3    H154875   6.784   1.957  16.046 -0.0017  2.0223 -1.5722
11128TIP3    H254876   6.634   1.959  16.025 -0.6444 -1.5704  1.5833
11129TIP3   OH254877   4.769   1.713  12.672 -0.1109 -0.5323 -0.7301
11129TIP3    H154878   4.692   1.663  12.698 -0.7072 -0.5937 -2.4552
11129TIP3    H254879   4.807   1.743  12.754 -1.4354 -1.2912  0.2068
11130TIP3   OH254880   1.214   2.116  14.060 -0.3783  0.6894  0.3969
11130TIP3    H154881   1.134   2.150  14.101  0.7993  0.9299  2.6842
11130TIP3    H254882   1.222   2.027  14.096  0.6132  0.8479  0.5967
11131TIP3   OH254883   6.273   5.687   1.960 -0.1350  0.3673 -0.1423
11131TIP3    H154884   6.236   5.599   1.964  0.2946  0.2299  1.7393
11131TIP3    H254885   6.360   5.678   1.998 -0.3129  1.6912  0.6349
11132TIP3   OH254886   1.530   1.364   4.365  0.2892  0.0488 -0.3263
11132TIP3    H154887   1.595   1.418   4.321 -0.7021  0.3818 -1.4505
11132TIP3    H254888   1.501   1.417   4.440  1.4613 -0.2137  0.3368
11133TIP3   OH254889   1.755   6.270   3.637  0.4608  0.1094  0.4335
11133TIP3    H154890   1.777   6.181   3.609  0.3773  0.5427 -1.1367
11133TIP3    H254891   1.838   6.316   3.639  0.4326  0.1509  0.6628
11134TIP3   OH254892   0.764   6.702   1.092 -0.1964 -0.3097  0.0815
11134TIP3    H154893   0.824   6.713   1.166 -0.2682  0.3602  0.0435
11134TIP3    H254894   0.822   6.679   1.019 -0.2171 -2.0208  0.5467
11135TIP3   OH254895   2.407   5.119   0.905 -0.7516  0.0060 -0.2386
11135TIP3    H154896   2.355   5.046   0.871 -0.9104  0.1396 -0.2877
11135TIP3    H254897   2.405   5.184   0.834 -0.3806 -0.0550 -0.3039
11136TIP3   OH254898   3.381   0.099   2.280 -0.3460 -0.2878  0.7592
11136TIP3    H154899   3.425   0.038   2.340 -1.2489 -1.9644 -0.2184
11136TIP3    H254900   3.453   0.147   2.238  0.3788 -0.5600  1.6314
11137TIP3   OH254901   1.289   3.531  15.525  0.3795  0.8667  0.0560
11137TIP3    H154902   1.317   3.440  15.537  0.8975  1.1444  1.1315
11137TIP3    H254903   1.346   3.564  15.455  2.9562  1.4383  2.2404
11138TIP3   OH254904   4.514   4.014  15.078  0.2239 -0.0346  0.2014
11138TIP3    H154905   4.519   3.978  15.167 -1.7106  2.5033  1.5033
11138TIP3    H254906   4.603   4.041  15.058  0.5480  0.1502  1.7693
11139TIP3   OH254907   6.435   1.975   1.417 -0.0589  0.6265  0.3101
11139TIP3    H154908   6.513   1.957   1.365  0.2628  0.5982  0.8024
11139TIP3    H254909   6.464   2.033   1.486 -0.5832  1.0266  0.2018
11140TIP3   OH254910   2.194   6.197   5.322 -0.2577 -0.2264 -0.0222
11140TIP3    H154911   2.280   6.196   5.281 -0.1636 -0.1489  0.1715
11140TIP3    H254912   2.187   6.283   5.362 -0.6924  0.0138 -0.5949
11141TIP3   OH254913   4.315   5.587  13.526  0.7335  1.0944  0.5892
11141TIP3    H154914   4.249   5.655  13.539 -0.2994  0.3618 -0.5291
11141TIP3    H254915   4.330   5.550  13.613 -1.8961 -0.0817  0.6402
11142TIP3   OH254916   0.615   2.649  14.201 -0.1951 -0.5175 -0.1846
11142TIP3    H154917   0.560   2.682  14.272  0.7904  2.8639 -0.8191
11142TIP3    H254918   0.678   2.591  14.244 -0.2696  0.6284  1.5623
11143TIP3   OH254919   3.193   5.457  12.026  0.3384 -0.3492  0.0923
11143TIP3    H154920   3.184   5.366  12.052 -0.8718 -0.6568 -1.3040
11143TIP3    H254921   3.143   5.506  12.091 -0.8150 -0.8944 -0.3635
11144TIP3   OH254922   0.369   1.769  11.474 -0.4576 -0.0233  0.0813
11144TIP3    H154923   0.399   1.808  11.392 -0.1668 -2.1798 -0.9196
11144TIP3    H254924   0.273   1.771  11.468 -0.4387 -0.5565 -0.5267
11145TIP3   OH254925   2.234   6.139   0.288  0.0283 -0.0537  0.4203
11145TIP3    H154926   2.184   6.063   0.316 -0.5574  0.1651 -0.0211
11145TIP3    H254927   2.240   6.130   0.193 -0.8438  0.9235  0.2542
11146TIP3   OH254928   2.422   4.757   5.251  0.3156 -0.4756 -0.5923
11146TIP3    H154929   2.398   4.850   5.249  0.9316 -0.2713  0.5515
11146TIP3    H254930   2.361   4.716   5.189 -1.5139  0.3362  0.5669
11147TIP3   OH254931   4.262   3.634   1.477 -0.5121 -0.2365  0.0721
11147TIP3    H154932   4.213   3.716   1.481 -1.8016 -1.0122  1.7352
11147TIP3    H254933   4.330   3.643   1.544 -1.4888 -0.9728  1.2106
11148TIP3   OH254934   2.742   0.155   3.308 -0.0687  0.2967  0.2292
11148TIP3    H154935   2.676   0.178   3.242 -1.4143 -1.4908  0.8528
11148TIP3    H254936   2.730   0.061   3.321  0.9941  0.3758  2.1199
11149TIP3   OH254937   6.245   1.902   3.487  0.1954  0.0542  0.3992
11149TIP3    H154938   6.191   1.897   3.408 -0.7843  1.2619  0.9711
11149TIP3    H254939   6.203   1.843   3.549 -0.2514  0.6908  0.7099
11150TIP3   OH254940   1.508   0.590  16.140 -0.1816 -0.1016  0.1450
11150TIP3    H154941   1.462   0.580  16.224 -0.7973 -0.9278 -0.2729
11150TIP3    H254942   1.480   0.675  16.107 -0.3540 -0.0048  0.5350
11151TIP3   OH254943   2.042   0.759  15.053 -0.9253  0.1125 -0.5488
11151TIP3    H154944   1.980   0.830  15.039 -1.0530  0.1461  0.1323
11151TIP3    H254945   2.000   0.682  15.017 -1.4502  0.1012  0.0703
11152TIP3   OH254946   0.453   4.529  13.433 -0.2801  0.0323  0.0159
11152TIP3    H154947   0.454   4.624  13.434 -1.7759  0.1753  3.2658
11152TIP3    H254948   0.450   4.504  13.526 -0.7388 -3.1535 -0.7167
11153TIP3   OH254949   6.730   0.878  13.614  0.6553 -0.0669  0.0949
11153TIP3    H154950   6.692   0.917  13.535 -1.3578 -0.4625  0.8007
11153TIP3    H254951   6.718   0.784  13.602  0.3588 -0.1322  0.8376
11154TIP3   OH254952   2.271   5.325   4.011 -0.0449  0.1943 -0.2446
11154TIP3    H154953   2.245   5.280   3.931  1.3610 -0.6755 -0.2337
11154TIP3    H254954   2.188   5.351   4.052 -0.8211 -0.6882 -1.2117
11155TIP3   OH254955   3.550   6.522  12.637 -0.0559  0.0054 -0.2884
11155TIP3    H154956   3.458   6.495  12.633 -0.9145  2.3580  1.4125
11155TIP3    H254957   3.567   6.561  12.551 -0.8523  0.1785 -0.3715
11156TIP3   OH254958   5.203   2.345   3.751  0.0639 -0.3756 -0.7638
11156TIP3    H154959   5.216   2.295   3.832 -1.3321  0.3058 -0.0909
11156TIP3    H254960   5.255   2.424   3.762  0.6519 -0.7280 -0.9628
11157TIP3   OH254961   2.360   3.859   0.564  0.3310 -0.0748 -0.1141
11157TIP3    H154962   2.370   3.892   0.475  1.0135  0.1130  0.0256
11157TIP3    H254963   2.408   3.922   0.618  1.7557 -1.3264  0.1540
11158TIP3   OH254964   2.382   2.986  15.590  0.0554 -0.2905 -0.0311
11158TIP3    H154965   2.355   2.923  15.524  2.4474  0.1503 -1.5373
11158TIP3    H254966   2.384   2.935  15.672 -2.2373 -1.0126 -0.3581
11159TIP3   OH254967   5.006   0.848   1.638  0.2502 -0.1282  0.1562
11159TIP3    H154968   4.980   0.766   1.679  0.6163  0.5594  1.8710
11159TIP3    H254969   5.030   0.905   1.711  0.6132  1.3027 -1.0145
11160TIP3   OH254970   3.744   2.661  12.489 -0.3748 -0.0588  0.5875
11160TIP3    H154971   3.679   2.617  12.544 -2.9200 -0.3504 -2.3851
11160TIP3    H254972   3.705   2.746  12.470  0.4675  0.0800 -0.6523
11161TIP3   OH254973   1.013   5.109   1.445  0.5665  0.2956 -0.4810
11161TIP3    H154974   0.984   5.020   1.425 -0.1263  0.8774 -2.1627
11161TIP3    H254975   0.971   5.164   1.379  1.9145  1.7341 -0.1971
11162TIP3   OH254976   6.217   1.946   0.952 -0.0066 -0.3776 -0.5088
11162TIP3    H154977   6.281   1.876   0.939  0.7427 -0.5440  3.1550
11162TIP3    H254978   6.266   2.027   0.940  0.2341 -0.5005 -0.3580
11163TIP3   OH254979   0.789   2.191  15.397  0.0978  0.6250 -0.7644
11163TIP3    H154980   0.866   2.231  15.437 -1.1365  1.2693  1.1137
11163TIP3    H254981   0.822   2.112  15.354  1.7512  0.7367  0.2352
11164TIP3   OH254982   4.721   3.239   4.512  0.4517 -0.4075  0.5089
11164TIP3    H154983   4.639   3.289   4.512  0.2659 -0.6796  1.7899
11164TIP3    H254984   4.789   3.305   4.499  0.2117  0.2182  2.2027
11165TIP3   OH254985   3.018   0.735  15.944  0.0650  0.3061  0.5551
11165TIP3    H154986   3.101   0.783  15.944  0.8230 -0.9491  0.1899
11165TIP3    H254987   2.982   0.750  15.856  0.0952  0.5503  0.5853
11166TIP3   OH254988   6.757   6.581   1.724 -0.2159 -0.3066  0.0904
11166TIP3    H154989   6.736   6.568   1.816 -1.0079 -1.7828 -0.2768
11166TIP3    H254990   6.718   6.665   1.702 -1.4073 -0.6859  0.7054
11167TIP3   OH254991   1.806   0.658   6.329 -0.2513 -0.3221  0.0692
11167TIP3    H154992   1.818   0.636   6.421  0.7758  0.9301  0.2567
11167TIP3    H254993   1.821   0.576   6.283 -1.4376 -1.1258  1.0270
11168TIP3   OH254994   2.244   6.331  12.593 -0.2473 -0.0316 -0.9581
11168TIP3    H154995   2.248   6.314  12.687 -1.4363  0.7049 -0.7439
11168TIP3    H254996   2.206   6.251  12.555 -0.1531 -0.1723 -0.7546
11169TIP3   OH254997   1.384   2.399   5.077 -0.4378 -0.0492 -0.0063
11169TIP3    H154998   1.394   2.482   5.124  2.4668  0.7185 -1.6915
11169TIP3    H254999   1.354   2.425   4.989  1.9180 -0.5307 -1.0205
11170TIP3   OH255000   6.699   1.666  15.462  0.5685 -0.0094  0.4065
11170TIP3    H155001   6.671   1.597  15.400  0.5545 -1.4516  1.9414
11170TIP3    H255002   6.707   1.620  15.545 -2.6354  2.4613  2.2917
11171TIP3   OH255003   5.562   3.344  15.126 -0.6834  0.8660 -0.2123
11171TIP3    H155004   5.616   3.318  15.051  0.0642  2.0067 -0.0935
11171TIP3    H255005   5.542   3.436  15.111  1.1031  1.6927  1.8904
11172TIP3   OH255006   1.720   4.003  13.876 -0.0224  0.2791 -0.1465
11172TIP3    H155007   1.789   4.067  13.894  0.5550 -0.3191 -0.1992
11172TIP3    H255008   1.745   3.963  13.793 -1.0540  0.8659 -0.7686
11173TIP3   OH255009   1.094   6.617  11.212  0.2469  0.1905 -0.3324
11173TIP3    H155010   1.009   6.656  11.191  0.7812  1.1771 -0.7624
11173TIP3    H255011   1.073   6.544  11.270 -1.0648 -0.9330 -2.1207
11174TIP3   OH255012   5.395   4.746  11.551  0.0188 -0.4141  0.0493
11174TIP3    H155013   5.408   4.667  11.499  1.1328  0.0902 -0.4778
11174TIP3    H255014   5.457   4.736  11.624  0.6316  0.2437 -0.3651
11175TIP3   OH255015   1.799   0.239   6.301 -0.1274  0.3272  0.5988
11175TIP3    H155016   1.859   0.173   6.266 -1.1831  0.0688 -0.8164
11175TIP3    H255017   1.847   0.321   6.292  0.5461 -0.0413  0.7680
11176TIP3   OH255018   0.314   1.153  15.014 -0.0702  0.2885  0.1521
11176TIP3    H155019   0.242   1.133  15.073 -0.3419 -0.3929 -0.3877
11176TIP3    H255020   0.326   1.248  15.020 -1.0629  0.4149  0.1866
11177TIP3   OH255021   6.782   4.237   4.139 -0.6674 -0.5607  0.2094
11177TIP3    H155022   6.843   4.236   4.066  0.6211  0.8002  1.2190
11177TIP3    H255023   6.695   4.233   4.098 -0.0476  1.7666 -1.5265
11178TIP3   OH255024   1.643   4.350   0.765  0.0990  0.4248  0.5985
11178TIP3    H155025   1.649   4.440   0.731 -1.7826  0.0986 -0.7691
11178TIP3    H255026   1.557   4.346   0.807  0.1329 -0.7507  0.5803
11179TIP3   OH255027   1.157   5.301  10.546 -0.1812  0.2964 -0.1590
11179TIP3    H155028   1.122   5.375  10.497  1.6919  1.1212 -0.3265
11179TIP3    H255029   1.155   5.329  10.637  0.4085  0.5062 -0.2087
11180TIP3   OH255030   3.670   5.907   4.619  0.2128  0.1797 -0.2237
11180TIP3    H155031   3.707   5.980   4.669 -1.1222  0.0823  0.9851
11180TIP3    H255032   3.612   5.862   4.682  0.2962 -1.3660 -1.2083
11181TIP3   OH255033   3.098   2.383   3.484 -0.1810  0.3743 -0.5214
11181TIP3    H155034   3.126   2.354   3.571  0.8148  0.0929 -0.9111
11181TIP3    H255035   3.153   2.460   3.466  0.9096 -0.6133 -1.6053
11182TIP3   OH255036   6.334   5.641  13.000 -0.2451  0.2329  0.7641
11182TIP3    H155037   6.333   5.581  13.075 -3.1404  0.4591  1.0322
11182TIP3    H255038   6.371   5.590  12.928 -2.9826 -2.1394  0.8755
11183TIP3   OH255039   6.192   0.825   2.513 -0.0234  0.1725 -0.2213
11183TIP3    H155040   6.186   0.905   2.461  1.7352  0.0400 -0.7069
11183TIP3    H255041   6.284   0.799   2.505 -0.2875 -1.2149  0.9469
11184TIP3   OH255042   0.510   0.171   3.332 -0.1129  0.1486 -0.4774
11184TIP3    H155043   0.501   0.254   3.285  0.5920  0.5745  0.1188
11184TIP3    H255044   0.574   0.190   3.401 -2.1253 -0.0517  1.5509
11185TIP3   OH255045   0.709   1.332  16.280 -0.0174 -0.2406  0.0003
11185TIP3    H155046   0.656   1.314  16.357 -0.6982 -0.3986 -0.4986
11185TIP3    H255047   0.652   1.383  16.222  0.7189  0.5025 -0.1076
11186TIP3   OH255048   0.832   0.043  15.756  0.1227  0.5969  0.2446
11186TIP3    H155049   0.859  -0.007  15.833  0.3237  0.4278  0.0669
11186TIP3    H255050   0.863   0.132  15.773  1.2559  0.2992 -0.1789
11187TIP3   OH255051   6.629   5.646  16.077 -0.2849 -0.9415  0.1075
11187TIP3    H155052   6.684   5.572  16.051  0.6961 -0.4593  0.7585
11187TIP3    H255053   6.540   5.610  16.079 -0.3889 -1.1355 -3.3009
11188TIP3   OH255054   6.243   5.331  11.841  0.4461  0.1153 -0.0586
11188TIP3    H155055   6.307   5.290  11.900  2.2581 -0.4104 -2.2563
11188TIP3    H255056   6.270   5.423  11.837 -0.0698  0.2936  0.3845
11189TIP3   OH255057   3.790   5.121   4.994  1.0540 -0.8594  0.0790
11189TIP3    H155058   3.722   5.093   5.055  1.6643 -0.7282  0.8256
11189TIP3    H255059   3.751   5.196   4.948  1.2080  0.1243  1.5066
11190TIP3   OH255060   0.458   3.230  11.186  0.1287  0.4731  0.0351
11190TIP3    H155061   0.490   3.250  11.098  0.0490  2.1294  0.3478
11190TIP3    H255062   0.538   3.215  11.237  0.2243  0.5659 -0.0836
11191TIP3   OH255063   5.111   3.429   5.593  0.1868  0.5108 -0.1139
11191TIP3    H155064   5.160   3.467   5.665 -0.2437 -0.8587  0.9454
11191TIP3    H255065   5.053   3.500   5.563 -0.3393  0.8328  1.5505
11192TIP3   OH255066   6.722   3.423   1.154 -0.0210  0.4666  0.4523
11192TIP3    H155067   6.777   3.494   1.186  1.3960 -0.3924  0.0252
11192TIP3    H255068   6.668   3.463   1.086 -0.2799  1.4342  1.2112
11193TIP3   OH255069   0.859   5.908  12.578 -0.7851 -0.0769 -0.3796
11193TIP3    H155070   0.818   5.953  12.503 -3.3401 -0.1162  0.8942
11193TIP3    H255071   0.816   5.945  12.655  1.5805 -0.2349  1.1261
11194TIP3   OH255072   3.077   3.053  11.524 -0.1007 -0.2905  0.1018
11194TIP3    H155073   3.020   2.991  11.569 -0.0725 -0.7036 -0.4351
11194TIP3    H255074   3.020   3.098  11.462  0.1840 -0.8349 -0.5713
11195TIP3   OH255075   2.081   2.257  13.237 -0.7072 -0.2719 -0.2325
11195TIP3    H155076   2.099   2.350  13.222  1.3854 -0.7274 -0.9432
11195TIP3    H255077   2.085   2.218  13.149  1.5380 -1.4579  0.3134
11196TIP3   OH255078   3.046   5.192   4.861  0.7596  0.2645 -0.0090
11196TIP3    H155079   3.090   5.129   4.805  2.3212  0.4905  0.9193
11196TIP3    H255080   3.034   5.269   4.806  1.9354  0.3526 -0.1541
11197TIP3   OH255081   4.138   4.269   3.694  0.1831 -0.0553  0.1337
11197TIP3    H155082   4.118   4.286   3.602  2.0610 -0.3830 -0.3781
11197TIP3    H255083   4.171   4.179   3.696  0.4349  0.0395  1.0794
11198TIP3   OH255084   2.179   5.600  13.411 -0.6492  0.5435 -0.1494
11198TIP3    H155085   2.223   5.541  13.351 -0.2776  0.4040  0.2526
11198TIP3    H255086   2.150   5.673  13.357 -0.4143  0.3685 -0.5120
11199TIP3   OH255087   5.618   5.114  11.115  0.3342  0.0951  0.2207
11199TIP3    H155088   5.624   5.176  11.043  1.2109  0.9377  1.0022
11199TIP3    H255089   5.637   5.165  11.194  0.2166 -0.9748  0.9732
11200TIP3   OH255090   6.379   4.272  10.767  0.2704  0.5837 -0.3126
11200TIP3    H155091   6.389   4.177  10.770  0.3191  0.6089  0.6204
11200TIP3    H255092   6.426   4.299  10.688  1.2161 -0.0456  0.0257
11201TIP3   OH255093   6.730   4.973  16.939  0.4746  0.5801  0.3983
11201TIP3    H155094   6.732   4.890  16.988 -2.5350 -0.0508 -0.3670
11201TIP3    H255095   6.658   5.022  16.979  0.2187  1.5285 -1.1776
11202TIP3   OH255096   1.227   2.855  14.326 -0.2531 -0.3067  0.1894
11202TIP3    H155097   1.193   2.944  14.315 -0.1275 -0.1931  0.6884
11202TIP3    H255098   1.150   2.802  14.346 -0.4252 -0.4406 -0.7686
11203TIP3   OH255099   1.611   2.570  12.082  0.7072 -0.0902  0.0557
11203TIP3    H155100   1.626   2.662  12.061 -1.2805 -0.2256 -2.2854
11203TIP3    H255101   1.699   2.532  12.085  1.4977  1.6423 -0.0607
11204TIP3   OH255102   3.218   6.159  12.309  0.7061  0.4895  0.1743
11204TIP3    H155103   3.183   6.209  12.235 -0.5923  0.2106  0.5738
11204TIP3    H255104   3.271   6.222  12.358  0.3086  1.0790 -0.1439
11205TIP3   OH255105   5.608   0.355  14.996 -0.3049  0.2339 -0.3917
11205TIP3    H155106   5.515   0.339  15.010 -0.1190 -0.4501  0.1224
11205TIP3    H255107   5.652   0.299  15.060  0.4698  0.3084 -0.8442
11206TIP3   OH255108   2.672   1.943  16.008  0.1296  0.1279  0.1124
11206TIP3    H155109   2.760   1.913  15.983  0.5932  0.2042  1.5213
11206TIP3    H255110   2.630   1.865  16.045 -0.3925  0.1045 -0.5134
11207TIP3   OH255111   5.250   3.047   2.586  0.2689 -0.0256  0.1998
11207TIP3    H155112   5.286   2.973   2.635  0.3911  0.5961  1.0594
11207TIP3    H255113   5.161   3.056   2.618 -1.2048 -2.3023 -2.7400
11208TIP3   OH255114   1.415   1.379   3.340 -0.4467 -0.1904  0.2030
11208TIP3    H155115   1.507   1.353   3.344 -0.5043 -0.2465  1.7969
11208TIP3    H255116   1.415   1.473   3.363 -0.7798 -0.1938  0.2310
11209TIP3   OH255117   6.822   4.332  13.690 -0.0432  0.4321 -0.3711
11209TIP3    H155118   6.783   4.396  13.630 -0.2007 -0.1403 -0.8999
11209TIP3    H255119   6.839   4.256  13.634  0.1422  0.0184  0.2463
11210TIP3   OH255120   5.178   3.625   2.688  0.1997 -0.0036  0.1597
11210TIP3    H155121   5.238   3.615   2.615  1.1466 -1.0691  1.0431
11210TIP3    H255122   5.116   3.552   2.678 -1.1388  1.2108 -0.8678
11211TIP3   OH255123   1.108   5.387   4.399 -0.0340  0.9881  0.2418
11211TIP3    H155124   1.107   5.299   4.438  0.3388  0.8603 -0.0283
11211TIP3    H255125   1.070   5.443   4.467 -1.1513  0.4839  0.0563
11212TIP3   OH255126   3.322   2.740  13.178 -0.6406 -0.2459 -0.0550
11212TIP3    H155127   3.302   2.772  13.267  1.7181  1.5663 -0.0741
11212TIP3    H255128   3.400   2.687  13.189 -0.3792 -0.0779 -1.0369
11213TIP3   OH255129   6.431   1.787  15.003  0.2122  0.1345 -0.1652
11213TIP3    H155130   6.413   1.857  14.939 -1.7344 -0.9127 -0.8640
11213TIP3    H255131   6.524   1.796  15.023  0.8782  0.6844 -2.9727
11214TIP3   OH255132   5.153   6.224  10.177 -0.8769  0.4736 -0.0082
11214TIP3    H155133   5.075   6.276  10.159 -0.9746  0.0991 -0.7108
11214TIP3    H255134   5.227   6.283  10.161 -0.9453  0.0847 -2.0264
11215TIP3   OH255135   3.818   5.642  15.038 -0.8459 -0.4256 -0.0632
11215TIP3    H155136   3.791   5.588  14.963 -2.1203  1.7453 -1.3124
11215TIP3    H255137   3.766   5.722  15.028  0.2713  0.6578  2.1898
11216TIP3   OH255138   1.925   0.136  13.152  0.4465  0.2039 -0.5427
11216TIP3    H155139   1.979   0.204  13.110 -1.3479  1.5890 -0.7393
11216TIP3    H255140   1.885   0.181  13.226  0.4747 -1.1251  0.2920
11217TIP3   OH255141   0.323   3.877  15.766 -0.3156  0.5053  0.3097
11217TIP3    H155142   0.304   3.878  15.860  0.7179  1.2213  0.5289
11217TIP3    H255143   0.272   3.949  15.729  0.5122  1.2733  0.6076
11218TIP3   OH255144   5.690   1.450  14.935  0.3095  0.3249  0.4035
11218TIP3    H155145   5.759   1.474  14.873 -0.3912  0.9264 -0.1671
11218TIP3    H255146   5.696   1.515  15.005  0.9449 -0.2115  0.8654
11219TIP3   OH255147   2.065   3.457   4.341  0.1795  0.3261  0.1966
11219TIP3    H155148   2.155   3.490   4.338  1.0953 -1.9999  0.0710
11219TIP3    H255149   2.073   3.364   4.319 -2.3859  0.2547 -0.7666
11220TIP3   OH255150   5.755   2.864   4.185 -0.4846  0.6222 -0.0731
11220TIP3    H155151   5.733   2.786   4.236 -0.6121  1.4849  1.2395
11220TIP3    H255152   5.671   2.897   4.154 -0.8192  1.9444  2.0011
11221TIP3   OH255153   2.809   6.458   2.625  0.5525 -0.2531  0.0311
11221TIP3    H155154   2.773   6.453   2.714  1.9837 -2.0357  0.5609
11221TIP3    H255155   2.878   6.524   2.631 -0.0936  0.4471 -0.0630
11222TIP3   OH255156   1.941   5.646   1.024  0.3250 -0.0992 -0.4812
11222TIP3    H155157   1.994   5.682   0.953  1.0148  0.6828  0.4092
11222TIP3    H255158   2.004   5.629   1.095 -0.6866  1.8919  1.0154
11223TIP3   OH255159   5.340   3.828  11.509  0.3044  0.0895 -0.0355
11223TIP3    H155160   5.253   3.805  11.541  0.6753 -0.8191  0.3606
11223TIP3    H255161   5.385   3.744  11.501  0.2578  0.2510 -2.9244
11224TIP3   OH255162   2.655   4.560   2.781  0.1314  0.2707  0.1389
11224TIP3    H155163   2.597   4.484   2.792  0.0412  0.3510  0.2125
11224TIP3    H255164   2.597   4.636   2.784 -0.0019  0.2756 -1.5646
11225TIP3   OH255165   5.189   3.388  13.220 -0.4490  0.0287  0.1943
11225TIP3    H155166   5.263   3.426  13.267  0.5537 -1.9064  0.2631
11225TIP3    H255167   5.178   3.443  13.143  1.5704 -0.1086 -0.2245
11226TIP3   OH255168   5.192   1.924  11.020  0.4420 -0.0016 -0.1699
11226TIP3    H155169   5.286   1.918  11.005  0.2950 -1.9334 -0.6111
11226TIP3    H255170   5.172   1.853  11.081 -0.8452 -0.2830 -0.8635
11227TIP3   OH255171   1.234   2.174   3.370  0.4048 -0.1234  0.0894
11227TIP3    H155172   1.257   2.209   3.456  0.8825 -0.3238  0.0430
11227TIP3    H255173   1.138   2.167   3.373  0.4531 -0.6594  0.8101
11228TIP3   OH255174   2.240   3.805   4.233  0.0128 -0.2700  0.3708
11228TIP3    H155175   2.238   3.892   4.193 -1.0054 -0.2979  0.3460
11228TIP3    H255176   2.185   3.813   4.311 -1.1006 -1.1925 -0.2929
11229TIP3   OH255177   3.837   0.870  14.443 -0.8890  0.0060 -0.5228
11229TIP3    H155178   3.785   0.796  14.411  0.0291 -1.0320  0.3234
11229TIP3    H255179   3.862   0.918  14.364 -1.4402 -0.6185 -1.0852
11230TIP3   OH255180   6.010   2.858   4.309  0.3514  0.0672 -0.2212
11230TIP3    H155181   5.950   2.865   4.236  0.3687 -1.8885 -0.4724
11230TIP3    H255182   5.954   2.843   4.385  0.4145  0.4536 -0.0975
11231TIP3   OH255183   0.670   2.457  16.018 -0.1481 -0.3034 -0.1357
11231TIP3    H155184   0.705   2.535  15.975 -0.0650  0.1643  0.7610
11231TIP3    H255185   0.667   2.391  15.948  3.5871 -0.7558 -0.0924
11232TIP3   OH255186   2.540   4.876   1.144 -0.4488  0.0148 -0.6613
11232TIP3    H155187   2.495   4.800   1.107 -2.6861  1.9692 -2.2468
11232TIP3    H255188   2.615   4.889   1.087 -0.5904 -0.4308 -0.9545
11233TIP3   OH255189   3.197   1.677  15.214  0.0645  0.0679  0.5337
11233TIP3    H155190   3.138   1.641  15.148 -0.6308  2.9423 -0.5714
11233TIP3    H255191   3.256   1.733  15.165  1.4471  0.0055  2.0549
11234TIP3   OH255192   3.783   0.767   3.986 -0.0938  0.2723 -0.0204
11234TIP3    H155193   3.718   0.726   4.044  1.6394  2.6006  3.9782
11234TIP3    H255194   3.844   0.697   3.965  0.2017 -0.3830  2.6438
11235TIP3   OH255195   3.518   6.165   5.757  0.4722 -0.2558  0.4777
11235TIP3    H155196   3.599   6.132   5.717 -0.3613 -1.9003  0.0294
11235TIP3    H255197   3.490   6.094   5.816 -0.5081  0.3795  0.8039
11236TIP3   OH255198   5.886   5.615  16.954 -0.1494  0.3924  0.2480
11236TIP3    H155199   5.823   5.638  17.022 -1.5441 -0.5922 -0.6691
11236TIP3    H255200   5.949   5.687  16.955  0.4131 -0.0215  3.1823
11237TIP3   OH255201   3.957   2.475  16.256  0.1271  0.6051  0.3284
11237TIP3    H155202   3.937   2.559  16.214  0.4782  1.3952  1.6931
11237TIP3    H255203   4.047   2.485  16.288  0.0183 -0.1335  0.8925
11238TIP3   OH255204   5.954   2.992  10.127 -0.8632  0.1435  0.2885
11238TIP3    H155205   5.866   3.031  10.126  0.0051  2.3009  1.1029
11238TIP3    H255206   5.950   2.926  10.196 -1.6546  0.7599  0.8595
11239TIP3   OH255207   0.056   3.134  12.978 -0.0450 -0.1109 -0.3630
11239TIP3    H155208  -0.037   3.135  12.954  0.4853  1.0725 -2.6629
11239TIP3    H255209   0.094   3.208  12.929  2.3332 -1.3345 -0.4972
11240TIP3   OH255210   6.444   3.639  13.381  0.2915  0.9124 -0.1874
11240TIP3    H155211   6.395   3.616  13.459  0.3626  1.2381 -0.0451
11240TIP3    H255212   6.497   3.561  13.362 -0.9760  0.1818 -0.9094
11241TIP3   OH255213   5.856   4.945  15.181 -0.4892 -0.0793  0.4334
11241TIP3    H155214   5.925   4.913  15.240 -1.0789 -0.3226  1.0060
11241TIP3    H255215   5.883   5.034  15.158 -0.5316  0.2277  1.5246
11242TIP3   OH255216   0.017   3.985   0.618  0.0690 -0.3988  0.5360
11242TIP3    H155217   0.056   3.985   0.706 -1.7122  0.2198  1.3669
11242TIP3    H255218  -0.068   3.943   0.630  0.3426 -1.5254 -1.1870
11243TIP3   OH255219   6.114   3.499   0.727  0.1841  0.4548 -0.6173
11243TIP3    H155220   6.080   3.531   0.643  0.2934 -0.2393 -0.9319
11243TIP3    H255221   6.106   3.574   0.786 -0.0819  0.8898 -1.1944
11244TIP3   OH255222   4.636   4.561  13.141  0.5052  0.4436 -0.0329
11244TIP3    H155223   4.596   4.642  13.173  0.2805 -0.5627  2.4690
11244TIP3    H255224   4.708   4.544  13.201  1.7475 -0.2635 -1.6523
11245TIP3   OH255225   4.738   0.051   0.410 -0.1765  0.1991 -0.2728
11245TIP3    H155226   4.727   0.120   0.476 -0.4203 -0.4803  0.3991
11245TIP3    H255227   4.830   0.025   0.418  0.3607  1.5301 -1.6190
11246TIP3   OH255228   5.115   0.559   2.315 -0.4962 -0.2075 -0.0132
11246TIP3    H155229   5.176   0.544   2.243 -0.4245  0.0040  0.0031
11246TIP3    H255230   5.075   0.473   2.331  2.6872 -1.3804  2.6309
11247TIP3   OH255231   6.352   3.256  16.160 -0.1955  0.1291 -0.3519
11247TIP3    H155232   6.358   3.187  16.094 -0.1591 -0.2282  0.0252
11247TIP3    H255233   6.259   3.279  16.162 -0.1244  0.4838 -0.8731
11248TIP3   OH255234   4.416   6.024  11.049  0.4965 -0.0753  0.5651
11248TIP3    H155235   4.500   6.014  11.005  0.0700  0.3827 -0.3619
11248TIP3    H255236   4.388   6.113  11.029 -2.0896 -1.4079 -2.5745
11249TIP3   OH255237   6.727   2.590   4.901  0.4250  0.1630  0.3774
11249TIP3    H155238   6.701   2.549   4.819 -0.9509 -1.1026  1.4038
11249TIP3    H255239   6.657   2.652   4.921 -0.1683 -0.8124  1.4517
11250TIP3   OH255240   3.552   6.734   2.352  0.0930  0.4664 -0.0132
11250TIP3    H155241   3.584   6.741   2.262  0.4990 -0.6773  0.0292
11250TIP3    H255242   3.626   6.764   2.405  0.1827  0.2580 -0.0207
11251TIP3   OH255243   6.210   6.073  12.406  0.3249  0.0871 -0.4893
11251TIP3    H155244   6.128   6.053  12.359  0.7719  0.1212 -1.3017
11251TIP3    H255245   6.194   6.159  12.445 -0.0053  0.1267 -0.6991
11252TIP3   OH255246   4.916   0.461   2.888 -0.6608  0.0518  0.2113
11252TIP3    H155247   4.996   0.431   2.846 -0.3872 -0.8615  1.3204
11252TIP3    H255248   4.898   0.546   2.849  0.2898 -0.1851 -0.7769
11253TIP3   OH255249   1.215   1.885  13.088  0.3514  0.0594  0.2850
11253TIP3    H155250   1.127   1.889  13.125 -0.0996  0.8954 -0.8046
11253TIP3    H255251   1.274   1.889  13.164 -0.5351 -0.4887  1.0212
11254TIP3   OH255252   2.126   1.958   0.374 -0.4926  0.6471  0.2859
11254TIP3    H155253   2.132   2.009   0.293 -2.4677  1.1720  0.4043
11254TIP3    H255254   2.130   1.867   0.345 -0.1297  0.8386 -0.2907
11255TIP3   OH255255   3.878   4.428   3.576  0.1904  0.0334  0.2582
11255TIP3    H155256   3.824   4.504   3.556  0.9978  0.4263 -0.5162
11255TIP3    H255257   3.909   4.443   3.665 -0.1487  0.3145  0.3284
11256TIP3   OH255258   4.277   2.133  11.461  0.4199  0.0737 -0.1126
11256TIP3    H155259   4.236   2.176  11.386  1.7110 -0.3355 -1.1005
11256TIP3    H255260   4.224   2.056  11.478 -1.6817  1.7571  1.4035
11257TIP3   OH255261   2.856   5.782  11.506  0.9050  0.7501 -0.1453
11257TIP3    H155262   2.788   5.789  11.573  1.4484  1.3961  0.3478
11257TIP3    H255263   2.861   5.689  11.486 -0.8295  0.7920 -0.9227
11258TIP3   OH255264   3.300   3.850   1.274 -0.2506  0.0974  0.5286
11258TIP3    H155265   3.352   3.788   1.326 -0.2307 -1.3209 -1.0834
11258TIP3    H255266   3.210   3.823   1.288 -0.2175 -0.6025 -0.5007
11259TIP3   OH255267   6.388   1.565   5.442 -0.1919 -0.4416  0.3338
11259TIP3    H155268   6.308   1.618   5.443  1.1114  1.6283  0.2458
11259TIP3    H255269   6.426   1.578   5.529  0.1883 -1.2342  0.2939
11260TIP3   OH255270   1.470   6.750  11.850 -0.0697  0.0938 -0.5452
11260TIP3    H155271   1.538   6.791  11.797  2.5300 -2.4561  0.5483
11260TIP3    H255272   1.451   6.667  11.805 -1.2543  0.0139  0.0568
11261TIP3   OH255273   3.753   4.633  12.708 -0.0349 -0.6579 -0.3559
11261TIP3    H155274   3.715   4.628  12.620 -2.2464 -1.6076  0.5763
11261TIP3    H255275   3.755   4.542  12.738 -0.3301 -0.2437  0.9542
11262TIP3   OH255276   0.932   3.111  14.676  0.2766  0.0091 -0.0974
11262TIP3    H155277   0.929   3.015  14.677 -1.3018  0.0427 -0.6187
11262TIP3    H255278   1.023   3.131  14.699  0.8621 -1.6186 -0.8100
11263TIP3   OH255279   3.586   2.613   3.044  0.5552 -0.0887  0.4416
11263TIP3    H155280   3.636   2.542   3.004 -2.8897 -2.3094 -0.3619
11263TIP3    H255281   3.577   2.589   3.136 -0.6533 -0.8154  0.1594
11264TIP3   OH255282   4.260   3.134   2.549  0.0844 -0.1502  0.9179
11264TIP3    H155283   4.190   3.182   2.504  0.7480  0.5800  0.6308
11264TIP3    H255284   4.238   3.042   2.537 -2.3125  0.0369  3.1872
11265TIP3   OH255285   1.987   4.885  11.568  0.4972 -0.3597  0.6757
11265TIP3    H155286   1.975   4.866  11.475 -1.5648 -3.1034  1.3741
11265TIP3    H255287   1.916   4.946  11.589  0.0885 -0.8541  0.7344
11266TIP3   OH255288   2.894   3.331   5.050 -0.0980 -0.0436  0.2701
11266TIP3    H155289   2.834   3.394   5.091  0.2178  0.3236  0.1792
11266TIP3    H255290   2.973   3.335   5.104  0.5956  0.9910 -0.7860
11267TIP3   OH255291   6.600   6.816  13.115 -0.0340 -0.1503  0.0411
11267TIP3    H155292   6.582   6.770  13.197 -0.3103  0.9695  0.6246
11267TIP3    H255293   6.518   6.811  13.066  1.0479 -3.7342 -1.6975
11268TIP3   OH255294   1.993   4.071   4.897 -0.2063  0.0860  0.1839
11268TIP3    H155295   1.993   3.982   4.862 -1.1701  0.2959 -0.3834
11268TIP3    H255296   1.952   4.124   4.829 -1.1932  0.6703  1.2016
11269TIP3   OH255297   6.077   4.408  15.478  0.0826 -0.1664 -0.4314
11269TIP3    H155298   6.099   4.499  15.499 -1.1166 -0.2868  1.5360
11269TIP3    H255299   5.984   4.401  15.496 -0.2577 -1.3325 -2.4119
11270TIP3   OH255300   1.642   0.713   6.061 -0.6138 -0.1456 -0.5307
11270TIP3    H155301   1.673   0.796   6.025 -0.1956  1.8344  3.7103
11270TIP3    H255302   1.554   0.733   6.094 -0.6342 -1.4394  0.2845
11271TIP3   OH255303   2.201   6.875  14.115  0.4615  0.5081 -0.4575
11271TIP3    H155304   2.287   6.875  14.072 -0.2934 -1.0928 -2.1342
11271TIP3    H255305   2.167   6.963  14.103  0.9218  0.5078 -1.8783
11272TIP3   OH255306   1.748   2.064  15.909 -0.5315 -0.6193 -0.0285
11272TIP3    H155307   1.746   2.075  15.813  1.3523  0.5546  0.0258
11272TIP3    H255308   1.691   2.133  15.942 -1.1302 -0.9818 -0.2789
11273TIP3   OH255309   1.750   3.237   5.672  0.1921  0.0992  0.3306
11273TIP3    H155310   1.706   3.320   5.691 -1.1863 -0.2261 -1.2646
11273TIP3    H255311   1.684   3.170   5.687  1.4408 -0.8129  2.1215
11274TIP3   OH255312   1.968   0.977  13.123  0.2136 -0.3129  0.0628
11274TIP3    H155313   1.956   1.062  13.081 -0.4671 -1.0700 -1.3272
11274TIP3    H255314   1.955   0.913  13.053 -0.4346 -1.6067  1.3057
11275TIP3   OH255315   3.733   5.689  11.135 -0.4023 -0.5312 -0.6877
11275TIP3    H155316   3.678   5.617  11.104 -1.5338  0.0901 -0.1528
11275TIP3    H255317   3.816   5.646  11.157 -0.8895 -1.5993 -0.8306
11276TIP3   OH255318   6.717   6.648  14.193 -0.0203 -0.0931 -0.2109
11276TIP3    H155319   6.646   6.710  14.210  0.6907  1.4151 -2.3679
11276TIP3    H255320   6.683   6.592  14.122  0.6597  0.2101 -0.7917
11277TIP3   OH255321   1.300   1.897   4.065  0.7432 -0.1533 -0.1178
11277TIP3    H155322   1.218   1.885   4.114  0.6756 -0.9708 -0.4096
11277TIP3    H255323   1.290   1.981   4.020  0.5455  0.3078  0.7622
11278TIP3   OH255324   0.855   4.369  12.048  0.0950 -0.2883  0.3489
11278TIP3    H155325   0.933   4.421  12.067  0.7130 -0.8391 -0.6074
11278TIP3    H255326   0.873   4.283  12.086  0.0757 -0.5013 -0.1184
11279TIP3   OH255327   1.797   0.552  15.723 -0.3731  0.0480  0.0103
11279TIP3    H155328   1.850   0.611  15.776 -0.4304 -0.4115  0.6012
11279TIP3    H255329   1.711   0.553  15.765 -0.1508 -1.0911  0.5630
11280TIP3   OH255330   3.110   0.171  13.432 -0.3329  0.2967 -0.1478
11280TIP3    H155331   3.172   0.179  13.505  2.7780 -0.7585 -2.4446
11280TIP3    H255332   3.114   0.256  13.387  0.2003 -0.0813 -0.8303
11281TIP3   OH255333   4.547   1.944  12.725  0.3840  0.4400  0.1384
11281TIP3    H155334   4.556   1.944  12.820 -0.3453 -0.9337  0.2246
11281TIP3    H255335   4.610   1.879  12.694 -0.0631  0.1815 -0.2402
11282TIP3   OH255336   3.971   4.353   1.212 -0.1522 -0.0156 -0.1787
11282TIP3    H155337   4.046   4.409   1.233  0.5271 -0.6033 -0.9531
11282TIP3    H255338   3.904   4.378   1.275  0.1362  1.6516 -0.4867
11283TIP3   OH255339   5.046   6.145   2.766  0.7757 -0.1600  0.9902
11283TIP3    H155340   5.091   6.215   2.813 -0.5172  0.0399  1.9777
11283TIP3    H255341   5.022   6.082   2.833 -0.0753 -0.4438  0.4359
11284TIP3   OH255342   4.822   4.785  12.012 -0.6041  0.2071  0.6661
11284TIP3    H155343   4.859   4.698  12.021 -0.5203 -0.0035 -1.3286
11284TIP3    H255344   4.859   4.835  12.085  0.5192 -1.0173  0.9585
11285TIP3   OH255345   6.336   4.346  13.219  0.3673  0.0717 -0.1277
11285TIP3    H155346   6.327   4.322  13.311  1.7609 -1.5340 -0.3517
11285TIP3    H255347   6.281   4.423  13.209 -0.9344 -0.5302  1.7224
11286TIP3   OH255348   2.145   0.495  14.255 -0.2660  0.6915  0.1282
11286TIP3    H155349   2.054   0.525  14.248 -1.1056 -1.7422 -0.4474
11286TIP3    H255350   2.163   0.492  14.349 -0.5006  1.8565  0.2300
11287TIP3   OH255351   4.763   6.400  11.962  0.4701  0.0318 -0.3393
11287TIP3    H155352   4.724   6.332  11.908  0.2316  1.5442 -2.1673
11287TIP3    H255353   4.690   6.456  11.988  1.0530  1.5776 -1.8578
11288TIP3   OH255354   5.259   0.083  11.273  0.6611  0.4838 -0.1287
11288TIP3    H155355   5.295   0.162  11.233 -0.8838  0.7463 -1.0842
11288TIP3    H255356   5.164   0.093  11.266  0.4077 -0.9982  0.6582
11289TIP3   OH255357   3.283   3.994  11.847 -0.2261 -0.8189 -0.2868
11289TIP3    H155358   3.231   3.925  11.806 -1.3878 -1.9427  2.8297
11289TIP3    H255359   3.278   3.976  11.941  0.3909  2.8593  0.6091
11290TIP3   OH255360   2.321   1.357   2.020  0.8707  0.0158  0.4164
11290TIP3    H155361   2.389   1.298   1.989  3.0562  1.6901  1.7007
11290TIP3    H255362   2.260   1.301   2.068  0.9443 -1.6238 -1.3021
11291TIP3   OH255363   6.852   4.931  15.841  0.5303  0.0982 -0.1008
11291TIP3    H155364   6.885   4.978  15.917  1.1681  0.1064 -0.3731
11291TIP3    H255365   6.846   4.997  15.772  2.6332 -0.3964 -0.8495
11292TIP3   OH255366   3.999   4.281  11.230  0.4966 -0.2300 -0.3900
11292TIP3    H155367   3.955   4.224  11.293 -0.0342 -0.2785 -0.7969
11292TIP3    H255368   3.931   4.304  11.167  1.2425 -0.9916 -1.5204
11293TIP3   OH255369   4.086   0.300  11.043 -0.1330  0.3518 -0.1379
11293TIP3    H155370   4.013   0.259  10.998 -0.2346 -0.9027  1.0783
11293TIP3    H255371   4.046   0.355  11.111  0.0342  0.4920 -0.1515
11294TIP3   OH255372   2.583   1.025  15.019  0.7184  0.1787 -0.0567
11294TIP3    H155373   2.487   1.029  15.020  0.6758 -0.2253 -1.0514
11294TIP3    H255374   2.603   0.934  15.040  0.7639 -0.4154 -2.3768
11295TIP3   OH255375   5.041   6.039   0.448 -0.0097  0.0090 -0.1904
11295TIP3    H155376   5.050   6.134   0.451 -0.5910  0.0726 -0.3573
11295TIP3    H255377   4.984   6.022   0.373  0.1126 -0.4736 -0.1784
11296TIP3   OH255378   5.234   1.574  11.381 -0.4570  0.0683 -0.1326
11296TIP3    H155379   5.273   1.489  11.402  1.3087  0.6689 -0.8580
11296TIP3    H255380   5.181   1.595  11.458  2.3091  0.1714  1.8923
11297TIP3   OH255381   3.318   2.665  13.774 -0.3021 -0.6330 -0.3435
11297TIP3    H155382   3.275   2.751  13.768  1.2569  0.1736 -0.5649
11297TIP3    H255383   3.295   2.622  13.692 -0.7277 -0.2441 -0.4365
11298TIP3   OH255384   6.742   3.065   4.208  0.0652  0.2918  0.3507
11298TIP3    H155385   6.654   3.034   4.229  0.2270  1.3337  2.8565
11298TIP3    H255386   6.776   3.001   4.145 -1.2478 -2.0609  1.8828
11299TIP3   OH255387   4.704   5.277  16.332  0.6651  0.0231 -0.0345
11299TIP3    H155388   4.779   5.337  16.330 -0.8049  1.9811  0.8261
11299TIP3    H255389   4.638   5.318  16.276  0.3615 -1.9471 -1.2469
11300TIP3   OH255390   2.482   4.678  13.924 -0.0474  0.4223 -0.6295
11300TIP3    H155391   2.472   4.682  13.829 -0.5653  0.4276 -0.5739
11300TIP3    H255392   2.522   4.593  13.941 -0.4333  0.2072 -0.8086
11301TIP3   OH255393   4.587   0.929  10.646  0.2798  0.3210 -0.1338
11301TIP3    H155394   4.551   0.841  10.656  1.5869 -0.3097 -0.6987
11301TIP3    H255395   4.680   0.915  10.626  0.1250  1.7571 -2.1944
11302TIP3   OH255396   3.153   6.184   0.612  0.2749  0.5806 -0.4414
11302TIP3    H155397   3.065   6.191   0.650  0.6647 -1.0597  0.8619
11302TIP3    H255398   3.212   6.191   0.687  1.0849 -2.7476 -0.6322
11303TIP3   OH255399   2.255   4.779  14.809 -0.3390  0.4825 -0.3833
11303TIP3    H155400   2.244   4.868  14.777 -0.9613  0.1396 -1.1304
11303TIP3    H255401   2.195   4.773  14.883 -2.6772 -0.2554 -2.2313
11304TIP3   OH255402   5.793   5.118   6.446 -0.5475  0.3258 -0.0898
11304TIP3    H155403   5.799   5.097   6.353 -0.9161  0.7382 -0.2092
11304TIP3    H255404   5.716   5.070   6.477 -0.3285  0.0541  0.0443
11305TIP3   OH255405   5.127   1.959   1.656 -0.7354 -0.0568  0.4663
11305TIP3    H155406   5.177   2.009   1.592 -1.3083  0.0801  0.1162
11305TIP3    H255407   5.043   1.941   1.613 -0.8307 -0.6472  0.8789
11306TIP3   OH255408   1.609   5.778  13.747 -0.4489 -0.3625  0.5194
11306TIP3    H155409   1.606   5.770  13.651  0.3763 -2.2623  0.6033
11306TIP3    H255410   1.675   5.846  13.763  1.2847 -1.7769 -0.2686
11307TIP3   OH255411   2.169   4.050   2.903  0.3002 -0.3377 -0.1447
11307TIP3    H155412   2.193   4.126   2.956 -2.4630 -0.2680  1.1988
11307TIP3    H255413   2.112   4.086   2.835  0.2878 -0.9863 -0.4792
11308TIP3   OH255414   1.948   2.667   4.694 -0.0826 -0.2790  0.0066
11308TIP3    H155415   1.889   2.725   4.646  0.3418 -0.1443 -0.3683
11308TIP3    H255416   2.033   2.680   4.651  0.6639  1.0121  1.7645
11309TIP3   OH255417   3.907   0.079  13.480 -0.0385  0.4591 -0.1972
11309TIP3    H155418   3.968   0.005  13.482 -2.3467 -1.5675  1.0148
11309TIP3    H255419   3.962   0.156  13.488  2.5151 -1.0752 -1.6209
11310TIP3   OH255420   4.543   1.253  12.284  0.3474 -0.3290  0.2000
11310TIP3    H155421   4.612   1.247  12.218  0.7636  1.8037  0.3807
11310TIP3    H255422   4.525   1.162  12.307  0.6729 -1.1220 -2.3228
11311TIP3   OH255423   0.575   0.435  16.561  0.0628 -0.3451 -0.5881
11311TIP3    H155424   0.540   0.346  16.549  1.1175 -0.6523 -1.5763
11311TIP3    H255425   0.512   0.492  16.517 -1.1640 -0.4561  0.9203
11312TIP3   OH255426   0.193   5.409  15.477  0.2687  0.2164 -0.0033
11312TIP3    H155427   0.278   5.365  15.477  0.1561 -0.0319  1.5984
11312TIP3    H255428   0.137   5.352  15.424  0.1784 -1.5140  1.8475
11313TIP3   OH255429   3.162   3.040  13.213  0.5686  0.0679 -0.3330
11313TIP3    H155430   3.170   2.953  13.175  1.3162  0.5506 -1.3091
11313TIP3    H255431   3.249   3.062  13.245  0.0249 -0.2062  1.4549
11314TIP3   OH255432   4.598   3.131   1.406 -0.1666  0.0929 -0.1305
11314TIP3    H155433   4.690   3.120   1.432  0.0969  1.5628 -0.3317
11314TIP3    H255434   4.548   3.099   1.480  0.4989 -0.9430 -0.1083
11315TIP3   OH255435   5.107   4.540  16.694  0.5164  0.3545  0.1199
11315TIP3    H155436   5.172   4.589  16.645 -1.3349  0.2045 -2.7727
11315TIP3    H255437   5.113   4.573  16.783  3.8792  0.9217 -0.1927
11316TIP3   OH255438   6.675   0.656  14.052  0.0844  0.6198  0.2215
11316TIP3    H155439   6.661   0.582  13.993  0.8196  0.5093  0.1791
11316TIP3    H255440   6.769   0.673  14.047 -0.1796  2.0066 -0.2962
11317TIP3   OH255441   2.935   1.762   3.149  0.5615  0.4738 -0.2295
11317TIP3    H155442   2.886   1.794   3.226 -0.0785 -0.5544 -0.1973
11317TIP3    H255443   2.886   1.795   3.074  1.9650  2.6940 -0.2621
11318TIP3   OH255444   2.702   6.258  13.826  0.2157  0.2724 -0.1992
11318TIP3    H155445   2.781   6.211  13.851  0.4655  1.6330  1.7610
11318TIP3    H255446   2.663   6.204  13.757  2.2733 -0.9676 -0.4686
11319TIP3   OH255447   3.294   0.033  13.249 -0.1917 -0.7295 -0.6569
11319TIP3    H155448   3.255   0.101  13.304 -3.0641 -1.4641 -1.6116
11319TIP3    H255449   3.272  -0.049  13.294 -0.6545 -1.2112 -1.7209
11320TIP3   OH255450   4.646   5.475  11.653 -0.0254 -0.1231 -0.0392
11320TIP3    H155451   4.660   5.519  11.738 -0.9125  1.0144 -0.4571
11320TIP3    H255452   4.664   5.543  11.588 -0.6282 -0.6176 -0.7331
11321TIP3   OH255453   5.042   1.270   5.980 -0.0320 -0.1883  0.4677
11321TIP3    H155454   5.023   1.353   6.024 -0.4780 -0.8460  1.5596
11321TIP3    H255455   5.137   1.263   5.982  0.0116  0.3285  0.3101
11322TIP3   OH255456   5.490   2.154   0.503  0.5018 -0.3516 -0.1929
11322TIP3    H155457   5.561   2.108   0.548  0.4786 -0.0629  0.1437
11322TIP3    H255458   5.413   2.100   0.519  0.1180  0.6286  1.6555
11323TIP3   OH255459   0.034   6.784  16.119 -0.0729  0.5752  0.4700
11323TIP3    H155460   0.122   6.822  16.123  0.1632  0.0728  0.2200
11323TIP3    H255461   0.032   6.739  16.034 -0.5250  0.4738  0.5328
11324TIP3   OH255462   4.438   4.134  16.400 -0.4488  0.2672  0.5929
11324TIP3    H155463   4.522   4.166  16.433 -0.2000  0.2046  0.0345
11324TIP3    H255464   4.390   4.214  16.375  0.0583  0.2407 -0.5297
11325TIP3   OH255465   1.664   0.609   0.042 -0.8424 -0.0019  0.1682
11325TIP3    H155466   1.703   0.686   0.083 -1.3911  0.3288  0.0813
11325TIP3    H255467   1.680   0.622  -0.052 -1.5177  0.3513  0.0919
11326TIP3   OH255468   3.976   2.159  14.579  0.0648 -0.1920 -0.0210
11326TIP3    H155469   3.921   2.232  14.607  0.9735 -0.1309  1.7409
11326TIP3    H255470   3.987   2.172  14.484 -1.4907  0.7593 -0.0960
11327TIP3   OH255471   2.225   6.357  16.438  0.1959  0.1114  0.0974
11327TIP3    H155472   2.194   6.267  16.452 -0.7169  0.3231 -0.4802
11327TIP3    H255473   2.163   6.394  16.375  1.1897  0.8082 -0.4971
11328TIP3   OH255474   6.442   3.295  15.127  0.7902 -0.2666 -0.0069
11328TIP3    H155475   6.476   3.341  15.203  1.4638 -1.3353  0.3590
11328TIP3    H255476   6.517   3.291  15.067  0.3575  0.2750 -0.5951
11329TIP3   OH255477   6.742   5.577   3.996 -0.0060  0.2760 -0.2849
11329TIP3    H155478   6.736   5.658   4.047 -1.4332  1.6006 -2.3763
11329TIP3    H255479   6.835   5.566   3.978  0.2692  1.0694  0.5573
11330TIP3   OH255480   5.682   0.392   1.658  0.3342 -0.3724  0.2484
11330TIP3    H155481   5.606   0.336   1.643  1.1997 -1.7876  0.9281
11330TIP3    H255482   5.751   0.332   1.687  0.9234  1.1851  2.3597
11331TIP3   OH255483   1.636   2.962   5.667  0.4404  0.0786 -0.3937
11331TIP3    H155484   1.716   2.916   5.692 -0.7422 -1.0098  1.6230
11331TIP3    H255485   1.567   2.921   5.719 -1.2996  1.6324 -1.3417
11332TIP3   OH255486   4.414   6.604   2.123 -0.2719  0.0510  0.3605
11332TIP3    H155487   4.430   6.526   2.069 -3.2513 -0.5857  0.1854
11332TIP3    H255488   4.431   6.678   2.065  0.6848 -0.5157 -0.0934
11333TIP3   OH255489   5.600   3.605  14.158 -0.8110  0.2535 -0.8445
11333TIP3    H155490   5.593   3.516  14.122 -2.0746  0.3740 -0.9385
11333TIP3    H255491   5.560   3.661  14.091 -1.3854  0.7106 -0.1282
11334TIP3   OH255492   3.962   3.590   4.715 -0.5645 -0.0446 -0.1911
11334TIP3    H155493   3.917   3.600   4.632 -2.3491 -0.5848  0.6613
11334TIP3    H255494   3.966   3.679   4.751  0.4421  0.2270 -0.9385
11335TIP3   OH255495   0.415   1.377   0.025  0.1612 -0.6565 -0.6351
11335TIP3    H155496   0.371   1.423  -0.046 -1.2573 -3.1284 -1.4656
11335TIP3    H255497   0.454   1.300  -0.017  2.4196 -0.3321  0.6916
11336TIP3   OH255498   4.371   2.133  14.058  0.1115 -0.1152  0.1511
11336TIP3    H155499   4.438   2.114  13.992  1.7497 -0.2947  1.7995
11336TIP3    H255500   4.314   2.198  14.015 -0.1611 -1.7662 -2.1752
11337TIP3   OH255501   0.427   1.698   3.126  0.3190 -0.2198  0.1882
11337TIP3    H155502   0.447   1.732   3.038  3.2745  0.3781  0.9821
11337TIP3    H255503   0.401   1.607   3.110  0.3765 -0.0044 -1.3485
11338TIP3   OH255504   6.676   6.661  10.858  0.2999  0.0511 -0.2299
11338TIP3    H155505   6.719   6.690  10.778  1.3763 -2.3036 -0.5917
11338TIP3    H255506   6.745   6.662  10.924 -0.1218  0.1989  0.2174
11339TIP3   OH255507   4.164   0.656  12.122 -0.5987 -0.0886  0.0633
11339TIP3    H155508   4.213   0.660  12.204 -0.9233  1.0769  0.2283
11339TIP3    H255509   4.229   0.635  12.055 -0.5015 -2.0334  0.7347
11340TIP3   OH255510   1.404   1.693  15.873  0.2026  0.6167  0.1358
11340TIP3    H155511   1.342   1.626  15.841  0.3584  0.1082  0.8683
11340TIP3    H255512   1.354   1.774  15.870  0.5540  0.8487 -2.5132
11341TIP3   OH255513   0.955   6.591   3.038  0.1919  0.0987  0.1317
11341TIP3    H155514   1.045   6.580   3.005  0.8453  1.5257  1.3055
11341TIP3    H255515   0.904   6.525   2.992  1.8884 -0.8753 -0.4317
11342TIP3   OH255516   0.510   1.488   3.407  0.6683  0.2969  0.2676
11342TIP3    H155517   0.491   1.532   3.325  0.7045 -0.6977 -0.2849
11342TIP3    H255518   0.429   1.444   3.431  1.0800 -0.6619 -0.0318
11343TIP3   OH255519   3.750   5.914  15.051 -0.1778  0.5511 -0.1891
11343TIP3    H155520   3.749   5.993  14.997  4.4097  1.2911  0.4317
11343TIP3    H255521   3.754   5.946  15.141 -0.5254 -0.4844  0.2108
11344TIP3   OH255522   4.125   1.401   0.801  0.5090  0.5273  0.7551
11344TIP3    H155523   4.098   1.358   0.719  0.7364 -1.0878  1.5024
11344TIP3    H255524   4.114   1.494   0.782  0.8223  0.2230 -1.2188
11345TIP3   OH255525   4.530   3.382   1.526 -0.2271  0.1949 -0.1335
11345TIP3    H155526   4.558   3.473   1.527  0.5308 -0.0330  0.2888
11345TIP3    H255527   4.581   3.343   1.454 -2.2637  0.6025 -1.9043
11346TIP3   OH255528   3.898   6.723   3.570  0.2217  0.4341 -0.1202
11346TIP3    H155529   3.870   6.811   3.594 -0.6268  0.0579  0.3031
11346TIP3    H255530   3.919   6.729   3.477  1.7664  1.4692  0.2481
11347TIP3   OH255531   2.779   6.816   2.685  0.6688 -0.1691  0.1829
11347TIP3    H155532   2.713   6.803   2.754  0.3536 -1.5449 -0.3328
11347TIP3    H255533   2.735   6.871   2.621 -0.0598 -1.1626 -0.2060
11348TIP3   OH255534   3.757   3.472  16.808  0.3486 -0.0473 -0.8102
11348TIP3    H155535   3.709   3.403  16.855  1.0526  0.2682  0.4320
11348TIP3    H255536   3.828   3.426  16.763  0.7169 -0.1690 -0.1201
11349TIP3   OH255537   4.361   1.480  15.781  0.4649 -0.4680 -0.1818
11349TIP3    H155538   4.451   1.482  15.751  0.7821 -0.1145  0.7590
11349TIP3    H255539   4.348   1.391  15.814  1.0752  0.0074  1.4206
11350TIP3   OH255540   4.908   5.134   2.483 -0.1455  0.1557  0.5946
11350TIP3    H155541   4.935   5.116   2.393  0.4841  0.4459  0.7181
11350TIP3    H255542   4.985   5.176   2.523 -0.6090  0.5288  1.1077
11351TIP3   OH255543   6.884   6.516   0.290 -0.0272  0.7867 -0.1495
11351TIP3    H155544   6.892   6.579   0.219  2.0403 -1.0315 -1.6883
11351TIP3    H255545   6.827   6.448   0.256  1.3062 -0.3024 -0.3236
11352TIP3   OH255546   5.665   2.489   4.071  0.6164 -0.0144 -0.2944
11352TIP3    H155547   5.716   2.564   4.040  0.1798  1.0878  1.4375
11352TIP3    H255548   5.655   2.505   4.165 -0.9197 -1.3953 -0.1707
11353TIP3   OH255549   6.371   6.494  12.508  0.3898  0.3070 -0.1614
11353TIP3    H155550   6.353   6.573  12.458  0.5045  0.4686  0.0486
11353TIP3    H255551   6.393   6.525  12.596  1.3177  0.1034 -0.3038
11354TIP3   OH255552   2.077   2.508  16.023  0.0839  0.0838 -0.5560
11354TIP3    H155553   2.126   2.460  16.090  0.9532 -0.9083 -1.8402
11354TIP3    H255554   2.083   2.452  15.945 -1.1711  1.0455 -1.3724
11355TIP3   OH255555   0.133   0.689  14.462 -0.3576  0.5692  0.1195
11355TIP3    H155556   0.115   0.619  14.399 -0.9344  0.0347  0.8523
11355TIP3    H255557   0.208   0.658  14.512 -0.5703  0.4978  0.3985
11356TIP3   OH255558   1.998   4.330   5.445  0.5530  0.4423 -0.3177
11356TIP3    H155559   2.065   4.272   5.481  1.0869  1.2730  0.0669
11356TIP3    H255560   2.038   4.368   5.367  0.1863  0.2587 -0.6013
11357TIP3   OH255561   3.424   5.267   4.767 -0.4842  0.4274  1.1120
11357TIP3    H155562   3.403   5.196   4.707  2.5123 -0.4737  0.9603
11357TIP3    H255563   3.420   5.228   4.854 -0.3995  0.5057  1.1522
11358TIP3   OH255564   5.821   4.662   2.106  0.0185  0.1616 -0.0807
11358TIP3    H155565   5.896   4.623   2.151  0.4635  0.3381 -0.6518
11358TIP3    H255566   5.745   4.614   2.140  0.5106 -0.9174 -0.4347
11359TIP3   OH255567   2.319   6.161   1.904  0.9748 -0.3452 -0.5423
11359TIP3    H155568   2.386   6.160   1.836 -1.2495  1.1399 -2.9509
11359TIP3    H255569   2.251   6.219   1.870 -0.8115 -0.4271  2.4921
11360TIP3   OH255570   1.886   4.997   1.313  0.1947  0.2377 -0.3603
11360TIP3    H155571   1.809   4.945   1.336 -0.2084  0.7499 -0.5283
11360TIP3    H255572   1.956   4.933   1.300  0.4342 -0.1106  2.1530
11361TIP3   OH255573   0.732   3.307   0.145 -0.1528  0.0106 -0.0507
11361TIP3    H155574   0.672   3.336   0.077  1.6384  1.2927 -1.1657
11361TIP3    H255575   0.729   3.211   0.140 -1.2330  0.0592 -0.8207
11362TIP3   OH255576   4.472   6.772  11.297  0.1054  0.8866  0.0428
11362TIP3    H155577   4.474   6.680  11.269 -0.4972  0.6560  0.7288
11362TIP3    H255578   4.386   6.803  11.270  0.5464  1.4541 -0.7667
11363TIP3   OH255579   5.531   6.592  16.931  0.2050  0.2818  0.3243
11363TIP3    H155580   5.525   6.613  16.838 -3.3334  1.1313  0.5815
11363TIP3    H255581   5.538   6.497  16.933  1.3358  0.3132 -0.7806
11364TIP3   OH255582   3.804   1.787   5.153 -0.9149  0.7669 -0.3414
11364TIP3    H155583   3.832   1.837   5.075  1.6003 -1.0221 -0.7056
11364TIP3    H255584   3.865   1.814   5.222 -0.5638 -0.5477 -0.1111
11365TIP3   OH255585   5.871   0.409  13.792  0.7298 -0.1128  0.0705
11365TIP3    H155586   5.879   0.471  13.719  0.5416  0.9329  0.9121
11365TIP3    H255587   5.803   0.348  13.764 -0.1306  0.9361 -0.1954
11366TIP3   OH255588   5.564   1.052  13.295  0.8135 -0.0557  0.3150
11366TIP3    H155589   5.608   0.971  13.269 -1.0903 -1.1306  0.2297
11366TIP3    H255590   5.473   1.026  13.307  0.4579  1.7422  1.9344
11367TIP3   OH255591   4.280   4.788  11.841 -0.0369  0.1953  0.4360
11367TIP3    H155592   4.251   4.701  11.868 -1.1512 -0.0739 -1.4447
11367TIP3    H255593   4.219   4.848  11.884  0.0956 -0.0056  0.9144
11368TIP3   OH255594   5.416   4.072  15.818 -0.1650 -0.2467  0.2928
11368TIP3    H155595   5.396   3.991  15.771 -0.6899 -0.1541  0.3455
11368TIP3    H255596   5.393   4.053  15.909 -0.6821  0.0811  0.2408
11369TIP3   OH255597   4.505   3.262  11.580  0.0452 -0.8045  0.3579
11369TIP3    H155598   4.450   3.290  11.653  0.5295  0.1641  0.3626
11369TIP3    H255599   4.573   3.209  11.620  0.4214 -0.1186  0.6476
11370TIP3   OH255600   0.055   5.388  12.603 -0.0283  0.6167  0.5840
11370TIP3    H155601  -0.002   5.428  12.669  0.1539  0.1452  1.0335
11370TIP3    H255602   0.099   5.462  12.561 -0.8059  0.9788  0.3738
11371TIP3   OH255603   5.913   5.082   3.987  0.2936  0.0615  0.1211
11371TIP3    H155604   5.825   5.113   4.009  0.1877 -0.4738  0.4872
11371TIP3    H255605   5.960   5.160   3.956 -0.5825  0.1747 -0.9652
11372TIP3   OH255606   5.103   4.105   0.262  0.5211 -0.4450  0.6662
11372TIP3    H155607   5.171   4.055   0.218  0.0762 -0.1000 -0.4383
11372TIP3    H255608   5.151   4.172   0.311  1.1277 -1.9464  2.2212
11373TIP3   OH255609   3.498   6.029  13.052 -0.4711 -0.0265  0.0345
11373TIP3    H155610   3.438   6.096  13.019 -1.3533  1.5140  4.1027
11373TIP3    H255611   3.582   6.074  13.062  1.5041 -1.9498 -4.8084
11374TIP3   OH255612   2.583   1.135  15.381  0.4141  0.0035  0.5125
11374TIP3    H155613   2.670   1.132  15.341  0.6429  1.7770  0.7942
11374TIP3    H255614   2.587   1.070  15.451  1.8233  0.6503  1.0732
11375TIP3   OH255615   1.203   6.849   2.620  0.4039 -0.0199  0.2201
11375TIP3    H155616   1.199   6.915   2.551 -0.2731 -1.5228 -1.2516
11375TIP3    H255617   1.263   6.886   2.685 -0.1041  2.0972 -0.4421
11376TIP3   OH255618   1.295   3.482   4.560  0.3163 -0.2631 -0.0225
11376TIP3    H155619   1.243   3.541   4.506 -2.7160 -2.8649 -0.2335
11376TIP3    H255620   1.344   3.429   4.497  0.4504 -0.1637 -0.0010
11377TIP3   OH255621   6.354   2.189  13.280  0.8197  0.0808 -0.2509
11377TIP3    H155622   6.405   2.214  13.357  0.1796 -1.2540  0.6489
11377TIP3    H255623   6.300   2.266  13.261  1.8920  0.8764 -0.1541
11378TIP3   OH255624   3.237   1.136   4.730  0.1266 -0.0368  0.4743
11378TIP3    H155625   3.285   1.054   4.726  0.9079  0.4055  0.5461
11378TIP3    H255626   3.303   1.201   4.755  0.0169  0.9965 -1.7406
11379TIP3   OH255627   4.522   1.371  16.068  0.3342  0.5501 -0.0187
11379TIP3    H155628   4.548   1.356  16.159  0.8473 -0.1504 -0.2753
11379TIP3    H255629   4.534   1.465  16.055  1.8135  0.4043  0.1733
11380TIP3   OH255630   1.641   3.900  14.638 -0.3476  0.1044 -0.1421
11380TIP3    H155631   1.696   3.978  14.633  0.1075 -0.1572  0.6168
11380TIP3    H255632   1.603   3.891  14.550  0.8709  0.2631 -0.7031
11381TIP3   OH255633   3.989   1.243  11.150  0.7305 -0.0050 -0.8145
11381TIP3    H155634   3.973   1.329  11.110  0.2752  0.5067  0.4305
11381TIP3    H255635   3.910   1.193  11.129  1.5697 -0.6167 -2.7269
11382TIP3   OH255636   0.145   6.752  10.302  0.0256 -0.3408 -0.0783
11382TIP3    H155637   0.066   6.730  10.252  0.9081 -0.7756 -1.3351
11382TIP3    H255638   0.216   6.712  10.252  0.9767 -0.5825  1.4310
11383TIP3   OH255639   1.229   4.770   4.102 -0.3736  0.3381 -0.0786
11383TIP3    H155640   1.158   4.827   4.071 -0.2416 -0.6446 -2.3204
11383TIP3    H255641   1.309   4.818   4.079 -0.2714  0.2690  0.1287
11384TIP3   OH255642   2.256   0.769   2.271  0.5344 -0.2700 -0.5225
11384TIP3    H155643   2.310   0.847   2.261 -1.8765  1.7243  0.6789
11384TIP3    H255644   2.217   0.756   2.185  0.7720  0.0163 -0.6741
11385TIP3   OH255645   4.786   2.960  16.323 -0.0647 -0.6019  0.2955
11385TIP3    H155646   4.695   2.950  16.351 -0.3604 -0.0128 -0.4197
11385TIP3    H255647   4.818   3.035  16.374 -0.4341  0.1193 -0.5124
11386TIP3   OH255648   1.087   1.515   5.453 -0.1360 -0.4412  0.4290
11386TIP3    H155649   1.068   1.469   5.535  0.5540  0.3016  1.0178
11386TIP3    H255650   1.121   1.600   5.480  0.4010 -0.3004 -0.6239
11387TIP3   OH255651   3.418   1.394  15.804  0.2873  0.2692 -0.3560
11387TIP3    H155652   3.392   1.477  15.763 -0.3575 -0.2290 -0.9889
11387TIP3    H255653   3.423   1.414  15.897 -2.2409  0.4678 -0.1926
11388TIP3   OH255654   4.720   2.277   0.930 -0.1618  0.3894  0.7885
11388TIP3    H155655   4.782   2.232   0.873  0.2593  0.1497  1.4270
11388TIP3    H255656   4.766   2.356   0.958 -1.6479  2.3805 -2.0018
11389TIP3   OH255657   4.779   2.344   4.263 -0.6279  0.0884  0.0111
11389TIP3    H155658   4.774   2.440   4.264 -0.4769  0.0941  0.5769
11389TIP3    H255659   4.862   2.324   4.307  0.7850 -0.2273 -2.5705
11390TIP3   OH255660   2.589   6.451   6.727 -0.8929  0.1633  0.0023
11390TIP3    H155661   2.533   6.425   6.654 -0.7416 -0.5556  0.1360
11390TIP3    H255662   2.648   6.377   6.739 -0.0738  0.8117  0.0243
11391TIP3   OH255663   5.879   4.056   5.787 -0.8196 -0.2303  0.1525
11391TIP3    H155664   5.865   4.118   5.716  1.9012  0.5301  0.1765
11391TIP3    H255665   5.905   4.111   5.861  0.9867 -1.3024  0.3649
11392TIP3   OH255666   1.391   5.163   4.298 -0.2637  0.8780  0.5541
11392TIP3    H155667   1.410   5.224   4.227 -0.4574 -0.2597 -0.5276
11392TIP3    H255668   1.464   5.101   4.296 -0.0804  1.0402  1.6121
11393TIP3   OH255669   1.528   0.515  15.437  1.0989  0.2473  0.3582
11393TIP3    H155670   1.617   0.483  15.450  0.6764 -0.8095  0.7492
11393TIP3    H255671   1.505   0.487  15.348  0.2205 -1.8959  1.1880
11394TIP3   OH255672   6.868   0.408   5.515  0.2944  0.3498 -0.4917
11394TIP3    H155673   6.823   0.483   5.475  0.5383  0.1024 -1.2535
11394TIP3    H255674   6.937   0.386   5.452  2.2806  1.4771  1.1832
11395TIP3   OH255675   0.197   5.863   4.527  0.6203  0.6372  0.4636
11395TIP3    H155676   0.133   5.927   4.496  0.9274  0.6854 -0.0841
11395TIP3    H255677   0.174   5.848   4.619 -0.1873  0.6322  0.2632
11396TIP3   OH255678   0.619   0.985   3.779 -0.0580 -0.0508 -0.2676
11396TIP3    H155679   0.607   1.030   3.863  0.3720  0.8441 -0.6771
11396TIP3    H255680   0.596   1.051   3.713 -1.0929 -0.9601 -0.8527
11397TIP3   OH255681   3.428   0.966  14.827 -0.1997  0.2179  0.1506
11397TIP3    H155682   3.485   1.042  14.812 -0.4167  0.6748  1.4379
11397TIP3    H255683   3.391   0.982  14.914 -1.6315 -0.5033 -0.3048
11398TIP3   OH255684   0.544   4.063   0.869  0.2107 -0.2347 -0.0410
11398TIP3    H155685   0.499   4.131   0.818  1.3950 -0.5957 -1.6471
11398TIP3    H255686   0.584   4.110   0.942  1.3204  0.9180 -1.3204
11399TIP3   OH255687   1.859   4.023   3.082  0.4359  0.2490  0.6915
11399TIP3    H155688   1.843   4.109   3.043  1.9400 -0.1551 -1.0041
11399TIP3    H255689   1.776   3.976   3.072  0.1576  0.8877 -0.1323
11400TIP3   OH255690   3.962   3.460   0.501  0.2720 -0.2471 -0.6370
11400TIP3    H155691   4.014   3.507   0.565 -1.6020  0.1164  0.7001
11400TIP3    H255692   3.894   3.416   0.552 -1.8172  0.7392 -2.3667
11401TIP3   OH255693   3.304   1.085   5.416  0.3887 -0.1148 -0.2598
11401TIP3    H155694   3.287   1.090   5.322 -2.0517  1.1256  0.1634
11401TIP3    H255695   3.310   1.176   5.445  4.1687 -0.4448  0.4000
11402TIP3   OH255696   3.454   4.561   1.079  0.1280  0.7462  0.5373
11402TIP3    H155697   3.516   4.628   1.048 -0.5300 -0.1543 -3.2099
11402TIP3    H255698   3.509   4.484   1.094  0.2381  0.6902 -0.1552
11403TIP3   OH255699   1.354   1.950   2.213 -0.1315 -0.5545 -0.3819
11403TIP3    H155700   1.284   1.887   2.230 -0.3663 -0.1723  0.1372
11403TIP3    H255701   1.328   1.993   2.132  0.7335 -2.0580 -1.4979
11404TIP3   OH255702   2.903   4.058   2.325 -0.4892  0.2631 -0.2971
11404TIP3    H155703   2.860   4.137   2.292  0.7330  0.8234 -0.6136
11404TIP3    H255704   2.958   4.029   2.253 -1.3103 -1.2063 -0.3699
11405TIP3   OH255705   0.815   2.235   3.744 -0.3061 -0.2758  0.6617
11405TIP3    H155706   0.857   2.249   3.829  1.5603 -0.1417 -0.2521
11405TIP3    H255707   0.861   2.292   3.684  1.1788 -3.2413 -1.2548
11406TIP3   OH255708   5.323   6.066   0.682 -0.0478 -0.1124 -0.2337
11406TIP3    H155709   5.348   6.104   0.598 -0.4612 -0.6371 -0.6020
11406TIP3    H255710   5.231   6.090   0.693 -0.1254 -0.4351 -0.1559
11407TIP3   OH255711   1.978   3.744   1.893  0.1010  0.0851 -0.3793
11407TIP3    H155712   1.939   3.773   1.811  1.0110  0.1560 -0.8069
11407TIP3    H255713   1.919   3.677   1.926 -0.9204  0.9297 -0.4614
11408TIP3   OH255714   6.766   2.347  13.618 -0.4039 -0.5002 -0.1333
11408TIP3    H155715   6.704   2.412  13.649 -0.9960 -1.5429  0.9748
11408TIP3    H255716   6.841   2.397  13.586 -0.1258  0.7042  2.2043
11409TIP3   OH255717   5.721   5.238  12.868  0.0339 -0.2573  0.2104
11409TIP3    H155718   5.645   5.186  12.844  0.7541 -0.7964 -1.0430
11409TIP3    H255719   5.785   5.220  12.799  2.3683 -2.0742  2.6517
11410TIP3   OH255720   6.238   3.268   4.452  0.6631 -0.2543  0.2594
11410TIP3    H155721   6.288   3.208   4.397  2.0014 -0.0673  1.2179
11410TIP3    H255722   6.247   3.233   4.540 -1.2283 -0.4039  0.4301
11411TIP3   OH255723   1.715   1.028  11.401  0.0744  0.2128  0.7136
11411TIP3    H155724   1.708   1.123  11.395 -2.0312  0.1101  0.8319
11411TIP3    H255725   1.774   1.003  11.330  1.1828  1.6436  1.1023
11412TIP3   OH255726   4.646   6.117  16.930 -0.8966  0.4114  0.0579
11412TIP3    H155727   4.687   6.030  16.934 -1.5705  0.0289 -0.8719
11412TIP3    H255728   4.552   6.099  16.940 -1.2723  0.7775 -2.2794
11413TIP3   OH255729   3.545   0.079   4.657  0.8242  0.3318 -0.3282
11413TIP3    H155730   3.555   0.093   4.562 -1.9282 -0.2225 -0.7921
11413TIP3    H255731   3.498   0.157   4.687 -2.5916 -1.4827 -0.4327
11414TIP3   OH255732   2.989   5.873   4.834 -0.6118  0.0885  0.0150
11414TIP3    H155733   3.031   5.950   4.873 -1.2607 -0.2178  1.4029
11414TIP3    H255734   2.977   5.813   4.908  0.7757 -1.7973 -1.1983
11415TIP3   OH255735   4.221   2.385   0.767  0.1484 -0.5093  0.1819
11415TIP3    H155736   4.188   2.472   0.789  2.1234  0.6536 -1.1398
11415TIP3    H255737   4.194   2.371   0.676  1.4993 -0.3883 -0.2612
11416TIP3   OH255738   1.220   3.256   5.072 -0.2326  0.3101  0.7379
11416TIP3    H155739   1.264   3.317   5.131  0.5326 -0.5932  1.1217
11416TIP3    H255740   1.127   3.273   5.085 -0.0703  2.8499 -0.7168
11417TIP3   OH255741   5.287   2.043  16.460  0.6250  0.3587 -0.3166
11417TIP3    H155742   5.328   2.109  16.405  1.2935  2.0236  2.0114
11417TIP3    H255743   5.361   2.002  16.507 -0.0180  0.3406  0.7210
11418TIP3   OH255744   5.316   5.247   3.276  0.6211  0.4036  0.5292
11418TIP3    H155745   5.223   5.268   3.284  0.8061  0.8993  1.5330
11418TIP3    H255746   5.345   5.233   3.366  0.8228 -2.8897  0.0605
11419TIP3   OH255747   2.612   1.185  14.426 -0.2212 -0.0644  0.0221
11419TIP3    H155748   2.519   1.168  14.419  0.0473 -1.6840  0.0775
11419TIP3    H255749   2.651   1.100  14.446  0.9820  1.0003  2.7958
11420TIP3   OH255750   1.842   4.303   5.735  1.2437  0.9291 -0.1883
11420TIP3    H155751   1.911   4.237   5.731  0.3143 -0.2032  1.6561
11420TIP3    H255752   1.780   4.277   5.666  1.9713  1.2016 -0.9673
11421TIP3   OH255753   5.558   4.220  13.071  0.2667 -0.1225  0.2476
11421TIP3    H155754   5.617   4.148  13.093  0.3389 -1.0534 -2.5809
11421TIP3    H255755   5.473   4.178  13.055 -0.8524  1.0083  2.6447
11422TIP3   OH255756   2.204   6.710   4.355 -0.6958  0.1116 -0.5378
11422TIP3    H155757   2.290   6.705   4.397 -0.6107 -1.4349 -0.8074
11422TIP3    H255758   2.173   6.799   4.372  0.5765  0.4148  0.3161
11423TIP3   OH255759   4.858   0.164   4.503  0.5648 -0.2126 -0.0486
11423TIP3    H155760   4.940   0.172   4.454 -0.1204 -0.7364 -1.3465
11423TIP3    H255761   4.803   0.108   4.448  0.1817 -1.8922  1.9314
11424TIP3   OH255762   2.735   2.813   5.948 -0.0457  0.1441  0.1026
11424TIP3    H155763   2.654   2.799   5.899 -0.0532 -1.5414  0.5382
11424TIP3    H255764   2.706   2.838   6.036 -0.0323  3.0645 -0.6248
11425TIP3   OH255765   6.495   0.498  12.754 -0.6644 -0.0710 -0.4756
11425TIP3    H155766   6.428   0.531  12.695 -0.8021  1.1766  0.3445
11425TIP3    H255767   6.461   0.413  12.783 -2.1718  0.7623  0.3311
11426TIP3   OH255768   5.579   2.200  10.952 -0.0331  0.3874  0.5452
11426TIP3    H155769   5.540   2.122  10.992 -0.0120  0.6286  1.0456
11426TIP3    H255770   5.624   2.167  10.874 -2.6813  0.3083 -1.0896
11427TIP3   OH255771   3.436   3.634  16.359  0.1097 -0.4157  0.4303
11427TIP3    H155772   3.450   3.557  16.305 -2.6093 -1.6144  1.2627
11427TIP3    H255773   3.486   3.617  16.439  1.1202 -0.3729 -0.1836
11428TIP3   OH255774   6.413   0.814  13.413 -0.5505 -0.1135  0.4650
11428TIP3    H155775   6.389   0.729  13.451  3.5133 -1.9324 -0.5480
11428TIP3    H255776   6.377   0.811  13.324 -3.2470  0.7765  1.4290
11429TIP3   OH255777   2.175   5.382   4.854  0.1227  0.1866 -0.4339
11429TIP3    H155778   2.258   5.358   4.812  1.6350  2.6739  0.8608
11429TIP3    H255779   2.163   5.318   4.924 -0.5330 -1.8047 -2.2810
11430TIP3   OH255780   0.451   1.217   2.866 -0.0469  0.0936  0.2778
11430TIP3    H155781   0.546   1.224   2.857  0.0395 -0.8257  0.3011
11430TIP3    H255782   0.423   1.301   2.901  1.0059 -0.2750  2.1711
11431TIP3   OH255783   6.489   3.646  13.118  0.3060  0.5794  0.2853
11431TIP3    H155784   6.524   3.734  13.101 -0.5450  1.0217  0.7283
11431TIP3    H255785   6.476   3.644  13.212  0.7115 -0.1862  0.3274
11432TIP3   OH255786   6.237   1.028  12.872 -0.3792  0.0156  1.1595
11432TIP3    H155787   6.143   1.009  12.877 -0.2863 -0.8569  0.0722
11432TIP3    H255788   6.251   1.098  12.935 -1.5221 -0.7583  2.3277
11433TIP3   OH255789   0.920   0.388  16.341  0.3917 -0.4115  0.0807
11433TIP3    H155790   0.911   0.467  16.395 -0.9712  0.6485 -1.5998
11433TIP3    H255791   0.877   0.319  16.392 -1.4870  0.7137  0.0964
11434TIP3   OH255792   4.396   3.088   0.136  0.0994  0.2141  0.6114
11434TIP3    H155793   4.478   3.082   0.185  0.2616 -0.3143  0.2876
11434TIP3    H255794   4.423   3.110   0.047  0.1384 -2.4429 -0.1272
11435TIP3   OH255795   0.854   6.106  11.944  0.6172 -0.2654 -0.4078
11435TIP3    H155796   0.778   6.142  11.989  1.3690  1.6712 -0.5988
11435TIP3    H255797   0.827   6.102  11.852  0.5231 -0.2009 -0.3836
11436TIP3   OH255798   6.446   5.433  14.486  0.0262  0.8209  0.2503
11436TIP3    H155799   6.476   5.471  14.569  1.7865  1.3461 -0.5799
11436TIP3    H255800   6.496   5.479  14.419  1.5760 -2.2364 -0.8666
11437TIP3   OH255801   0.859   3.789   3.112  0.8576 -0.7303  0.3081
11437TIP3    H155802   0.870   3.712   3.056  1.2506 -0.3747 -0.1192
11437TIP3    H255803   0.776   3.774   3.158  0.4525 -0.9715 -0.4749
11438TIP3   OH255804   1.356   6.191  12.169  0.2404 -0.3038 -0.2874
11438TIP3    H155805   1.329   6.223  12.255  1.3492  2.0147 -0.7006
11438TIP3    H255806   1.274   6.179  12.121 -0.3049  0.6603  0.3661
11439TIP3   OH255807   3.308   6.169  12.930 -0.5988  0.5840  0.3042
11439TIP3    H155808   3.243   6.238  12.918  1.8895  3.1386  0.3752
11439TIP3    H255809   3.346   6.157  12.843 -1.0559 -0.8342  0.2735
11440TIP3   OH255810   1.510   2.243  11.308  0.1005  0.8532  1.1204
11440TIP3    H155811   1.420   2.229  11.280  0.0824  1.6060  0.7634
11440TIP3    H255812   1.515   2.201  11.394  0.9019 -3.8945 -0.9603
11441TIP3   OH255813   4.997   1.873  12.502 -0.1202 -0.1069 -0.2861
11441TIP3    H155814   4.915   1.831  12.475  0.3436 -0.0611 -1.9232
11441TIP3    H255815   5.004   1.855  12.595 -1.8581 -0.3358 -0.1667
11442TIP3   OH255816   5.143   6.568   0.414  0.9457 -0.1614 -0.0520
11442TIP3    H155817   5.221   6.562   0.470  0.3034  1.6010  1.1234
11442TIP3    H255818   5.091   6.491   0.437  1.4111 -0.2741  0.6511
11443TIP3   OH255819   3.985   5.254   2.038 -0.0230  0.3551 -0.1083
11443TIP3    H155820   3.972   5.347   2.057  0.4665  0.2436  0.8271
11443TIP3    H255821   3.967   5.246   1.944  0.1338  1.4280 -0.2466
11444TIP3   OH255822   0.477   0.343   0.284 -0.2637  0.1094  0.2482
11444TIP3    H155823   0.448   0.255   0.310  2.5125 -1.0864 -0.3007
11444TIP3    H255824   0.572   0.341   0.296 -0.1382  3.1814  0.4765
11445TIP3   OH255825   1.508   0.921   5.280  0.4181 -0.8328  0.6123
11445TIP3    H155826   1.465   0.953   5.360  1.9024  2.6095  0.2025
11445TIP3    H255827   1.506   0.996   5.220  1.5399 -2.5302 -1.6972
11446TIP3   OH255828   4.569   1.327  16.609  0.0671 -0.0230 -0.5256
11446TIP3    H155829   4.595   1.240  16.639 -1.8888 -0.7911 -0.9019
11446TIP3    H255830   4.592   1.329  16.516 -1.7809 -0.9969 -1.0551
11447TIP3   OH255831   5.744   6.127   3.566  0.0895 -0.7839  0.2748
11447TIP3    H155832   5.673   6.135   3.629  0.8050 -0.8724  1.1205
11447TIP3    H255833   5.812   6.078   3.612  0.6677 -0.7832 -0.5405
11448TIP3   OH255834   6.120   4.038  14.173  0.1059 -0.2776  0.0398
11448TIP3    H155835   6.143   3.945  14.179 -1.8817 -0.7352  2.0890
11448TIP3    H255836   6.035   4.039  14.128  0.7333  0.7100 -1.1857
11449TIP3   OH255837   5.354   1.610  12.484  0.6963 -0.2821 -0.1228
11449TIP3    H155838   5.447   1.588  12.484  0.7484 -0.0750  0.5886
11449TIP3    H255839   5.316   1.553  12.418  1.1520 -1.1255  0.3306
11450TIP3   OH255840   3.416   4.105   1.359 -0.2466  0.1355 -0.1983
11450TIP3    H155841   3.376   4.050   1.292 -0.7485  0.4470 -0.1611
11450TIP3    H255842   3.351   4.107   1.429 -0.3928  1.0631 -0.3492
11451TIP3   OH255843   2.650   3.231  14.110 -0.3805  0.3125  0.7816
11451TIP3    H155844   2.566   3.273  14.126  0.0442  1.5236 -0.0396
11451TIP3    H255845   2.675   3.259  14.022  1.6083  1.2974  1.5954
11452TIP3   OH255846   2.361   6.009  11.351  0.2311 -0.6170 -0.2256
11452TIP3    H155847   2.457   6.002  11.348  0.3543  0.8815 -0.5459
11452TIP3    H255848   2.338   5.973  11.437  1.0474 -1.2697 -0.2621
11453TIP3   OH255849   4.346   2.148   4.096 -0.2430  0.6324  0.1188
11453TIP3    H155850   4.260   2.167   4.057 -0.1049  0.4183 -0.2948
11453TIP3    H255851   4.376   2.069   4.051 -0.0029  0.4785  0.5432
11454TIP3   OH255852   4.264   5.630  14.745 -0.4017 -0.3540 -0.3680
11454TIP3    H155853   4.289   5.613  14.836 -0.7997  1.7982  0.2014
11454TIP3    H255854   4.168   5.622  14.745 -0.8577  3.3248  0.4033
11455TIP3   OH255855   4.090   1.922   2.763 -0.7064  0.1202  0.5585
11455TIP3    H155856   4.178   1.959   2.754 -0.8749  0.2569 -0.5989
11455TIP3    H255857   4.101   1.851   2.826  0.6787 -1.2025 -1.0651
11456TIP3   OH255858   1.638   1.322  11.374  0.2411 -0.0165  0.3292
11456TIP3    H155859   1.710   1.383  11.359 -0.6916  1.3392  1.0983
11456TIP3    H255860   1.569   1.350  11.313  0.4415 -1.4879 -0.6206
11457TIP3   OH255861   2.254   4.030   1.206 -0.0699 -0.1470 -0.1772
11457TIP3    H155862   2.341   4.037   1.245 -0.1572 -1.6218  0.3047
11457TIP3    H255863   2.264   4.072   1.120  0.3429  2.3274  0.9756
11458TIP3   OH255864   2.600   4.020  13.140  0.2728 -0.3141 -0.3131
11458TIP3    H155865   2.615   4.023  13.045  0.3212 -0.9982 -0.3308
11458TIP3    H255866   2.670   4.073  13.177 -0.1053  0.4825 -0.6915
11459TIP3   OH255867   0.225   6.714   0.711  0.3046  0.1804  0.1034
11459TIP3    H155868   0.177   6.725   0.628 -0.1662  0.9502  0.4613
11459TIP3    H255869   0.190   6.634   0.749 -0.2569  0.4029  0.0635
11460TIP3   OH255870   3.009   0.148  11.783  0.1778  0.3934  0.3902
11460TIP3    H155871   2.999   0.058  11.753  2.0667  0.0712  0.5823
11460TIP3    H255872   3.000   0.201  11.705  2.6248 -0.2643 -0.4445
11461TIP3   OH255873   1.772   2.176  12.188 -0.2152 -0.5497 -0.2640
11461TIP3    H155874   1.792   2.099  12.241  0.4906 -0.3227 -0.1996
11461TIP3    H255875   1.775   2.145  12.098  1.2950 -0.3432 -0.3111
11462TIP3   OH255876   3.458   2.485  12.095  0.1922  0.0227  0.4466
11462TIP3    H155877   3.539   2.468  12.143  0.3287  0.2766  0.3132
11462TIP3    H255878   3.405   2.537  12.155 -0.2528 -0.9139  0.8786
11463TIP3   OH255879   0.616   4.758  11.898 -0.5674 -0.5305  0.4577
11463TIP3    H155880   0.710   4.743  11.898 -0.3466 -0.1977  4.4206
11463TIP3    H255881   0.607   4.852  11.882 -0.0017 -0.1646  2.0940
11464TIP3   OH255882   5.405   5.606   5.469 -0.2993 -0.2440  0.2926
11464TIP3    H155883   5.407   5.515   5.500  0.6093  0.3787  2.2309
11464TIP3    H255884   5.349   5.651   5.532 -0.8115  0.5519 -0.7023
11465TIP3   OH255885   6.768   5.353   0.512  0.2103  0.3757 -0.4377
11465TIP3    H155886   6.717   5.392   0.441 -0.6092  0.3156  0.1050
11465TIP3    H255887   6.705   5.341   0.584  1.2537  1.4854  0.7118
11466TIP3   OH255888   0.059   5.323   1.396  0.0038  0.3867 -0.0941
11466TIP3    H155889  -0.030   5.290   1.381  0.1137  0.7654 -1.8136
11466TIP3    H255890   0.109   5.246   1.422 -0.7362  0.0991  0.5144
11467TIP3   OH255891   5.951   5.587   3.738 -0.0250 -0.7150  0.0946
11467TIP3    H155892   5.903   5.578   3.821  1.2799 -2.5627  0.7129
11467TIP3    H255893   6.040   5.612   3.764 -0.3337  1.7657 -0.9806
11468TIP3   OH255894   4.221   4.387  14.096  0.4642 -0.3618 -0.4169
11468TIP3    H155895   4.269   4.318  14.050  0.3086  0.6414 -2.1838
11468TIP3    H255896   4.151   4.412  14.035 -0.8535 -0.1727  1.1263
11469TIP3   OH255897   1.394   5.677  11.291  0.0188 -0.5291 -0.1634
11469TIP3    H155898   1.365   5.654  11.203 -2.7489 -3.6831  1.3756
11469TIP3    H255899   1.320   5.725  11.329  0.3670 -0.9009  1.0336
11470TIP3   OH255900   5.997   5.481  11.719  0.1287 -0.2697  0.1411
11470TIP3    H155901   6.001   5.545  11.790  1.1392  0.1029 -0.2376
11470TIP3    H255902   5.995   5.396  11.762 -2.4934 -0.0155  0.7097
11471TIP3   OH255903   3.627   3.700   2.725  0.2812 -0.4099 -0.0355
11471TIP3    H155904   3.713   3.661   2.713  1.1073  0.8777  1.3402
11471TIP3    H255905   3.589   3.654   2.800  0.3910  0.0109  0.2816
11472TIP3   OH255906   0.904   3.420  10.190 -0.5088  0.1519 -0.3235
11472TIP3    H155907   0.979   3.462  10.148 -1.8941  0.7299 -2.3674
11472TIP3    H255908   0.844   3.492  10.210 -1.1134 -0.4416  0.0590
11473TIP3   OH255909   5.073   3.983   5.980  0.2272 -0.5671 -0.5281
11473TIP3    H155910   5.056   3.945   6.066 -0.3033  0.0517 -0.3524
11473TIP3    H255911   5.000   3.955   5.926  0.2261 -0.4260 -0.6015
11474TIP3   OH255912   3.713   4.054  14.489  0.4830  0.1706 -0.1349
11474TIP3    H155913   3.767   4.128  14.516  0.2668  0.9683 -1.7630
11474TIP3    H255914   3.707   4.062  14.394 -1.7741 -0.3717 -0.0975
11475TIP3   OH255915   6.395   1.206   2.808 -0.2616 -0.1472  0.2376
11475TIP3    H155916   6.372   1.299   2.800 -4.0241 -0.9351  0.0548
11475TIP3    H255917   6.346   1.176   2.885  0.8120 -2.0540  0.2406
11476TIP3   OH255918   0.417   5.509  14.036  0.3378 -0.3424 -0.2666
11476TIP3    H155919   0.458   5.510  13.949 -0.4822  0.7962 -0.6737
11476TIP3    H255920   0.484   5.473  14.094  0.3621 -2.6311 -1.6019
11477TIP3   OH255921   4.698   6.625  14.108 -0.7103 -0.5123 -0.1754
11477TIP3    H155922   4.715   6.649  14.199 -1.4798 -0.7007  0.0286
11477TIP3    H255923   4.612   6.665  14.089 -0.5376 -0.4430 -0.8275
11478TIP3   OH255924   3.817   3.796  10.552  0.1066  0.4562  0.5869
11478TIP3    H155925   3.857   3.857  10.490  0.7953 -0.0600  0.5074
11478TIP3    H255926   3.725   3.791  10.526  0.8769 -1.9916 -2.3391
11479TIP3   OH255927   6.544   6.325  10.424 -0.0598 -0.1443 -0.2969
11479TIP3    H155928   6.576   6.236  10.414  0.4905  0.2650 -3.1469
11479TIP3    H255929   6.449   6.316  10.431 -0.0580 -0.9602 -1.0977
11480TIP3   OH255930   3.210   5.241   4.505 -0.0683 -0.2678  0.0524
11480TIP3    H155931   3.147   5.279   4.444 -0.4077  0.1981  0.6805
11480TIP3    H255932   3.247   5.316   4.552  0.2281 -0.6163  0.3859
11481TIP3   OH255933   3.034   0.575  15.617 -0.5056  0.5742  0.1735
11481TIP3    H155934   3.095   0.631  15.569  1.5943  0.5877  2.6190
11481TIP3    H255935   2.995   0.633  15.682 -0.9943 -0.0534  0.4525
11482TIP3   OH255936   0.464   2.772  14.389 -0.0791 -0.0682 -0.6472
11482TIP3    H155937   0.416   2.727  14.458  1.4752 -0.7773  0.0156
11482TIP3    H255938   0.482   2.859  14.426  2.1529 -0.9587  0.6136
11483TIP3   OH255939   6.329   0.203   5.656  0.2274  0.3377  0.2248
11483TIP3    H155940   6.265   0.172   5.592  0.6736  1.1074 -0.6062
11483TIP3    H255941   6.287   0.277   5.699  0.5036  0.7513 -0.2179
11484TIP3   OH255942   6.079   5.899  11.252 -0.4517  0.8104  0.2831
11484TIP3    H155943   6.015   5.854  11.198  1.7940 -0.6085 -1.3992
11484TIP3    H255944   6.125   5.829  11.298  0.0262  1.7595  1.3073
11485TIP3   OH255945   0.394   4.378  12.771  0.4698 -0.4088 -0.2560
11485TIP3    H155946   0.483   4.412  12.759  0.8703 -0.7460  1.5685
11485TIP3    H255947   0.341   4.428  12.708  0.8384  4.4229  2.7759
11486TIP3   OH255948   0.962   2.835   5.565 -0.0633  0.0489  0.0965
11486TIP3    H155949   0.875   2.852   5.601  1.0358  0.6288  2.7177
11486TIP3    H255950   0.991   2.754   5.607  0.4889 -0.4719 -1.2010
11487TIP3   OH255951   5.658   1.858  15.463 -0.1633 -0.4276 -0.3137
11487TIP3    H155952   5.588   1.901  15.512 -0.3337 -1.5395  0.4435
11487TIP3    H255953   5.615   1.787  15.415  0.3929 -0.9248 -0.0858
11488TIP3   OH255954   2.813   2.386  16.103 -0.4972 -0.1807 -0.3110
11488TIP3    H155955   2.797   2.469  16.057 -1.7362  0.1138  0.6103
11488TIP3    H255956   2.767   2.320  16.050  0.0643 -0.2206 -0.7651
11489TIP3   OH255957   1.866   4.711  12.994 -0.0024  0.0964 -0.5952
11489TIP3    H155958   1.818   4.734  13.073  1.2101 -3.0452  1.2252
11489TIP3    H255959   1.858   4.788  12.938 -4.2435  0.9973  0.8994
11490TIP3   OH255960   5.482   0.125   3.720 -0.2540 -0.1950 -0.4170
11490TIP3    H155961   5.419   0.175   3.669 -1.2727 -1.6935 -0.6983
11490TIP3    H255962   5.429   0.080   3.786  0.6633 -0.6460  0.0244
11491TIP3   OH255963   4.615   3.570  11.598 -0.2161 -0.3067 -0.4016
11491TIP3    H155964   4.677   3.614  11.540  0.7598 -0.8416  0.2072
11491TIP3    H255965   4.534   3.564  11.547 -0.5072  2.4271 -0.4159
11492TIP3   OH255966   1.394   6.103  14.832  0.7177 -0.0372 -0.8577
11492TIP3    H155967   1.372   6.195  14.845  0.0027 -0.4339  1.0351
11492TIP3    H255968   1.441   6.101  14.749  0.9338  2.0596 -0.8343
11493TIP3   OH255969   5.741   0.171   3.613  0.3141  0.0832 -0.8059
11493TIP3    H155970   5.693   0.230   3.555  1.3865  0.9985 -0.7927
11493TIP3    H255971   5.678   0.148   3.681  0.0908  1.8977 -0.3381
11494TIP3   OH255972   4.068   6.695  12.441 -0.2713  0.0822  0.3188
11494TIP3    H155973   4.057   6.786  12.411 -0.2137 -0.3597 -1.1103
11494TIP3    H255974   3.992   6.649  12.407 -0.2304 -0.4451  0.9221
11495TIP3   OH255975   3.850   4.619  15.634 -0.0678 -0.3840 -0.6891
11495TIP3    H155976   3.811   4.532  15.626 -0.2008 -0.3462 -0.4559
11495TIP3    H255977   3.842   4.657  15.546  0.6654 -0.8890 -0.9837
11496TIP3   OH255978   4.251   4.760   2.881  0.8140  0.3752  0.0565
11496TIP3    H155979   4.196   4.739   2.956  1.9762  1.5218  1.2874
11496TIP3    H255980   4.289   4.676   2.855 -0.0646 -0.1267  0.3556
11497TIP3   OH255981   2.109   3.711   0.184  0.2765 -0.0994  1.0064
11497TIP3    H155982   2.113   3.674   0.272 -0.8135  2.0083  2.0341
11497TIP3    H255983   2.026   3.759   0.182  1.4028  1.9675 -0.2918
11498TIP3   OH255984   6.500   2.975   3.949 -0.1262  0.1367  0.0618
11498TIP3    H155985   6.472   2.901   3.896  0.1099  0.6003 -0.7276
11498TIP3    H255986   6.451   2.966   4.030  0.3331 -1.2109  0.2238
11499TIP3   OH255987   1.095   5.184   4.874 -0.0055  0.6553 -0.3214
11499TIP3    H155988   1.143   5.214   4.952 -0.0404 -2.3481  0.9740
11499TIP3    H255989   1.124   5.094   4.861  0.1056  1.0823 -3.9701
11500TIP3   OH255990   3.624   3.218  12.721  0.1414 -0.1938 -0.7080
11500TIP3    H155991   3.685   3.191  12.653 -0.9485 -1.5194 -1.2154
11500TIP3    H255992   3.661   3.299  12.756  1.3881 -0.1632 -1.9982
11501TIP3   OH255993   5.962   6.157   0.595  0.3312 -0.5409  0.3388
11501TIP3    H155994   6.036   6.134   0.651  0.2531 -0.1992  0.5923
11501TIP3    H255995   5.985   6.242   0.559  0.1078 -0.4768  0.3448
11502TIP3   OH255996   2.749   3.952  15.076 -0.1549  0.7094  0.5004
11502TIP3    H155997   2.742   3.870  15.124  1.0794  1.0937  1.3814
11502TIP3    H255998   2.723   4.019  15.139 -1.6428  0.9945 -0.3595
11503TIP3   OH255999   6.748   5.933  12.191  0.3029 -0.6395  0.0538
11503TIP3    H156000   6.698   5.862  12.230  0.1901 -0.1696  0.7825
11503TIP3    H256001   6.765   5.993  12.263 -0.3863  0.5300 -0.7261
11504TIP3   OH256002   6.346   3.214   5.946 -0.2073 -0.4948 -0.1850
11504TIP3    H156003   6.355   3.204   6.041  1.3775  1.9419  0.0282
11504TIP3    H256004   6.314   3.304   5.936 -0.1321 -0.6487 -1.9589
11505TIP3   OH256005   4.728   0.412  12.624 -0.0613 -0.3384  0.0281
11505TIP3    H156006   4.648   0.371  12.592  0.3330 -0.8642 -0.2935
11505TIP3    H256007   4.796   0.382  12.564  0.2591  0.7161 -0.1650
11506TIP3   OH256008   1.817   5.431   4.267 -0.5555  0.4351 -0.0211
11506TIP3    H156009   1.833   5.337   4.259 -1.9009 -0.2718  3.5733
11506TIP3    H256010   1.902   5.471   4.252  0.1142 -1.3537 -1.3416
11507TIP3   OH256011   4.235   5.494  16.913 -0.0340  0.1690 -0.9827
11507TIP3    H156012   4.309   5.455  16.960 -0.6367 -0.0401 -0.1805
11507TIP3    H256013   4.260   5.585  16.900 -0.7696  0.8514  1.8014
11508TIP3   OH256014   2.204   6.543  15.959  0.1736  0.8437 -0.4676
11508TIP3    H156015   2.235   6.624  15.919 -0.3975  0.7066 -1.2084
11508TIP3    H256016   2.108   6.550  15.954  0.0011  1.5039  2.2377
11509TIP3   OH256017   3.608   0.430   2.635  0.4156 -0.2853 -0.2073
11509TIP3    H156018   3.690   0.385   2.613  0.9487  0.0390  1.0311
11509TIP3    H256019   3.627   0.474   2.718 -1.2929 -0.9177  0.5532
11510TIP3   OH256020   5.459   5.618   5.895 -0.5478 -0.3508 -0.1018
11510TIP3    H156021   5.376   5.597   5.851 -0.9185 -1.9178  1.2374
11510TIP3    H256022   5.489   5.534   5.930  2.1841 -0.0312 -1.4377
11511TIP3   OH256023   2.148   0.476  12.375 -0.2076 -0.6427  0.0222
11511TIP3    H156024   2.215   0.524  12.423 -0.3528 -0.7031  0.2897
11511TIP3    H256025   2.180   0.385  12.372 -0.9895 -0.9982  1.5035
11512TIP3   OH256026   6.392   4.363   2.319 -0.2758  0.2505  0.2489
11512TIP3    H156027   6.345   4.402   2.393  0.2373 -0.4654  0.9775
11512TIP3    H256028   6.324   4.321   2.267 -0.6224  0.5848  0.4236
11513TIP3   OH256029   5.035   4.887  14.187  0.0359  0.1414 -0.0410
11513TIP3    H156030   5.108   4.830  14.164  0.0000  0.2683 -0.4809
11513TIP3    H256031   5.029   4.882  14.283 -0.6657 -1.4465 -0.1395
11514TIP3   OH256032   1.433   3.733   5.632 -0.1342 -0.1019 -0.4893
11514TIP3    H156033   1.466   3.644   5.647 -0.6839 -0.0909  0.8666
11514TIP3    H256034   1.390   3.727   5.547  1.2090 -0.7148 -1.1686
11515TIP3   OH256035   5.540   0.418   2.419 -0.4044 -0.3276 -0.2081
11515TIP3    H156036   5.528   0.505   2.456 -0.4239 -1.2725  2.2381
11515TIP3    H256037   5.561   0.433   2.327 -1.9591  2.1645 -0.2462
11516TIP3   OH256038   3.791   5.877  15.338 -0.2298  0.0825  0.0422
11516TIP3    H156039   3.856   5.813  15.368 -0.8513 -0.2658  0.6849
11516TIP3    H256040   3.819   5.960  15.376 -0.8041 -0.2864  1.3435
11517TIP3   OH256041   4.120   4.945  10.588 -0.8757 -0.0071  0.2983
11517TIP3    H156042   4.158   5.030  10.611 -0.5305 -0.1551  0.2786
11517TIP3    H256043   4.195   4.890  10.567 -1.0199 -0.6082  1.2634
11518TIP3   OH256044   2.979   4.360   1.647 -0.4530  0.0102 -0.6294
11518TIP3    H156045   2.945   4.443   1.679 -0.0719  0.4948 -1.4406
11518TIP3    H256046   2.930   4.343   1.566  1.0450  0.6355 -1.7253
11519TIP3   OH256047   6.766   4.099  11.772 -0.0411 -0.1710 -0.4959
11519TIP3    H156048   6.775   4.046  11.692  0.8307 -1.6494  0.5335
11519TIP3    H256049   6.856   4.113  11.802 -0.3928 -0.3699  0.6947
11520TIP3   OH256050   1.140   4.319   0.409 -0.0947  0.7131  0.0626
11520TIP3    H156051   1.153   4.286   0.498 -0.5431  2.4266  0.8012
11520TIP3    H256052   1.220   4.366   0.388 -0.4002  1.2085 -0.0157
11521TIP3   OH256053   2.457   2.832   5.182  0.0427  0.2487 -0.0113
11521TIP3    H156054   2.459   2.736   5.180  0.5473  0.2094  1.1675
11521TIP3    H256055   2.424   2.853   5.270 -0.5217  1.1549 -0.4319
11522TIP3   OH256056   5.006   6.836   0.534  0.8083 -0.2172  0.1633
11522TIP3    H156057   5.093   6.819   0.498  1.3596  0.1784  1.2501
11522TIP3    H256058   4.955   6.757   0.513  1.9500 -1.2368  1.0617
11523TIP3   OH256059   2.360   0.802  16.841 -0.5127  0.3805  0.2982
11523TIP3    H156060   2.401   0.717  16.822 -0.6055  0.5234 -0.5958
11523TIP3    H256061   2.288   0.782  16.900  0.1768 -0.0153  1.0179
11524TIP3   OH256062   0.674   0.841  10.448 -0.1587 -0.0198  0.2002
11524TIP3    H156063   0.762   0.803  10.455  0.1848  0.5866 -0.6000
11524TIP3    H256064   0.676   0.915  10.509  1.2836  2.4424 -2.5252
11525TIP3   OH256065   3.930   2.459   0.100  0.6522  0.2930  0.1320
11525TIP3    H156066   3.923   2.516   0.023  0.0396  1.5998  1.1221
11525TIP3    H256067   4.017   2.419   0.092  1.4004  1.9123 -0.2506
11526TIP3   OH256068   4.702   5.849  15.955 -0.7611 -0.0500  0.4974
11526TIP3    H156069   4.672   5.839  16.045  1.1964  0.2969  1.2456
11526TIP3    H256070   4.796   5.865  15.963 -0.8471  1.9622 -1.4804
11527TIP3   OH256071   6.755   5.500   3.448 -0.1611  0.6801 -0.1219
11527TIP3    H156072   6.821   5.550   3.497  0.1915 -1.5209  1.8102
11527TIP3    H256073   6.708   5.451   3.515 -1.0662 -0.8893 -1.8347
11528TIP3   OH256074   4.348   2.723  14.100 -0.3757 -0.0890 -0.1367
11528TIP3    H156075   4.363   2.650  14.040 -0.1867  0.3829 -0.6730
11528TIP3    H256076   4.253   2.721  14.117 -0.4069 -0.3192 -0.3316
11529TIP3   OH256077   2.382   2.704   3.328 -0.6157  0.2939  0.2417
11529TIP3    H156078   2.440   2.662   3.391 -0.4211 -0.3220 -0.3392
11529TIP3    H256079   2.365   2.636   3.262 -3.9664 -0.4417  1.6212
11530TIP3   OH256080   3.336   2.108  16.726  0.7240 -0.2027  0.6016
11530TIP3    H156081   3.258   2.116  16.781  0.0610  0.1600 -0.3662
11530TIP3    H256082   3.374   2.196  16.726  0.9478 -0.2978  0.7948
11531TIP3   OH256083   0.255   3.249  12.229 -0.4896 -0.4567 -0.0880
11531TIP3    H156084   0.292   3.202  12.304 -0.2645 -1.7687 -0.9776
11531TIP3    H256085   0.212   3.181  12.178 -1.3595  0.5492 -0.7275
11532TIP3   OH256086   5.627   5.501   0.966  0.3142 -0.5529 -0.3720
11532TIP3    H156087   5.655   5.575   1.021  0.9177 -0.3516 -0.9447
11532TIP3    H256088   5.533   5.494   0.982  0.5964 -0.9868  1.2754
11533TIP3   OH256089   0.376   2.742   2.483  0.8053  0.6680  0.0865
11533TIP3    H156090   0.418   2.695   2.410  2.6151 -0.4378  1.7304
11533TIP3    H256091   0.288   2.762   2.451  0.8550 -1.4950 -1.6934
11534TIP3   OH256092   5.826   2.574  15.920  0.2718 -0.5071  0.0155
11534TIP3    H156093   5.802   2.490  15.881 -0.9925  0.0941 -0.5576
11534TIP3    H256094   5.859   2.626  15.847 -2.5896  0.8049 -0.4971
11535TIP3   OH256095   4.017   5.169  12.377  1.0423  0.2553  0.2323
11535TIP3    H156096   4.102   5.128  12.396  0.3726 -1.4411 -0.2473
11535TIP3    H256097   4.008   5.163  12.282 -0.7233 -2.0426  0.4479
11536TIP3   OH256098   5.257   4.993   5.255  0.4462 -0.4149  0.1423
11536TIP3    H156099   5.224   5.083   5.249  1.4115  0.1694  2.3521
11536TIP3    H256100   5.197   4.951   5.317  1.3584 -0.5617  0.9481
11537TIP3   OH256101   6.621   2.900   3.623 -0.6529 -0.1856  0.2786
11537TIP3    H156102   6.682   2.933   3.689 -0.2013 -3.5424  1.7809
11537TIP3    H256103   6.545   2.872   3.673 -1.5126 -0.2026 -1.0045
11538TIP3   OH256104   5.025   2.931   6.893  0.5004  0.8006 -0.4071
11538TIP3    H156105   5.120   2.943   6.893  0.6543 -0.1807 -1.8532
11538TIP3    H256106   5.012   2.837   6.882 -0.6555  0.8965 -0.0555
11539TIP3   OH256107   5.473   2.124  12.433 -0.7045 -0.2963  0.0518
11539TIP3    H156108   5.399   2.165  12.388  0.8601  1.8064 -0.7732
11539TIP3    H256109   5.438   2.099  12.518 -2.1051  1.6643  0.1217
11540TIP3   OH256110   2.954   5.880   1.594  0.2555 -0.0929  0.4086
11540TIP3    H156111   2.977   5.967   1.562  2.3567 -0.1865  1.4818
11540TIP3    H256112   2.963   5.886   1.689  1.3374 -1.6860  0.4527
11541TIP3   OH256113   2.341   5.407   1.156  0.3555 -0.2298 -0.2563
11541TIP3    H156114   2.382   5.326   1.189 -1.3336 -1.5447 -1.2001
11541TIP3    H256115   2.259   5.414   1.205 -0.7247 -0.5459 -1.9379
11542TIP3   OH256116   0.995   3.105   5.676  0.0581  0.4159  0.0774
11542TIP3    H156117   0.940   3.029   5.655 -1.1372  0.7340  1.8963
11542TIP3    H256118   1.084   3.069   5.684  0.2197 -0.1145 -2.8350
11543TIP3   OH256119   3.488   1.411  13.124 -0.2239 -0.4804 -0.3637
11543TIP3    H156120   3.513   1.445  13.038  1.4851  0.8540  0.5818
11543TIP3    H256121   3.562   1.354  13.149  0.3014  0.7600  1.0385
11544TIP3   OH256122   2.518   6.190  11.113  0.3111 -0.0973 -0.2141
11544TIP3    H156123   2.463   6.236  11.049  0.8513 -1.2319 -1.5464
11544TIP3    H256124   2.597   6.245  11.120  0.5687 -0.3344 -1.1117
11545TIP3   OH256125   5.815   5.875   2.425 -0.4926 -0.0789 -0.6968
11545TIP3    H156126   5.733   5.907   2.463  1.0356  0.7865  2.1600
11545TIP3    H256127   5.835   5.937   2.355 -0.6830  1.6534  0.7187
11546TIP3   OH256128   4.610   3.785   3.280 -0.0005  0.0099  0.0854
11546TIP3    H156129   4.544   3.742   3.334  0.6192 -0.0828  0.7845
11546TIP3    H256130   4.572   3.871   3.260 -2.0872 -1.4388 -2.9078
11547TIP3   OH256131   3.134   4.708   6.122  0.8226  0.6702  0.4466
11547TIP3    H156132   3.069   4.764   6.079  1.2474  1.3367  0.6500
11547TIP3    H256133   3.082   4.650   6.178  0.4102  1.4017  0.8436
11548TIP3   OH256134   6.773   0.551   4.928  0.1484 -0.3792 -0.2049
11548TIP3    H156135   6.681   0.523   4.933  0.1884 -0.5569 -0.4264
11548TIP3    H256136   6.784   0.582   4.838 -0.3738  2.1053  0.5313
11549TIP3   OH256137   2.330   3.099   2.610  0.3562  0.9234 -0.0879
11549TIP3    H156138   2.348   3.007   2.625 -1.8742  0.5224  0.4244
11549TIP3    H256139   2.345   3.112   2.516  2.5951  0.5538  0.1800
11550TIP3   OH256140   0.267   0.323  16.675 -0.7095  0.5765  0.1477
11550TIP3    H156141   0.238   0.409  16.646 -0.4258  0.2603 -1.1398
11550TIP3    H256142   0.213   0.304  16.751 -0.8323  1.8504  0.4078
11551TIP3   OH256143   1.208   4.372  16.544  0.1755 -0.0427  0.1689
11551TIP3    H156144   1.269   4.430  16.498  0.2843  0.4335  0.9072
11551TIP3    H256145   1.159   4.429  16.603 -0.6710 -0.4918 -0.0786
11552TIP3   OH256146   0.299   2.767   4.152  0.0863 -0.7395 -0.0732
11552TIP3    H156147   0.267   2.708   4.220  0.9742 -2.0654 -0.7651
11552TIP3    H256148   0.352   2.831   4.200 -1.2053 -0.2416  0.7303
11553TIP3   OH256149   4.811   3.242   1.191 -0.3404  0.2744 -0.0464
11553TIP3    H156150   4.883   3.290   1.149 -1.3143  2.5362  0.7424
11553TIP3    H256151   4.792   3.291   1.271 -2.9919 -0.0014 -0.4083
11554TIP3   OH256152   4.845   4.701   3.374 -0.4710 -0.2291 -0.7206
11554TIP3    H156153   4.849   4.765   3.445 -0.5027 -0.6426 -0.3405
11554TIP3    H256154   4.818   4.752   3.297  1.0842  0.5214 -0.8138
11555TIP3   OH256155   0.577   1.918   4.407  0.7084 -0.2497  0.1713
11555TIP3    H156156   0.595   2.011   4.397 -0.1540 -0.0444  0.4868
11555TIP3    H256157   0.663   1.879   4.425  1.6862 -0.0448 -3.3076
11556TIP3   OH256158   2.226   0.132   5.291  0.2130  0.1443  0.5007
11556TIP3    H156159   2.260   0.168   5.373  0.7747 -0.3008  0.4675
11556TIP3    H256160   2.132   0.150   5.294  0.5549  2.3079  0.1465
11557TIP3   OH256161   4.914   4.746   3.700 -0.2654 -0.1564 -0.3682
11557TIP3    H156162   4.828   4.709   3.678 -0.9082  1.0339  0.0309
11557TIP3    H256163   4.944   4.694   3.775 -1.2550  0.2466  0.3352
11558TIP3   OH256164   5.628   1.422  14.293  0.0698 -0.3644  0.2929
11558TIP3    H156165   5.649   1.516  14.287 -1.9096  0.1700  0.7999
11558TIP3    H256166   5.692   1.388  14.356  1.3849  0.4367 -0.5604
11559TIP3   OH256167   2.796   2.028  16.781  0.9318  0.4414 -0.1100
11559TIP3    H156168   2.812   1.945  16.827  0.2381  0.5718  0.3791
11559TIP3    H256169   2.772   2.089  16.850  1.6997  1.1263 -0.4433
11560TIP3   OH256170   0.108   6.527  15.413 -0.0906  0.4982  0.2040
11560TIP3    H156171   0.121   6.615  15.378 -2.0363  0.8594  0.2577
11560TIP3    H256172   0.194   6.486  15.408  0.5247  1.8510 -1.3342
11561TIP3   OH256173   3.408   2.238  14.786 -0.2233  0.2537  0.0639
11561TIP3    H156174   3.379   2.303  14.722  1.5915  0.3462 -0.7208
11561TIP3    H256175   3.329   2.214  14.834 -1.2428  1.7259 -0.8250
11562TIP3   OH256176   6.279   6.220  12.790 -0.2293 -0.5521 -0.6021
11562TIP3    H156177   6.367   6.212  12.828 -0.3715 -1.5141 -0.4507
11562TIP3    H256178   6.221   6.227  12.866 -0.1715  1.8688 -0.6969
11563TIP3   OH256179   4.979   0.681  13.226  0.0721  0.2286 -0.2366
11563TIP3    H156180   4.926   0.760  13.236  4.5441  3.6799 -0.0041
11563TIP3    H256181   5.007   0.659  13.315  0.7673 -0.0334 -0.5080
11564TIP3   OH256182   6.828   2.957   5.090 -0.1725 -0.3207  0.2381
11564TIP3    H156183   6.759   2.896   5.067 -0.1254  0.3412 -1.9131
11564TIP3    H256184   6.904   2.928   5.038  0.6860 -0.0736  1.3171
11565TIP3   OH256185   3.443   5.266  15.795 -0.6803  0.2682  0.4492
11565TIP3    H156186   3.475   5.177  15.809  1.6803  0.9151 -0.4084
11565TIP3    H256187   3.410   5.265  15.705 -0.6533  0.2810  0.4397
11566TIP3   OH256188   1.471   5.523   4.525  0.3423 -0.0871 -0.1548
11566TIP3    H156189   1.403   5.505   4.459  1.1631 -0.2513 -0.9652
11566TIP3    H256190   1.477   5.442   4.575 -0.0438 -0.0754 -0.0820
11567TIP3   OH256191   3.525   2.998  15.670  0.3369  0.2533 -0.2000
11567TIP3    H156192   3.535   3.075  15.726 -0.8110  0.2430  0.0385
11567TIP3    H256193   3.470   3.028  15.597 -1.3424 -0.6630  0.6261
11568TIP3   OH256194   4.369   4.415  15.783  0.0754 -0.2952 -0.0767
11568TIP3    H156195   4.278   4.406  15.756  0.1696 -0.5345 -0.3071
11568TIP3    H256196   4.373   4.502  15.824 -0.2426 -0.2647 -0.1114
11569TIP3   OH256197   2.188   0.659   4.323 -1.1211  0.3719  0.2542
11569TIP3    H156198   2.099   0.657   4.290 -0.2429 -1.9769 -2.3255
11569TIP3    H256199   2.199   0.576   4.370  0.0193  0.0571 -0.5158
11570TIP3   OH256200   4.815   5.463   2.641  0.2403  0.5448  0.1299
11570TIP3    H156201   4.750   5.445   2.709 -0.6995 -0.5397 -1.0149
11570TIP3    H256202   4.823   5.558   2.640 -1.9265  0.7802 -0.2157
11571TIP3   OH256203   1.191   2.888  12.094  0.1916 -0.6418  0.4818
11571TIP3    H156204   1.212   2.798  12.069  1.8897 -0.5852  1.4855
11571TIP3    H256205   1.270   2.919  12.140  0.1441  1.7560 -0.8465
11572TIP3   OH256206   1.293   5.835   1.712  0.1200  0.0677 -0.5819
11572TIP3    H156207   1.265   5.773   1.645  0.3448  0.2447 -0.8422
11572TIP3    H256208   1.213   5.858   1.759  0.0935 -0.7551 -0.1941
11573TIP3   OH256209   6.042   5.477   1.898  0.0236 -0.3715  0.4807
11573TIP3    H156210   6.085   5.487   1.813 -0.4652  0.1666  0.2951
11573TIP3    H256211   6.001   5.561   1.915 -1.9281 -1.1915  0.1180
11574TIP3   OH256212   1.133   0.270  15.279 -0.0824 -0.0988  0.4156
11574TIP3    H156213   1.175   0.356  15.277  0.3536 -0.3255 -1.0001
11574TIP3    H256214   1.166   0.230  15.360 -2.2206  1.9545  2.4436
11575TIP3   OH256215   3.313   2.813  12.564 -0.2888 -0.1455  0.5278
11575TIP3    H156216   3.275   2.900  12.551 -0.1287 -0.0607  0.6372
11575TIP3    H256217   3.383   2.826  12.627  1.1585  0.0258 -1.0408
11576TIP3   OH256218   0.017   0.281   2.530  0.1610 -0.2811  0.5202
11576TIP3    H156219   0.045   0.192   2.552  0.5265 -0.7735 -1.6757
11576TIP3    H256220   0.089   0.316   2.477 -0.7091  0.6825 -0.0679
11577TIP3   OH256221   4.078   1.032  11.017 -0.0650 -0.3219 -0.4273
11577TIP3    H156222   4.071   1.118  11.059 -1.2647 -1.4512  1.8899
11577TIP3    H256223   4.119   1.049  10.933  1.2716  2.2965  0.6577
11578TIP3   OH256224   5.118   1.587  13.551 -0.0122 -0.2675 -0.0688
11578TIP3    H156225   5.210   1.575  13.528 -0.5653 -0.1132 -2.6731
11578TIP3    H256226   5.120   1.638  13.632  2.1606 -1.5065  0.7302
11579TIP3   OH256227   1.059   1.633  13.500 -0.2205  0.2521 -0.4691
11579TIP3    H156228   1.118   1.558  13.491 -1.5273 -0.8601  0.0006
11579TIP3    H256229   1.061   1.653  13.594 -2.2946 -1.2719 -0.0339
11580TIP3   OH256230   0.959   4.100  11.983  0.3167  0.0189 -0.1229
11580TIP3    H156231   1.049   4.116  11.955  0.5690 -0.7715  0.2141
11580TIP3    H256232   0.916   4.066  11.904  0.5037 -0.3034 -0.0863
11581TIP3   OH256233   6.854   2.755  12.953 -0.4654  0.0208  0.6041
11581TIP3    H156234   6.779   2.779  13.008  0.3717  3.2006  0.5458
11581TIP3    H256235   6.824   2.775  12.864 -0.3115 -0.9679  0.3173
11582TIP3   OH256236   6.607   4.752  11.923 -0.1581  0.1380 -0.1349
11582TIP3    H156237   6.684   4.701  11.898 -1.6004 -1.2570 -2.0232
11582TIP3    H256238   6.626   4.840  11.890  0.1637 -0.4638 -1.6424
11583TIP3   OH256239   1.109   1.853  13.795 -0.7584  0.0933  0.5020
11583TIP3    H156240   1.136   1.945  13.790  2.9567 -0.7167  2.2430
11583TIP3    H256241   1.029   1.854  13.847 -0.5299  2.3185  0.8910
11584TIP3   OH256242   4.444   3.736   2.766  0.1264  0.4345 -0.1208
11584TIP3    H156243   4.405   3.819   2.739  1.7197  1.4352  0.5278
11584TIP3    H256244   4.519   3.724   2.707  1.2318  0.6044  1.2147
11585TIP3   OH256245   0.094   3.168  14.180 -0.1960 -0.1130 -0.4541
11585TIP3    H156246   0.017   3.126  14.218 -0.9558 -0.6200 -2.4335
11585TIP3    H256247   0.168   3.127  14.225 -1.0038  0.8579  1.9667
11586TIP3   OH256248   1.757   4.503  13.268  0.2646 -0.3750  0.0895
11586TIP3    H156249   1.742   4.481  13.176  1.4743  0.5416 -0.3538
11586TIP3    H256250   1.782   4.420  13.309 -0.5073 -0.8341 -0.3341
11587TIP3   OH256251   1.966   3.300   4.682  0.3619 -0.6482  0.1357
11587TIP3    H156252   1.893   3.238   4.684  0.1894 -0.4335  0.4773
11587TIP3    H256253   1.926   3.386   4.695  0.9723 -0.7834  4.2901
11588TIP3   OH256254   5.587   1.979  13.909  0.2050  0.3651 -0.2061
11588TIP3    H156255   5.593   1.913  13.979  0.1635  0.9663  0.3810
11588TIP3    H256256   5.494   1.982  13.887 -0.1250  1.5904  1.1466
11589TIP3   OH256257   0.587   3.203  16.660 -0.6695 -0.0523  0.2925
11589TIP3    H156258   0.676   3.199  16.623 -0.7204  2.1643 -0.1826
11589TIP3    H256259   0.556   3.113  16.657  0.2286 -0.3631 -2.9160
11590TIP3   OH256260   3.675   1.659   0.646  0.5063 -0.3976  0.2539
11590TIP3    H156261   3.704   1.620   0.564  0.6965  0.4818 -0.1016
11590TIP3    H256262   3.675   1.586   0.709 -0.0763 -1.1798 -0.6231
11591TIP3   OH256263   6.764   4.719  14.527 -0.2934 -0.0594 -0.2575
11591TIP3    H156264   6.711   4.786  14.570 -0.0064 -0.5129  0.8312
11591TIP3    H256265   6.742   4.727  14.434  1.1464  2.7888 -0.4426
11592TIP3   OH256266   6.329   5.158   5.642  0.6421 -0.3675 -0.1971
11592TIP3    H156267   6.292   5.172   5.555  0.0262 -1.1577 -0.0718
11592TIP3    H256268   6.254   5.129   5.695  1.3210 -1.4246  0.2075
11593TIP3   OH256269   4.996   1.447  12.155 -0.3965 -0.6403 -0.4857
11593TIP3    H156270   4.919   1.468  12.102  1.3782 -2.4885 -4.1670
11593TIP3    H256271   4.980   1.358  12.187 -1.0782  0.1555  1.5898
11594TIP3   OH256272   3.194   5.447   0.838 -0.2835 -0.1364 -0.2304
11594TIP3    H156273   3.112   5.412   0.872 -0.8600 -0.1150 -1.5290
11594TIP3    H256274   3.170   5.530   0.797  0.4992  0.1868 -0.0593
11595TIP3   OH256275   0.110   2.876   2.151  0.8755  0.1938  0.6709
11595TIP3    H156276   0.068   2.962   2.150 -0.2181 -0.3149 -0.8730
11595TIP3    H256277   0.091   2.840   2.238  1.0154  1.3333  1.1900
11596TIP3   OH256278   5.680   6.132   0.601 -0.2533  0.4956  0.7460
11596TIP3    H156279   5.773   6.134   0.579 -0.3258 -0.1801  0.3630
11596TIP3    H256280   5.635   6.123   0.517 -0.6872  1.1709  0.8978
11597TIP3   OH256281   3.647   5.927   0.821 -0.0139 -0.1645 -0.0157
11597TIP3    H156282   3.726   5.950   0.870 -0.2259 -0.1026  0.3001
11597TIP3    H256283   3.602   6.010   0.808 -0.9552 -0.4021  1.4284
11598TIP3   OH256284   5.690   4.395   0.093  0.3074 -0.4849  0.0006
11598TIP3    H156285   5.770   4.375   0.141 -0.1864 -0.8917  0.6592
11598TIP3    H256286   5.642   4.312   0.091 -1.3433  0.3724  1.9583
11599TIP3   OH256287   3.645   5.244   4.406 -0.0985 -0.0820 -0.4810
11599TIP3    H156288   3.618   5.175   4.467 -1.1865  0.6389 -0.1123
11599TIP3    H256289   3.702   5.300   4.458 -0.4438  0.1322 -0.3288
11600TIP3   OH256290   6.660   5.928   0.227 -0.2548 -0.2386 -0.7977
11600TIP3    H156291   6.696   5.969   0.148 -3.0052 -0.2511 -2.1465
11600TIP3    H256292   6.579   5.975   0.245 -1.4264 -2.4044  0.0120
11601TIP3   OH256293   3.437   6.677  12.183 -0.1179 -0.2387  0.1303
11601TIP3    H156294   3.344   6.699  12.188  0.0682  0.4086  0.8778
11601TIP3    H256295   3.468   6.722  12.105 -0.5360 -0.8718 -0.4103
11602TIP3   OH256296   3.881   1.573  16.934 -0.1238  0.4015  0.4672
11602TIP3    H156297   3.864   1.654  16.886  0.7230 -0.8511 -2.1324
11602TIP3    H256298   3.797   1.528  16.937 -0.1215  0.3442 -0.1970
11603TIP3   OH256299   0.131   6.677   1.160 -0.4902 -0.0217 -0.1254
11603TIP3    H156300   0.181   6.687   1.241  1.3720 -1.2620 -1.0423
11603TIP3    H256301   0.089   6.591   1.168  0.1211 -0.3820 -0.6522
11604TIP3   OH256302   2.879   5.310   6.051 -0.1241  0.0663  0.6788
11604TIP3    H156303   2.973   5.327   6.044 -0.0199 -0.6554  0.2217
11604TIP3    H256304   2.871   5.248   6.123 -0.2804  0.3471  0.9045
11605TIP3   OH256305   1.127   3.773   6.236 -0.4423  0.5037 -0.2686
11605TIP3    H156306   1.032   3.783   6.237 -0.7338 -1.7221  1.1744
11605TIP3    H256307   1.153   3.775   6.328  1.2267  3.0656 -0.7092
11606TIP3   OH256308   2.612   0.307   3.715 -0.2125  0.5751 -0.7187
11606TIP3    H156309   2.538   0.250   3.735  0.0659  0.9409  1.5458
11606TIP3    H256310   2.657   0.319   3.799  2.9333 -0.3341 -2.0907
11607TIP3   OH256311   5.221   4.445  12.888 -0.4679 -0.1584 -0.0893
11607TIP3    H156312   5.289   4.510  12.867  1.1715 -1.2587  1.4592
11607TIP3    H256313   5.155   4.495  12.936  0.5105  0.5001  0.6152
11608TIP3   OH256314   5.380   2.675   1.268  0.2211 -0.0019  0.0354
11608TIP3    H156315   5.331   2.695   1.189  1.8260 -0.3621 -1.1008
11608TIP3    H256316   5.386   2.580   1.270  0.1688  0.0003  0.6183
11609TIP3   OH256317   0.982   0.104   3.307 -0.6327  0.0988 -0.0354
11609TIP3    H156318   0.997   0.079   3.398 -0.3422 -0.5171 -0.2460
11609TIP3    H256319   0.974   0.199   3.309 -2.1209 -0.0166  0.8432
11610TIP3   OH256320   2.991   5.472   1.945 -0.2085  0.1849  0.0994
11610TIP3    H156321   2.928   5.462   1.875  0.1751 -0.8296 -0.1241
11610TIP3    H256322   3.069   5.425   1.914  0.4842  0.9986  0.5665
11611TIP3   OH256323   4.048   0.600  13.959  0.1600  0.5174 -0.6796
11611TIP3    H156324   4.143   0.587  13.953  0.0254 -0.2861 -1.3065
11611TIP3    H256325   4.016   0.517  13.994 -0.4026  0.4155 -1.4211
11612TIP3   OH256326   3.295   0.902  11.106 -0.0038 -0.0736  0.5339
11612TIP3    H156327   3.264   0.927  11.193  1.1630 -0.7334  1.1608
11612TIP3    H256328   3.380   0.863  11.121  0.4617  0.2805 -0.9726
11613TIP3   OH256329   1.576   6.829   0.223 -0.4959  0.2691 -0.1099
11613TIP3    H156330   1.540   6.863   0.141 -0.9177  0.3768  0.1182
11613TIP3    H256331   1.643   6.766   0.195  0.4269  1.3991 -0.5363
11614TIP3   OH256332   0.323   0.655  13.682 -0.0857  0.3769  0.6735
11614TIP3    H156333   0.376   0.726  13.717 -0.3556  1.4506 -0.9731
11614TIP3    H256334   0.345   0.579  13.736  2.2892  1.0325  0.7390
11615TIP3   OH256335   2.997   2.835   1.021  0.3615  0.0676 -0.0931
11615TIP3    H156336   3.024   2.756   1.068 -1.5989 -0.1215  0.8193
11615TIP3    H256337   2.908   2.816   0.992  0.2451  1.5563 -0.7915
11616TIP3   OH256338   1.380   5.097  10.168  0.1897 -0.2712  0.5766
11616TIP3    H156339   1.323   5.067  10.097  2.1436  0.0531 -1.2097
11616TIP3    H256340   1.380   5.025  10.231  0.3159 -1.6368 -0.9169
11617TIP3   OH256341   4.301   0.240   1.210 -0.5264  0.1275  0.0264
11617TIP3    H156342   4.337   0.318   1.168 -0.4614 -0.4267 -0.9711
11617TIP3    H256343   4.220   0.222   1.162 -0.1341 -0.8741 -0.2838
11618TIP3   OH256344   1.996   6.511  12.745  0.1835  0.0738  0.6558
11618TIP3    H156345   2.010   6.417  12.758 -0.3065 -0.1887 -0.5615
11618TIP3    H256346   1.912   6.529  12.788 -0.5891 -0.4297 -0.5805
11619TIP3   OH256347   4.148   2.603   6.312  0.5441 -0.2273 -0.0244
11619TIP3    H156348   4.104   2.635   6.233 -0.6665 -0.3229  0.5913
11619TIP3    H256349   4.240   2.600   6.288  0.4546  1.7190 -0.7713
11620TIP3   OH256350   0.862   0.551  10.777  0.3422  0.0338 -0.4324
11620TIP3    H156351   0.844   0.639  10.809 -1.9614 -0.1924 -0.9300
11620TIP3    H256352   0.833   0.552  10.686  1.5966 -0.8632 -0.8627
11621TIP3   OH256353   5.155   2.470   3.269  0.2707  0.0048  0.4220
11621TIP3    H156354   5.160   2.428   3.183 -0.9699 -1.3494  0.9696
11621TIP3    H256355   5.064   2.499   3.275 -0.3791 -2.1371  2.2256
11622TIP3   OH256356   5.133   0.773  15.437  0.0672 -1.2422 -0.2692
11622TIP3    H156357   5.196   0.763  15.365  0.6528 -1.3380  0.2503
11622TIP3    H256358   5.161   0.710  15.503  1.2405  0.7377  1.2401
11623TIP3   OH256359   1.009   1.716   5.860 -0.1088  0.1512 -0.0363
11623TIP3    H156360   0.915   1.718   5.840  0.2018 -1.8471 -2.0616
11623TIP3    H256361   1.023   1.794   5.913 -2.9226  0.4668  0.4313
11624TIP3   OH256362   0.935   2.528  12.698  0.2404 -0.3728  0.2103
11624TIP3    H156363   0.894   2.490  12.775  0.6037  0.3433  0.7675
11624TIP3    H256364   0.986   2.456  12.660 -1.6963 -1.3499 -0.6529
11625TIP3   OH256365   6.645   0.381   0.632  0.0544  0.2953 -0.3721
11625TIP3    H156366   6.740   0.385   0.646  0.1256  0.3698 -0.8819
11625TIP3    H256367   6.632   0.310   0.570 -0.2745 -0.0552  0.0847
11626TIP3   OH256368   5.178   4.719   1.356 -0.5131  0.7107  0.1912
11626TIP3    H156369   5.191   4.698   1.264  4.6989  1.2468  0.4913
11626TIP3    H256370   5.141   4.640   1.394  1.0304 -1.0821 -1.7816
11627TIP3   OH256371   2.297   6.047  16.394 -0.6290 -0.4105 -0.4169
11627TIP3    H156372   2.289   5.970  16.449  1.4413  0.0984  0.6873
11627TIP3    H256373   2.381   6.037  16.349 -0.4235  1.0775 -0.4301
11628TIP3   OH256374   6.211   5.973  14.277  0.3125 -0.1239  0.1415
11628TIP3    H156375   6.149   6.001  14.345 -0.9887 -2.5459  0.0543
11628TIP3    H256376   6.181   6.017  14.197  0.6381  1.1493  0.6911
11629TIP3   OH256377   2.295   0.688  12.023  0.2036  0.3286 -0.0270
11629TIP3    H156378   2.369   0.690  11.962 -0.4725 -0.4316 -0.8950
11629TIP3    H256379   2.224   0.733  11.977 -0.4001 -0.4903  0.0857
11630TIP3   OH256380   2.709   5.307   1.087  0.0760 -0.2089 -0.6159
11630TIP3    H156381   2.762   5.266   1.156 -0.4128  0.7196  0.3569
11630TIP3    H256382   2.622   5.270   1.100  0.1444 -0.5973 -1.2392
11631TIP3   OH256383   0.868   6.238   5.198 -0.3194 -0.1584  0.1866
11631TIP3    H156384   0.782   6.276   5.181 -0.5575 -0.3927  0.8339
11631TIP3    H256385   0.866   6.214   5.291  0.7030  0.4987  0.4027
11632TIP3   OH256386   0.848   1.192  14.493  0.2025 -0.5731  0.4206
11632TIP3    H156387   0.773   1.249  14.504 -0.4081 -1.2326 -0.2373
11632TIP3    H256388   0.874   1.203  14.401 -1.3749 -3.0299 -0.4249
11633TIP3   OH256389   4.600   5.142  14.284 -0.4581 -0.5383  0.0470
11633TIP3    H156390   4.644   5.134  14.200 -1.0140  0.3100 -0.3332
11633TIP3    H256391   4.560   5.056  14.298  3.9037 -2.5971  1.9603
11634TIP3   OH256392   5.476   0.910   3.674 -0.1144  0.6724  0.1507
11634TIP3    H156393   5.474   1.002   3.651 -1.0970  0.4307 -0.7737
11634TIP3    H256394   5.426   0.866   3.606 -0.6988 -0.4057  1.2235
11635TIP3   OH256395   3.485   5.488  11.997 -0.1665 -0.7560 -0.5395
11635TIP3    H156396   3.554   5.451  12.052  1.0517  1.2323 -0.6128
11635TIP3    H256397   3.404   5.472  12.045  0.5513 -1.5434  0.4434
11636TIP3   OH256398   2.082   2.910   5.904 -0.4102 -0.3847  0.4186
11636TIP3    H156399   1.989   2.896   5.921 -0.3668  0.4113  1.4220
11636TIP3    H256400   2.092   3.005   5.903  0.6749 -0.4469  2.0470
11637TIP3   OH256401   3.508   6.174   5.180 -0.5337 -0.6671 -0.3023
11637TIP3    H156402   3.576   6.174   5.246 -0.8129  0.2343 -0.0131
11637TIP3    H256403   3.555   6.184   5.097 -0.2813 -0.5667 -0.1477
11638TIP3   OH256404   3.806   5.935   2.019  0.2916 -0.8292  0.0279
11638TIP3    H156405   3.836   5.889   1.940  2.3889 -1.6793  1.2421
11638TIP3    H256406   3.865   5.905   2.088 -0.0157  1.6331  1.4650
11639TIP3   OH256407   5.305   1.849  13.556  0.1215 -0.4361 -0.0527
11639TIP3    H156408   5.273   1.871  13.469  0.9176  1.6591  0.1218
11639TIP3    H256409   5.350   1.765  13.545 -0.9380 -0.8542 -1.3577
11640TIP3   OH256410   2.127   3.285  13.392  0.1240 -0.1887  0.2369
11640TIP3    H156411   2.220   3.291  13.370  0.2752 -0.9674  0.6184
11640TIP3    H256412   2.100   3.200  13.359 -1.0832  1.0028 -2.0455
11641TIP3   OH256413   5.595   0.032  16.298 -0.0514  0.1916 -0.5113
11641TIP3    H156414   5.607   0.055  16.390 -0.2445  0.8103 -0.6388
11641TIP3    H256415   5.669  -0.026  16.278  0.7884  1.1690 -0.3448
11642TIP3   OH256416   3.988   0.704   5.545 -0.6801 -0.2660  0.5745
11642TIP3    H156417   4.028   0.788   5.521 -1.7197  0.4709  1.3316
11642TIP3    H256418   3.894   0.718   5.534 -0.9269 -1.0832  1.4737
11643TIP3   OH256419   2.842   4.443   3.259 -0.0958 -0.1809 -0.2505
11643TIP3    H156420   2.878   4.495   3.188 -0.6479 -0.4132 -0.7082
11643TIP3    H256421   2.789   4.375   3.216 -0.1004 -0.5791  0.3632
11644TIP3   OH256422   1.646   0.205  12.911  0.0140 -0.4868 -0.3245
11644TIP3    H156423   1.661   0.294  12.944  0.4342 -0.5574 -0.3222
11644TIP3    H256424   1.597   0.162  12.981  0.8913 -0.6300  0.2185
11645TIP3   OH256425   2.320   5.095   1.872 -0.0996  0.1784 -1.0300
11645TIP3    H156426   2.226   5.113   1.879 -0.5199 -1.7560 -1.2894
11645TIP3    H256427   2.350   5.150   1.800 -0.8011  1.5616 -0.3133
11646TIP3   OH256428   5.210   0.671  11.218  0.3402 -0.0362 -0.5829
11646TIP3    H156429   5.285   0.671  11.277  0.8049  0.9333 -1.1568
11646TIP3    H256430   5.248   0.667  11.131 -0.3318 -1.1320 -0.8590
11647TIP3   OH256431   3.003   3.944   5.316  0.3008 -0.1762 -0.1469
11647TIP3    H156432   2.997   3.913   5.406  0.3741  0.2440  0.0088
11647TIP3    H256433   2.981   3.869   5.262  1.8514 -0.9018  0.1684
11648TIP3   OH256434   4.319   1.042  16.558 -0.1364  0.6872 -0.3826
11648TIP3    H156435   4.279   1.119  16.517 -0.3041  0.6181 -0.3515
11648TIP3    H256436   4.301   1.053  16.652 -1.5000 -0.1469 -0.5114
11649TIP3   OH256437   5.582   2.014   2.344  0.3681 -0.3962 -1.0252
11649TIP3    H156438   5.576   1.946   2.410 -1.1585 -0.1473 -0.8535
11649TIP3    H256439   5.639   1.978   2.276  0.8712 -1.1842 -0.1967
11650TIP3   OH256440   1.102   3.938  14.594 -0.1027 -0.1247  0.0212
11650TIP3    H156441   1.170   3.919  14.658 -0.2304  0.9718  0.5137
11650TIP3    H256442   1.081   4.031  14.608 -0.6929 -0.0729 -1.0777
11651TIP3   OH256443   4.045   6.572  16.549 -0.2383  0.5062 -0.4441
11651TIP3    H156444   4.075   6.559  16.639 -0.4641  1.7410 -0.1714
11651TIP3    H256445   4.008   6.661  16.549  0.5302  0.8599 -1.9578
11652TIP3   OH256446   1.765   4.293   1.726 -0.1730  0.7644  0.3458
11652TIP3    H156447   1.797   4.223   1.782 -1.3493  0.1411  0.2634
11652TIP3    H256448   1.818   4.287   1.646  0.8891  1.0795  1.0095
11653TIP3   OH256449   1.900   1.351   2.746  1.2834  0.2559  0.3275
11653TIP3    H156450   1.901   1.435   2.700  0.6870 -0.0508 -0.2632
11653TIP3    H256451   1.984   1.347   2.791  1.6629  0.7924 -0.3268
11654TIP3   OH256452   1.345   6.887   3.005  0.0680 -0.0535  0.2773
11654TIP3    H156453   1.328   6.975   2.972 -1.3901 -0.7914 -1.0989
11654TIP3    H256454   1.259   6.856   3.034  0.5666 -1.0161  0.7501
11655TIP3   OH256455   5.595   3.872   4.222  0.4780 -0.1992 -0.3224
11655TIP3    H156456   5.535   3.878   4.296  2.6514  1.5528  1.4646
11655TIP3    H256457   5.563   3.938   4.160 -0.5592 -0.6784 -0.3051
11656TIP3   OH256458   5.186   2.257  15.232 -0.8947  0.1868 -0.1258
11656TIP3    H156459   5.140   2.272  15.149 -1.1830 -0.2674 -0.0493
11656TIP3    H256460   5.123   2.211  15.287 -0.3416 -0.4839 -0.0328
11657TIP3   OH256461   6.172   3.195  15.636  0.1893 -0.1831  0.0720
11657TIP3    H156462   6.251   3.232  15.674  0.9826 -1.8997  0.1611
11657TIP3    H256463   6.196   3.175  15.545  0.0254 -1.1410  0.2285
11658TIP3   OH256464   5.251   0.567  11.565 -0.3019  0.3128 -0.7415
11658TIP3    H156465   5.271   0.587  11.657 -0.2706 -0.2006 -0.6371
11658TIP3    H256466   5.333   0.584  11.519 -0.0374 -0.3488 -0.5305
11659TIP3   OH256467   4.884   1.447  11.518 -0.0398 -0.1916 -0.0048
11659TIP3    H156468   4.954   1.398  11.561 -1.1918 -0.6021  1.4782
11659TIP3    H256469   4.902   1.539  11.539  1.2068 -0.0657 -1.4300
11660TIP3   OH256470   4.109   4.429  13.433 -0.2947 -0.0943 -0.5379
11660TIP3    H156471   4.133   4.342  13.464  0.2347 -0.1713 -1.1564
11660TIP3    H256472   4.187   4.462  13.390 -0.9847  0.0501 -1.7058
11661TIP3   OH256473   4.789   6.800  11.677  0.5038 -0.0740 -0.2540
11661TIP3    H156474   4.752   6.787  11.765 -0.7609  3.9752 -0.0097
11661TIP3    H256475   4.713   6.803  11.619  1.3145 -2.4841 -1.5916
11662TIP3   OH256476   2.108   2.009   4.266 -0.0648  0.5498  0.0911
11662TIP3    H156477   2.013   1.999   4.262 -0.0027  0.1889 -1.4437
11662TIP3    H256478   2.123   2.079   4.329 -1.4080  1.3076 -0.3954
11663TIP3   OH256479   5.808   2.107  10.785  0.2588 -0.6691  0.0812
11663TIP3    H156480   5.770   2.118  10.698 -1.2272  0.6821  0.8555
11663TIP3    H256481   5.888   2.160  10.784  0.0467 -0.3575 -0.3174
11664TIP3   OH256482   4.966   6.236   4.514 -0.7145 -0.4952  0.2259
11664TIP3    H156483   5.040   6.225   4.573 -0.1224 -1.3491 -0.6463
11664TIP3    H256484   4.899   6.277   4.568 -0.2772 -1.4313  1.5508
11665TIP3   OH256485   2.986   5.761  16.074 -0.1127 -0.0307  0.2890
11665TIP3    H156486   3.027   5.817  16.009 -0.3823 -0.6968 -0.4693
11665TIP3    H256487   2.898   5.796  16.085  0.1345  0.4558  0.7640
11666TIP3   OH256488   4.596   0.722   0.423  0.2356 -0.2332  0.1794
11666TIP3    H156489   4.594   0.811   0.459 -2.1399 -0.4275  0.6739
11666TIP3    H256490   4.539   0.671   0.480 -2.2527 -0.9876 -2.6758
11667TIP3   OH256491   0.210   4.772  12.472 -0.0627  0.1169  0.1565
11667TIP3    H156492   0.274   4.737  12.535  0.1955  0.5152  0.1184
11667TIP3    H256493   0.235   4.864  12.461 -0.7711  0.3344  0.3001
11668TIP3   OH256494   5.937   2.855  11.782  0.3974 -0.1550 -0.1628
11668TIP3    H156495   5.923   2.929  11.723 -2.6960 -1.1412 -0.8406
11668TIP3    H256496   5.870   2.865  11.849 -1.5278 -3.2839 -1.4027
11669TIP3   OH256497   4.300   2.969  14.578  0.3350  0.1034 -0.0151
11669TIP3    H156498   4.328   2.980  14.487 -2.1169  2.0380 -0.6312
11669TIP3    H256499   4.337   3.045  14.623  0.0970  0.0830  0.2165
11670TIP3   OH256500   4.694   3.044  13.633 -0.4092 -0.3714 -0.3825
11670TIP3    H156501   4.687   3.063  13.727  0.6750 -1.5005 -0.0405
11670TIP3    H256502   4.605   3.051  13.600 -0.8885 -0.4548  0.8360
11671TIP3   OH256503   5.709   4.975   4.452  0.0885  0.0087  0.3673
11671TIP3    H156504   5.660   4.961   4.533 -0.1577 -0.8914  0.0743
11671TIP3    H256505   5.753   4.892   4.435 -1.2144 -0.4204 -1.3000
11672TIP3   OH256506   4.846   5.535  14.563 -0.4911 -0.0055  0.2211
11672TIP3    H156507   4.908   5.506  14.630 -0.6837 -1.9140 -0.3603
11672TIP3    H256508   4.900   5.585  14.501 -0.0196  0.4273  0.9602
11673TIP3   OH256509   4.167   1.774   5.479  0.5503 -0.0963  0.4180
11673TIP3    H156510   4.218   1.759   5.558  1.8308 -0.5841 -0.4666
11673TIP3    H256511   4.189   1.864   5.453  0.4743 -0.0878  0.3831
11674TIP3   OH256512   0.901   1.311  14.237  0.5241  0.5347  0.1665
11674TIP3    H156513   0.961   1.381  14.211  0.5778  0.5428  0.3120
11674TIP3    H256514   0.814   1.344  14.213  0.4915  0.8894  0.7396
11675TIP3   OH256515   5.738   4.277   2.069 -0.2310 -0.0664  0.1837
11675TIP3    H156516   5.704   4.196   2.106 -1.1474 -0.2722 -1.0490
11675TIP3    H256517   5.672   4.343   2.091  0.2125  0.2335  0.6490
11676TIP3   OH256518   0.062   4.570  14.334  0.8089  0.4000 -0.0676
11676TIP3    H156519   0.119   4.533  14.401  0.7155 -0.0895 -0.2519
11676TIP3    H256520   0.091   4.529  14.252  0.8361  0.8920 -0.3055
11677TIP3   OH256521   4.150   1.896  12.871  0.0367 -0.7325 -0.7837
11677TIP3    H156522   4.216   1.870  12.806  0.4530 -0.2656 -0.5568
11677TIP3    H256523   4.142   1.991  12.860  1.5960 -0.3023  1.1774
11678TIP3   OH256524   5.658   0.084   1.561  0.2381 -0.1998 -0.9390
11678TIP3    H156525   5.739   0.084   1.510 -0.4566 -1.6043 -2.0857
11678TIP3    H256526   5.629  -0.007   1.561 -0.7334  0.0727  0.4773
11679TIP3   OH256527   5.047   1.389   5.629  0.0299  0.0424 -0.1885
11679TIP3    H156528   5.042   1.330   5.554  0.7912  0.4579 -0.5817
11679TIP3    H256529   5.026   1.334   5.705  0.0651 -0.5743 -0.6198
11680TIP3   OH256530   0.353   1.847  13.741  0.2118 -0.4607 -0.2084
11680TIP3    H156531   0.413   1.914  13.774  0.8936 -1.4239  0.5596
11680TIP3    H256532   0.330   1.795  13.818 -0.8305 -0.7262 -0.6733
11681TIP3   OH256533   6.387   1.285  13.475  0.0006  0.1282 -0.0229
11681TIP3    H156534   6.370   1.369  13.519 -0.8522 -1.3865  2.7468
11681TIP3    H256535   6.303   1.263  13.434 -0.2123 -0.0672  0.5146
11682TIP3   OH256536   6.426   3.955   1.774 -1.0982 -0.5601  0.1029
11682TIP3    H156537   6.336   3.924   1.783 -1.4180 -0.4242 -2.0430
11682TIP3    H256538   6.462   3.903   1.703  0.1264  0.2224  0.1207
11683TIP3   OH256539   4.646   3.346   3.441 -0.0831 -0.7219  0.0341
11683TIP3    H156540   4.555   3.365   3.420  0.3010  1.6275  0.1650
11683TIP3    H256541   4.689   3.337   3.356  0.1446  1.6653 -0.1807
11684TIP3   OH256542   3.356   2.603  14.558 -0.1322  0.4965  0.5581
11684TIP3    H156543   3.321   2.517  14.534 -0.6109  0.8373  0.0189
11684TIP3    H256544   3.279   2.658  14.568  0.2201  1.1143 -0.0799
11685TIP3   OH256545   0.178   1.003   0.780 -0.2175 -0.2820 -0.0913
11685TIP3    H156546   0.190   0.986   0.873 -0.4573 -0.7561 -0.1436
11685TIP3    H256547   0.266   1.013   0.745 -0.1534  0.5602  0.3089
11686TIP3   OH256548   2.397   4.947   5.584 -0.1973  0.0339 -0.4320
11686TIP3    H156549   2.432   5.015   5.642 -2.9820  0.6968  0.6446
11686TIP3    H256550   2.426   4.973   5.497  1.3098  0.8895  0.2870
11687TIP3   OH256551   1.332   4.066  12.680  0.0924 -0.1842  0.6563
11687TIP3    H156552   1.252   4.026  12.647  0.0280 -0.5900  1.2797
11687TIP3    H256553   1.379   3.994  12.722 -0.3865  0.5122  2.4810
11688TIP3   OH256554   6.686   6.073   4.301 -0.0669  0.6151 -0.5107
11688TIP3    H156555   6.714   5.981   4.305  0.9025  0.8116 -1.9145
11688TIP3    H256556   6.765   6.121   4.279 -0.4336  1.8963  0.8114
11689TIP3   OH256557   1.370   2.560  15.066  0.0295  0.1465 -0.1615
11689TIP3    H156558   1.393   2.483  15.015  2.6680  0.5870  0.1864
11689TIP3    H256559   1.282   2.543  15.098  0.0564 -2.1319 -1.1138
11690TIP3   OH256560   0.272   2.736   1.091  0.2905 -0.0075 -0.4021
11690TIP3    H156561   0.212   2.690   1.151 -0.3924 -1.3579 -2.0510
11690TIP3    H256562   0.230   2.820   1.076  1.3717  1.1516  2.3759
11691TIP3   OH256563   0.910   0.825  15.848 -0.0341 -0.2352 -0.1854
11691TIP3    H156564   0.989   0.873  15.874  0.1424 -0.8805  0.5020
11691TIP3    H256565   0.891   0.857  15.760 -2.0483  3.9238  1.4993
11692TIP3   OH256566   6.425   1.107  11.488 -0.8773  0.0084  0.4003
11692TIP3    H156567   6.484   1.098  11.414 -0.9522 -1.2343  0.4585
11692TIP3    H256568   6.442   1.194  11.523  2.2523 -0.9323  1.5334
11693TIP3   OH256569   1.340   4.481   0.302  0.3106 -0.0996 -0.0164
11693TIP3    H156570   1.379   4.450   0.221  0.7134  1.8006 -0.6102
11693TIP3    H256571   1.301   4.565   0.279 -0.2354  0.1348  1.5937
11694TIP3   OH256572   0.519   3.524   1.021 -0.1924  0.7108 -0.2129
11694TIP3    H156573   0.460   3.598   1.002 -1.3857 -0.0746  0.3343
11694TIP3    H256574   0.463   3.459   1.062  0.6575 -0.8537 -1.4365
11695TIP3   OH256575   1.607   6.240   1.127 -0.5665  0.5379 -0.4794
11695TIP3    H156576   1.629   6.147   1.127 -0.4982  0.5423 -1.4230
11695TIP3    H256577   1.684   6.283   1.089 -0.1328  1.1139  0.9747
11696TIP3   OH256578   6.465   4.230  13.453  0.5114  0.1972  0.0269
11696TIP3    H156579   6.488   4.297  13.518  0.2883  0.0976  0.2086
11696TIP3    H256580   6.529   4.160  13.467  1.2432  0.6987 -0.6827
11697TIP3   OH256581   6.474   2.611   1.359  0.2597 -0.2798  0.4214
11697TIP3    H156582   6.413   2.682   1.378 -0.2560 -0.2200 -1.3199
11697TIP3    H256583   6.560   2.653   1.360  0.0497  0.1604  0.4330
11698TIP3   OH256584   5.284   2.478   0.198  0.5411 -0.7167  0.5951
11698TIP3    H156585   5.379   2.479   0.189  0.3398 -1.5020 -3.9891
11698TIP3    H256586   5.260   2.387   0.182 -1.0530 -0.1173 -0.6525
11699TIP3   OH256587   2.809   0.100  14.856 -0.1307  0.1936  0.4962
11699TIP3    H156588   2.758   0.064  14.783  0.9683  1.9726 -1.2618
11699TIP3    H256589   2.898   0.071  14.839  0.0191 -0.0118  1.5918
11700TIP3   OH256590   5.090   2.661   1.529 -0.2575 -0.0580  0.0033
11700TIP3    H156591   5.171   2.689   1.486 -1.0536 -0.7363 -2.1001
11700TIP3    H256592   5.078   2.722   1.601  1.6856  0.5664 -0.1462
11701TIP3   OH256593   6.491   3.751   1.572 -0.9911  0.4900  0.1962
11701TIP3    H156594   6.432   3.693   1.525  1.5248 -0.8288 -1.5822
11701TIP3    H256595   6.501   3.711   1.658 -0.6824 -0.7344 -0.3969
11702TIP3   OH256596   1.621   1.931  11.654 -0.4190  0.1881  0.2265
11702TIP3    H156597   1.702   1.956  11.697  0.1329 -0.6854 -0.2708
11702TIP3    H256598   1.635   1.841  11.626 -1.8302 -0.2265  0.7563
11703TIP3   OH256599   0.125   4.956  12.943  0.2506  0.2420  0.1080
11703TIP3    H156600   0.186   4.980  12.873  0.4267 -3.0042 -1.0158
11703TIP3    H256601   0.176   4.900  13.001 -0.7070  0.4919  1.2272
11704TIP3   OH256602   0.726   3.000  12.751  0.7381  0.2354 -0.1380
11704TIP3    H156603   0.777   2.925  12.721  1.0969  1.2658 -2.3333
11704TIP3    H256604   0.640   2.988  12.710 -0.6031 -1.0003  2.7772
11705TIP3   OH256605   2.112   6.611  16.518 -0.3015 -0.7468  0.1071
11705TIP3    H156606   2.078   6.521  16.526  0.7416 -1.0609  1.4655
11705TIP3    H256607   2.101   6.648  16.606  0.4404  0.0167 -0.1147
11706TIP3   OH256608   1.804   0.063  14.517 -0.3031 -0.7231  0.3493
11706TIP3    H156609   1.741   0.124  14.557  0.3933 -0.6261  1.3414
11706TIP3    H256610   1.888   0.106  14.527  0.1585 -1.6875  0.7573
11707TIP3   OH256611   0.274   5.948   0.857  0.0396 -0.4073  0.0231
11707TIP3    H156612   0.287   5.953   0.762  0.6738  2.7496  0.1512
11707TIP3    H256613   0.335   5.880   0.886 -1.2654 -2.5574 -1.9193
11708TIP3   OH256614   5.923   2.152   1.060  0.1876  0.1195 -0.0347
11708TIP3    H156615   5.886   2.204   1.131 -0.6355  1.1950 -1.1998
11708TIP3    H256616   5.882   2.066   1.070  0.5364  0.0746  1.1256
11709TIP3   OH256617   1.502   4.408   4.662 -0.1096 -0.1349  0.2871
11709TIP3    H156618   1.410   4.400   4.688  0.0624 -0.7505  0.7342
11709TIP3    H256619   1.551   4.383   4.740  0.4599  0.9486  0.2976
11710TIP3   OH256620   4.050   0.913  15.287 -0.4910 -0.2560 -0.2767
11710TIP3    H156621   4.126   0.862  15.260 -1.2249 -0.2121 -2.6635
11710TIP3    H256622   3.994   0.916  15.209 -2.8869 -0.1661  1.3494
11711TIP3   OH256623   3.013   6.818  13.213 -0.1803  0.6554 -0.5508
11711TIP3    H156624   3.103   6.850  13.224 -0.7200  1.9869  0.1929
11711TIP3    H256625   2.962   6.869  13.276 -1.3844 -0.4585 -0.5927
11712TIP3   OH256626   3.580   2.823   4.865  0.1391 -0.6164 -0.2109
11712TIP3    H156627   3.551   2.900   4.915 -1.0475 -2.1073  1.5059
11712TIP3    H256628   3.665   2.849   4.828 -0.1063  1.4106  0.5271
11713TIP3   OH256629   3.063   0.612   4.923 -0.5946 -0.4604  0.5823
11713TIP3    H156630   2.981   0.565   4.939 -1.2572  0.5581  0.2954
11713TIP3    H256631   3.035   0.701   4.901  0.4520 -0.6611 -1.9152
11714TIP3   OH256632   3.497   0.722  10.895  0.3738  0.0258 -0.3970
11714TIP3    H156633   3.568   0.754  10.840  0.2398  2.3652  0.6484
11714TIP3    H256634   3.528   0.738  10.985 -0.6563 -0.8060  0.1257
11715TIP3   OH256635   1.713   5.597   0.743  0.4604 -0.0726  0.3076
11715TIP3    H156636   1.762   5.599   0.661  0.6703 -0.3483  0.4250
11715TIP3    H256637   1.747   5.521   0.790 -0.4565 -0.5774  0.1658
11716TIP3   OH256638   1.100   2.776  15.461  0.0728 -0.2249 -0.1431
11716TIP3    H156639   1.124   2.783  15.368  2.1487  0.8211  0.4274
11716TIP3    H256640   1.041   2.850  15.476  0.9921  0.5597 -0.2902
11717TIP3   OH256641   0.532   6.837   4.698 -0.0157  0.1534 -0.3130
11717TIP3    H156642   0.520   6.755   4.651  0.4243  0.8847 -1.7861
11717TIP3    H256643   0.501   6.904   4.637  0.8994  1.1845  0.3110
11718TIP3   OH256644   1.653   1.483   3.932 -0.2359  0.2019 -0.0594
11718TIP3    H156645   1.743   1.507   3.908  0.1527 -0.9753  0.1605
11718TIP3    H256646   1.627   1.421   3.864  0.1790 -1.6925  1.4278
11719TIP3   OH256647   2.702   3.692  13.450 -0.2303 -0.8728 -0.3770
11719TIP3    H156648   2.753   3.633  13.394  0.2024 -0.8389 -0.0268
11719TIP3    H256649   2.688   3.641  13.530 -0.1300 -0.6169 -0.1967
11720TIP3   OH256650   2.967   5.846  12.895  0.2216 -0.7597 -0.3880
11720TIP3    H156651   2.929   5.872  12.811 -1.0962 -2.2614 -0.3042
11720TIP3    H256652   2.905   5.880  12.960  0.1756 -1.3146 -0.1352
11721TIP3   OH256653   1.226   4.853   2.453  0.1368 -0.1038 -0.5538
11721TIP3    H156654   1.305   4.902   2.429  0.2256 -1.1826 -2.7372
11721TIP3    H256655   1.257   4.785   2.513  0.9756 -0.7430 -1.6758
11722TIP3   OH256656   4.038   4.724   5.297 -0.0644 -0.0963  0.1196
11722TIP3    H156657   4.056   4.679   5.214  0.1684  2.3000 -1.2250
11722TIP3    H256658   4.075   4.666   5.364 -0.0395 -1.9971 -1.4365
11723TIP3   OH256659   1.585   1.695  15.149  0.1116  0.2779  0.1062
11723TIP3    H156660   1.637   1.621  15.180  1.6529  1.0319 -0.6005
11723TIP3    H256661   1.552   1.737  15.229  1.1810  0.1960  0.6092
11724TIP3   OH256662   0.654   4.777   0.752 -0.3187 -0.3043 -0.2640
11724TIP3    H156663   0.618   4.776   0.841 -0.0009  0.9191 -0.0994
11724TIP3    H256664   0.725   4.842   0.755 -0.6503  0.1621 -1.5276
11725TIP3   OH256665   3.690   3.176   4.363 -0.5937  0.0601 -0.1640
11725TIP3    H156666   3.720   3.174   4.454 -0.7399 -0.5584 -0.1253
11725TIP3    H256667   3.600   3.206   4.368 -0.4083  0.6243 -0.1616
11726TIP3   OH256668   5.824   4.811  15.454 -0.0822 -0.3289 -0.3257
11726TIP3    H156669   5.848   4.817  15.547  0.2524 -0.5095 -0.3990
11726TIP3    H256670   5.728   4.810  15.455 -0.1613  2.1072 -0.1417
11727TIP3   OH256671   2.306   1.459   0.453  0.0851 -0.2448 -0.1844
11727TIP3    H156672   2.269   1.442   0.540 -0.0707  0.9789  0.0132
11727TIP3    H256673   2.331   1.373   0.420 -1.4740 -0.9373  0.3433
11728TIP3   OH256674   0.215   1.066   1.688  0.2264  0.2210  0.5808
11728TIP3    H156675   0.139   1.028   1.645  1.8957 -0.9658 -1.5518
11728TIP3    H256676   0.237   1.004   1.758  0.6716 -0.8499 -0.4490
11729TIP3   OH256677   4.203   1.953  10.162  0.0607 -0.1152 -0.1252
11729TIP3    H156678   4.173   1.919  10.246 -2.2381  0.8603 -0.4628
11729TIP3    H256679   4.293   1.981  10.177  0.4088 -1.9199  1.4042
11730TIP3   OH256680   5.366   6.029   4.996 -0.1263  0.0590 -0.2570
11730TIP3    H156681   5.288   5.976   5.012 -0.7550  1.3548  1.1902
11730TIP3    H256682   5.340   6.090   4.927 -1.0650  1.7097  1.4721
11731TIP3   OH256683   1.182   5.661  13.014 -0.0319 -0.1105  0.2589
11731TIP3    H156684   1.237   5.739  13.006 -2.3850  2.0925  3.2185
11731TIP3    H256685   1.111   5.675  12.951 -0.2219 -0.0859  0.4771
11732TIP3   OH256686   2.476   1.258   0.371  0.2219  0.2332  0.0898
11732TIP3    H156687   2.544   1.317   0.339 -0.5652  2.0276  1.5774
11732TIP3    H256688   2.498   1.242   0.463 -1.0075  0.3787  0.4391
11733TIP3   OH256689   5.024   1.658  16.857  0.3883 -0.2055  0.2345
11733TIP3    H156690   4.961   1.589  16.834 -1.7046  1.2016  1.4421
11733TIP3    H256691   5.032   1.710  16.777  1.9527 -1.7189 -0.6725
11734TIP3   OH256692   5.588   3.219   4.673 -0.6475  0.2745 -0.0062
11734TIP3    H156693   5.634   3.287   4.723 -2.3122  1.5721 -0.1554
11734TIP3    H256694   5.568   3.260   4.589  0.7727 -1.3850 -1.2307
11735TIP3   OH256695   1.766   4.428  14.228  0.6395  0.6612 -0.4995
11735TIP3    H156696   1.729   4.511  14.258 -2.5784 -0.7585 -0.0865
11735TIP3    H256697   1.690   4.376  14.201  2.0410 -3.3057  2.1756
11736TIP3   OH256698   3.685   0.369   1.133  0.3214  0.0745  0.1680
11736TIP3    H156699   3.604   0.367   1.185  0.4723  1.5464  0.4876
11736TIP3    H256700   3.695   0.279   1.102 -1.3968 -0.1563  0.1813
11737TIP3   OH256701   6.345   5.028   3.780 -0.2530  0.2025 -0.1801
11737TIP3    H156702   6.262   5.002   3.820 -1.0031  1.3779 -0.9240
11737TIP3    H256703   6.371   4.953   3.726 -0.9360 -0.0785 -0.1198
11738TIP3   OH256704   4.789   6.129   1.267  0.0533  0.1721 -0.5940
11738TIP3    H156705   4.722   6.095   1.327  1.2193 -1.2687 -0.0516
11738TIP3    H256706   4.872   6.101   1.306  1.0173  2.3080 -1.0063
11739TIP3   OH256707   5.074   6.400   2.418  0.6044 -0.3496 -0.0697
11739TIP3    H156708   5.101   6.308   2.411 -0.6866 -0.6245 -2.2523
11739TIP3    H256709   5.120   6.444   2.347  1.4755  0.8197  1.1635
11740TIP3   OH256710   6.640   1.946  12.202 -0.4172  0.3038  0.4570
11740TIP3    H156711   6.613   2.028  12.160  0.0412 -0.2638 -1.0163
11740TIP3    H256712   6.592   1.878  12.155  0.7074 -0.4139  0.2987
11741TIP3   OH256713   2.892   2.252  13.944 -0.3409 -0.1184  0.4764
11741TIP3    H156714   2.899   2.167  13.901 -1.3315 -1.0221  1.9788
11741TIP3    H256715   2.982   2.277  13.965 -0.1271 -1.6510  1.5266
11742TIP3   OH256716   4.706   0.447   4.350  0.3711  0.5831 -0.2622
11742TIP3    H156717   4.766   0.419   4.281  2.8564 -0.5025  2.1330
11742TIP3    H256718   4.745   0.527   4.385  0.1393  0.1604  0.9957
11743TIP3   OH256719   4.492   0.189  16.600  0.1570  0.3682  0.0700
11743TIP3    H156720   4.444   0.205  16.519  0.2230 -1.9157 -0.4824
11743TIP3    H256721   4.425   0.164  16.663  0.4503 -2.4966 -0.6156
11744TIP3   OH256722   0.017   6.343  13.912  0.2737 -0.1572  0.0768
11744TIP3    H156723  -0.062   6.397  13.916  0.6469  0.3183  2.1168
11744TIP3    H256724   0.046   6.349  13.821 -0.5941  1.7552 -0.1124
11745TIP3   OH256725   5.556   2.983   4.049  0.0181 -0.0474  1.0403
11745TIP3    H156726   5.570   3.051   4.115 -0.6789  0.1127  1.0236
11745TIP3    H256727   5.507   3.027   3.979  0.8269 -0.1899  0.3670
11746TIP3   OH256728   3.459   3.676  11.188 -0.2038  0.1657  0.0618
11746TIP3    H156729   3.521   3.747  11.202  1.0254 -0.9954  0.7045
11746TIP3    H256730   3.453   3.669  11.092  1.2746 -0.1880 -0.0360
11747TIP3   OH256731   5.474   6.084  13.368  0.3311 -0.4350 -0.2263
11747TIP3    H156732   5.515   6.059  13.451 -2.4926 -0.1842  1.3659
11747TIP3    H256733   5.425   6.007  13.341 -1.6641  0.6104  0.2773
11748TIP3   OH256734   3.163   4.992   4.672  0.1880 -0.1141  0.0774
11748TIP3    H156735   3.114   4.916   4.640  0.4858 -0.0945 -0.4275
11748TIP3    H256736   3.188   5.040   4.593 -1.0287  1.1678  0.4211
11749TIP3   OH256737   2.882   0.192   2.536  0.5733  0.0379  0.5671
11749TIP3    H156738   2.941   0.191   2.612  0.0094 -2.6463  1.0722
11749TIP3    H256739   2.930   0.144   2.469 -0.0848 -0.1086  0.1981
11750TIP3   OH256740   3.557   4.277   1.927 -0.1020 -0.4700  0.4001
11750TIP3    H156741   3.616   4.346   1.896 -2.5082  1.9013  0.7385
11750TIP3    H256742   3.605   4.196   1.911  2.4272  1.1664 -1.0852
11751TIP3   OH256743   1.759   2.177  11.640  0.1022 -0.6016  0.3183
11751TIP3    H156744   1.807   2.217  11.568  3.1351 -3.2570  0.6729
11751TIP3    H256745   1.668   2.175  11.610  0.5534  2.0854 -1.5879
11752TIP3   OH256746   2.582   5.412  14.850 -0.5150  0.4320  1.0279
11752TIP3    H156747   2.499   5.456  14.867 -0.5386 -0.4893  3.7174
11752TIP3    H256748   2.649   5.478  14.870 -0.5473  0.7571  0.1367
11753TIP3   OH256749   5.297   6.252   0.483 -0.8133 -0.2648 -0.0745
11753TIP3    H156750   5.240   6.275   0.409  0.5111 -1.9668 -1.7321
11753TIP3    H256751   5.324   6.336   0.519 -0.5306  0.7141 -2.3501
11754TIP3   OH256752   1.464   5.304  13.051 -0.0099  0.6566  0.0946
11754TIP3    H156753   1.531   5.372  13.053 -0.2765  0.9030  1.1141
11754TIP3    H256754   1.391   5.343  13.003  0.0122  0.9282  0.2813
11755TIP3   OH256755   1.556   6.784  10.452 -0.4126 -0.0682  0.5682
11755TIP3    H156756   1.468   6.821  10.450  0.4076  2.0888 -2.4626
11755TIP3    H256757   1.604   6.840  10.513 -0.8937 -0.7795  1.6348
11756TIP3   OH256758   5.047   6.542   0.074  0.3835  0.0041 -0.1268
11756TIP3    H156759   5.083   6.505  -0.007  2.4092  0.3014  0.5677
11756TIP3    H256760   4.984   6.476   0.104  0.1601 -0.4686 -1.5291
11757TIP3   OH256761   4.189   6.149   6.195  0.3910 -0.0365  0.1352
11757TIP3    H156762   4.132   6.222   6.218 -2.8098 -2.4987  0.7776
11757TIP3    H256763   4.222   6.170   6.107  0.7595  2.7141  0.8490
11758TIP3   OH256764   2.725   5.145  13.222  0.0715 -0.8309  0.1844
11758TIP3    H156765   2.637   5.147  13.185 -0.8107 -1.7372  2.0821
11758TIP3    H256766   2.758   5.058  13.201 -0.1473 -1.0872  0.8909
11759TIP3   OH256767   6.172   0.126  10.608 -0.2894 -0.2537 -0.2185
11759TIP3    H156768   6.144   0.216  10.592  0.6228  0.7904  3.2206
11759TIP3    H256769   6.093   0.074  10.597 -1.3100  1.2350 -0.2401
11760TIP3   OH256770   2.291   3.349   6.432  0.9041 -0.0762 -0.0286
11760TIP3    H156771   2.287   3.434   6.474  1.8326  0.3914 -0.8419
11760TIP3    H256772   2.201   3.316   6.435  1.1043 -0.6101  3.3089
11761TIP3   OH256773   2.742   4.559  15.918 -0.1458  0.0379 -0.1198
11761TIP3    H156774   2.698   4.530  15.838 -0.7522  1.0187 -0.1684
11761TIP3    H256775   2.773   4.479  15.959  1.4235 -0.4105 -2.0198
11762TIP3   OH256776   6.111   6.043  13.321  0.1965 -0.5813  0.5767
11762TIP3    H156777   6.083   5.970  13.376 -0.1343 -0.7155  0.2292
11762TIP3    H256778   6.199   6.018  13.292 -0.5365 -1.5893 -0.8396
11763TIP3   OH256779   2.223   5.735   4.052  0.1974 -0.0152  0.4448
11763TIP3    H156780   2.194   5.756   4.141  0.6957 -0.5678  0.7397
11763TIP3    H256781   2.206   5.815   4.002 -2.2608 -0.4317  0.4857
11764TIP3   OH256782   4.748   6.243  15.479  0.2317  0.1675  0.4990
11764TIP3    H156783   4.774   6.269  15.567 -1.5280 -2.0522  1.8074
11764TIP3    H256784   4.659   6.278  15.468  0.9217  1.5978 -1.0153
11765TIP3   OH256785   1.486   1.702   4.997 -0.3448 -0.4914  0.2020
11765TIP3    H156786   1.406   1.723   5.044 -1.0580 -0.3962 -1.0196
11765TIP3    H256787   1.511   1.615   5.029 -0.4496 -0.1495  1.2242
11766TIP3   OH256788   2.840   3.826   1.000  0.2449  0.1700 -0.4743
11766TIP3    H156789   2.803   3.763   0.937  0.7936  0.1292 -0.7618
11766TIP3    H256790   2.767   3.884   1.021 -0.4957 -1.0233  0.4024
11767TIP3   OH256791   2.814   6.569  16.062  0.2193 -0.0732 -0.0486
11767TIP3    H156792   2.821   6.632  16.134  1.0724  1.3536 -1.3090
11767TIP3    H256793   2.720   6.557  16.050  0.0594 -0.5973  1.4915
11768TIP3   OH256794   4.210   6.477   4.618  0.9090  0.3304 -1.1564
11768TIP3    H156795   4.163   6.453   4.698  1.8160  0.2195 -0.6354
11768TIP3    H256796   4.253   6.560   4.641  0.5331  0.7087 -1.8032
11769TIP3   OH256797   2.001   5.980   1.072 -0.2468 -0.5447  0.3964
11769TIP3    H156798   1.925   5.953   1.123 -1.1638 -0.7597 -1.0436
11769TIP3    H256799   2.003   6.075   1.080 -1.6250 -0.3871 -0.8281
11770TIP3   OH256800   2.685   6.495   5.424 -0.7452  0.4976 -0.5917
11770TIP3    H156801   2.660   6.492   5.516  1.4370  0.4272  0.0679
11770TIP3    H256802   2.671   6.586   5.398  0.1118  0.9002  0.3007
11771TIP3   OH256803   3.384   5.811  14.204 -0.0957  0.4013 -0.5068
11771TIP3    H156804   3.477   5.827  14.215 -0.5311  1.5110  2.2432
11771TIP3    H256805   3.368   5.728  14.248 -0.0050 -1.4623 -3.6645
11772TIP3   OH256806   1.425   4.124   4.397 -0.5125 -0.0948  0.1960
11772TIP3    H156807   1.468   4.078   4.325 -0.6343 -1.5740  1.0077
11772TIP3    H256808   1.471   4.207   4.404 -1.5310  0.7847 -2.5767
11773TIP3   OH256809   2.639   1.510   6.511 -0.4018  0.0473  0.2439
11773TIP3    H156810   2.686   1.434   6.545 -1.7039 -1.6760 -1.5842
11773TIP3    H256811   2.704   1.581   6.512  1.1785 -1.3504  1.0021
11774TIP3   OH256812   4.130   1.116  14.473 -0.5217 -0.4348 -0.2069
11774TIP3    H156813   4.051   1.097  14.422 -0.5321 -0.9935  0.0108
11774TIP3    H256814   4.173   1.186  14.425 -2.0550  1.1516  0.6085
11775TIP3   OH256815   2.926   0.308  13.082  0.0172  0.0406  0.1043
11775TIP3    H156816   2.978   0.301  13.161  0.2776 -2.8617 -0.2187
11775TIP3    H256817   2.858   0.241  13.092  0.9813 -1.5332 -2.6947
11776TIP3   OH256818   4.531   5.564  13.965 -0.4953 -0.0087 -0.8288
11776TIP3    H156819   4.492   5.529  13.885  1.4192 -0.4300 -1.6353
11776TIP3    H256820   4.534   5.490  14.025  0.9724 -0.5546 -1.5345
11777TIP3   OH256821   6.651   1.556   0.690  0.4668 -0.7433 -0.5460
11777TIP3    H156822   6.675   1.495   0.619  3.5174 -0.4605  0.0894
11777TIP3    H256823   6.664   1.643   0.652  2.3375 -0.5894  0.3163
11778TIP3   OH256824   1.346   2.482  14.108 -0.1431  0.1915 -0.3854
11778TIP3    H156825   1.408   2.555  14.102 -1.7971  1.7331  0.3107
11778TIP3    H256826   1.318   2.467  14.017 -0.4783  1.0923 -0.4451
11779TIP3   OH256827   0.219   4.910   0.163 -0.0263  0.2508  0.6004
11779TIP3    H156828   0.152   4.959   0.210 -0.3553 -0.0678  0.4763
11779TIP3    H256829   0.225   4.826   0.210  0.3435  0.3078  0.6587
11780TIP3   OH256830   4.155   0.628   0.209  0.4247 -0.4490 -0.3085
11780TIP3    H156831   4.239   0.616   0.166  0.2713 -0.3605 -0.6356
11780TIP3    H256832   4.123   0.539   0.225  0.4836 -0.4816 -0.3753
11781TIP3   OH256833   0.066   2.636  12.152 -0.2635  0.1898 -0.3716
11781TIP3    H156834  -0.020   2.676  12.164 -0.0814  0.4080  0.2893
11781TIP3    H256835   0.107   2.686  12.082 -1.3425 -1.0501 -1.9667
11782TIP3   OH256836   2.313   0.673  11.233  0.1538 -0.2585  0.3534
11782TIP3    H156837   2.266   0.649  11.153 -0.6488  0.7727  0.4895
11782TIP3    H256838   2.405   0.662  11.211  0.0296  1.2778 -1.1981
11783TIP3   OH256839   4.292   6.840  15.384  0.0507  0.4023  0.1176
11783TIP3    H156840   4.315   6.760  15.431  0.5376  0.0576 -0.7030
11783TIP3    H256841   4.261   6.811  15.299  0.7105  1.1098 -0.3804
11784TIP3   OH256842   0.904   2.139  12.900 -0.1991 -0.5956 -0.4316
11784TIP3    H156843   0.853   2.069  12.941  0.1522 -0.0192  1.0597
11784TIP3    H256844   0.995   2.109  12.907  0.0604  0.4508  1.2239
11785TIP3   OH256845   1.839   1.854  11.102  0.5689  0.9425  0.4295
11785TIP3    H156846   1.919   1.801  11.113  0.7503  1.0210 -0.3966
11785TIP3    H256847   1.816   1.881  11.190  0.4597 -0.5356  0.8880
11786TIP3   OH256848   0.969   2.690   2.017 -0.2347 -0.3914 -0.3595
11786TIP3    H156849   0.881   2.703   2.050 -0.4173 -1.6788 -0.2840
11786TIP3    H256850   0.956   2.649   1.931  0.2775 -1.4132  0.0310
11787TIP3   OH256851   1.410   1.945  15.554  0.6992 -0.3102  0.5973
11787TIP3    H156852   1.455   1.960  15.637  0.3750 -1.4075  0.9851
11787TIP3    H256853   1.480   1.947  15.488  0.7456  2.2874  0.6485
11788TIP3   OH256854   0.355   5.175   6.192 -0.1872  0.0087 -0.4193
11788TIP3    H156855   0.276   5.200   6.241 -0.8869 -1.3590 -0.7972
11788TIP3    H256856   0.355   5.234   6.116 -1.7375 -0.9764 -1.2376
11789TIP3   OH256857   4.151   5.344   1.085 -0.2250  0.4366  0.4633
11789TIP3    H156858   4.134   5.437   1.067 -1.2052  0.4278  1.2928
11789TIP3    H256859   4.153   5.338   1.181  1.2380 -0.1669  0.4275
11790TIP3   OH256860   5.839   2.081  15.833 -0.4417 -0.1461  0.2522
11790TIP3    H156861   5.771   2.039  15.886 -1.4874  1.2545  0.0894
11790TIP3    H256862   5.919   2.033  15.853 -0.9880 -0.2763  2.3787
11791TIP3   OH256863   0.614   4.731   3.286  0.1815  0.0530  0.0408
11791TIP3    H156864   0.542   4.792   3.271  0.2839  0.0794 -0.3535
11791TIP3    H256865   0.691   4.788   3.297 -0.4183  0.3524  4.6486
11792TIP3   OH256866   1.377   6.823   1.304  0.4300 -0.1175 -0.1565
11792TIP3    H156867   1.459   6.821   1.355 -0.5027 -1.5704  1.4040
11792TIP3    H256868   1.328   6.896   1.342  0.5635  0.0777 -0.3587
11793TIP3   OH256869   1.279   6.665  12.667  0.4482  0.4250 -0.4447
11793TIP3    H156870   1.347   6.685  12.603 -0.1878  1.2047 -0.9002
11793TIP3    H256871   1.316   6.692  12.751  0.2628  2.0073 -0.8420
11794TIP3   OH256872   4.466   3.739   0.549  0.4740 -0.2316 -0.3993
11794TIP3    H156873   4.402   3.700   0.489  0.9290 -0.2885 -0.8526
11794TIP3    H256874   4.542   3.758   0.494  0.6475  0.3367  0.0250
11795TIP3   OH256875   2.299   3.492   2.254 -0.0773 -0.2160 -0.6371
11795TIP3    H156876   2.211   3.464   2.278  0.7121 -1.9593  0.3811
11795TIP3    H256877   2.345   3.412   2.229  1.4140  0.5686 -0.5584
11796TIP3   OH256878   5.078   2.807  14.180  0.0397  0.1571 -0.3331
11796TIP3    H156879   5.138   2.801  14.255  0.1961 -0.8112 -0.5195
11796TIP3    H256880   4.991   2.806  14.219  0.1259 -0.1082 -0.1419
11797TIP3   OH256881   5.269   3.798  12.544  0.2066  0.0895 -0.2574
11797TIP3    H156882   5.212   3.865  12.581  2.0227  2.2105 -1.0508
11797TIP3    H256883   5.357   3.826  12.569  1.0405 -2.0308 -0.6529
11798TIP3   OH256884   2.126   6.023   2.417 -0.2982 -0.1226  0.1177
11798TIP3    H156885   2.052   5.986   2.368  0.5412  1.5203 -2.6187
11798TIP3    H256886   2.096   6.109   2.445  0.6147  0.7080 -1.3284
11799TIP3   OH256887   0.125   2.343   0.555  0.1236  0.6423  0.3675
11799TIP3    H156888   0.105   2.401   0.482 -1.2075 -1.7541 -1.2727
11799TIP3    H256889   0.079   2.382   0.630  0.3163  2.3332 -0.3435
11800TIP3   OH256890   6.641   3.985  10.822  0.0418  0.5511 -0.2760
11800TIP3    H156891   6.546   3.980  10.833  0.1566  1.2034  1.2990
11800TIP3    H256892   6.653   4.004  10.729 -1.4900  2.5793 -0.1330
11801TIP3   OH256893   0.694   4.957  11.260  0.3436 -0.1708  0.5622
11801TIP3    H156894   0.777   4.916  11.235 -0.0248 -0.2785 -0.5312
11801TIP3    H256895   0.684   4.936  11.353  0.7112 -1.6186  0.3057
11802TIP3   OH256896   5.757   6.853  13.744 -0.2312 -0.1126 -0.6537
11802TIP3    H156897   5.776   6.768  13.784  0.3115 -0.0721 -0.8213
11802TIP3    H256898   5.693   6.894  13.803  0.2677 -0.2109 -0.0383
11803TIP3   OH256899   4.216   6.344   0.619  0.3025  0.1279 -0.6154
11803TIP3    H156900   4.180   6.433   0.619 -0.3684 -0.0928  1.5754
11803TIP3    H256901   4.143   6.288   0.645  1.1602 -0.8492 -0.2104
11804TIP3   OH256902   5.491   1.971  14.820  0.2671 -0.2018 -0.7136
11804TIP3    H156903   5.481   2.025  14.899  0.3577 -0.1333 -0.7490
11804TIP3    H256904   5.534   1.892  14.852  1.5757  0.3965 -0.9140
11805TIP3   OH256905   2.448   1.711  11.713  0.4606 -0.5113 -0.0137
11805TIP3    H156906   2.474   1.619  11.703 -0.9873 -0.9160 -0.3352
11805TIP3    H256907   2.484   1.755  11.637 -0.8358 -1.3056 -1.1285
11806TIP3   OH256908   5.246   2.862   6.241  0.1716  0.2254 -0.3195
11806TIP3    H156909   5.312   2.931   6.245  1.0846 -0.6382 -0.0386
11806TIP3    H256910   5.191   2.886   6.167  0.9260  0.8544 -0.6928
11807TIP3   OH256911   1.636   3.115   6.090 -0.0588 -0.5410 -0.3684
11807TIP3    H156912   1.617   3.140   6.180  1.2038  0.4805 -0.3582
11807TIP3    H256913   1.688   3.187   6.055  0.6906 -1.5639 -1.4621
11808TIP3   OH256914   5.646   1.914  16.857  0.2469 -0.3585  0.0776
11808TIP3    H156915   5.600   1.980  16.909 -0.2379 -1.0341  0.5091
11808TIP3    H256916   5.717   1.884  16.914  1.4315  0.8590 -0.6709
11809TIP3   OH256917   5.899   5.825   3.084 -0.2631  0.3189 -0.2345
11809TIP3    H156918   5.929   5.800   2.996  1.2061  0.6097  0.1539
11809TIP3    H256919   5.821   5.772   3.098 -1.4305  1.3549 -2.3003
11810TIP3   OH256920   2.783   5.712   1.832  0.3449  0.1452 -0.0028
11810TIP3    H156921   2.813   5.717   1.923 -1.1219 -0.6766  0.5525
11810TIP3    H256922   2.747   5.799   1.814  1.2883  0.5339 -0.0466
11811TIP3   OH256923   3.250   0.798  12.399 -0.2909 -0.3894 -0.5606
11811TIP3    H156924   3.289   0.817  12.484 -1.9653 -0.8656  0.3483
11811TIP3    H256925   3.212   0.711  12.408 -4.1142  1.1031 -0.3438
11812TIP3   OH256926   3.049   3.382  13.623  0.0631  0.2006 -0.1293
11812TIP3    H156927   3.045   3.323  13.547 -2.1593 -0.3046  0.3077
11812TIP3    H256928   3.142   3.397  13.637  0.5655 -0.6709 -2.2071
11813TIP3   OH256929   3.806   2.685   1.869 -0.1607 -0.1235  0.2000
11813TIP3    H156930   3.824   2.762   1.923 -0.1579 -0.0547  0.0996
11813TIP3    H256931   3.763   2.719   1.791  2.7949  0.1678 -1.4182
11814TIP3   OH256932   2.486   1.082  11.725 -0.1125  0.2996  0.0608
11814TIP3    H156933   2.492   1.161  11.672 -0.2947  1.7052  2.0253
11814TIP3    H256934   2.471   1.012  11.662  0.9534  1.6747 -1.8360
11815TIP3   OH256935   3.765   3.576   0.799  0.1605  1.0342 -0.2336
11815TIP3    H156936   3.772   3.487   0.765 -1.3190  1.0744 -0.7128
11815TIP3    H256937   3.691   3.572   0.860  1.3577  1.4814  1.3196
11816TIP3   OH256938   6.617   3.729   3.478 -0.1034 -0.4664 -0.4227
11816TIP3    H156939   6.686   3.792   3.498  0.5735 -0.3333 -2.8070
11816TIP3    H256940   6.575   3.711   3.562  0.4799  2.1937  0.5273
11817TIP3   OH256941   3.661   2.304   6.212 -0.4550  0.2259  0.6419
11817TIP3    H156942   3.597   2.371   6.187  0.2218 -0.0979 -2.3659
11817TIP3    H256943   3.607   2.231   6.243 -1.4311  0.7667  0.2728
11818TIP3   OH256944   1.354   4.032  12.050 -0.0413 -1.0064 -0.1912
11818TIP3    H156945   1.348   3.937  12.039 -0.1204 -1.0683  0.3869
11818TIP3    H256946   1.400   4.044  12.132  0.0575 -0.5398 -0.3123
11819TIP3   OH256947   6.613   6.318  14.590  0.3966  0.2375 -0.1936
11819TIP3    H156948   6.547   6.256  14.621  1.1803 -0.3597  0.2966
11819TIP3    H256949   6.593   6.329  14.497 -0.2125 -0.1610 -0.1174
11820TIP3   OH256950   5.208   0.836  13.951  0.2845 -0.1408  0.1738
11820TIP3    H156951   5.194   0.915  13.899  1.2127  0.3549  0.6397
11820TIP3    H256952   5.139   0.839  14.017  1.0256  0.9667  0.9505
11821TIP3   OH256953   3.051   4.747   0.045  0.2032 -0.3089 -0.1432
11821TIP3    H156954   3.007   4.663   0.038  0.8918 -0.7281  0.4626
11821TIP3    H256955   2.982   4.807   0.074  0.3139 -1.2934  2.4511
11822TIP3   OH256956   2.125   4.502   2.823 -0.2975  0.3623 -0.2242
11822TIP3    H156957   2.077   4.550   2.890 -1.0442 -1.5426  0.6882
11822TIP3    H256958   2.057   4.454   2.776  0.5479 -1.1868  0.0819
11823TIP3   OH256959   6.776   6.830   1.215 -0.1150 -0.4463 -0.6302
11823TIP3    H156960   6.849   6.773   1.195 -0.0856 -0.5754 -0.1489
11823TIP3    H256961   6.809   6.892   1.280 -0.0592  0.3073 -1.3492
11824TIP3   OH256962   2.428   5.030   5.295 -0.4053 -0.2039  0.3719
11824TIP3    H156963   2.503   5.086   5.313  0.4562 -0.7835 -1.2350
11824TIP3    H256964   2.352   5.083   5.320  0.5055 -0.3040  3.8836
11825TIP3   OH256965   1.298   2.937   0.837 -0.0501  0.4194  0.2221
11825TIP3    H156966   1.251   2.901   0.913  0.1005 -0.2692 -0.0058
11825TIP3    H256967   1.390   2.922   0.857 -0.0716 -1.7945 -1.0639
11826TIP3   OH256968   0.347   6.018  15.104 -1.3832 -0.1072  0.1878
11826TIP3    H156969   0.425   6.010  15.050 -2.8725  0.3412 -2.1766
11826TIP3    H256970   0.318   5.928  15.119 -1.9258 -0.1920 -1.2944
11827TIP3   OH256971   0.960   2.629   2.353  0.7800  0.2813 -0.1682
11827TIP3    H156972   0.866   2.618   2.365  0.7246 -0.2119 -0.9641
11827TIP3    H256973   0.974   2.723   2.362  0.5118  0.1658  1.8342
11828TIP3   OH256974   0.552   2.595   4.386  0.1941  0.3131  0.6677
11828TIP3    H156975   0.551   2.561   4.476  0.2104  0.2499  0.6440
11828TIP3    H256976   0.644   2.616   4.369  0.0472  1.2985  1.0342
11829TIP3   OH256977   1.951   3.405   3.946  0.0469  0.2382 -0.1203
11829TIP3    H156978   1.978   3.319   3.978 -1.0580 -0.7537 -1.7333
11829TIP3    H256979   2.029   3.440   3.904  0.6291  0.2384  0.9203
11830TIP3   OH256980   2.254   3.485  15.402  0.4306  0.1074  0.2699
11830TIP3    H156981   2.303   3.563  15.377  2.2248 -1.0915 -0.1077
11830TIP3    H256982   2.197   3.467  15.327  1.3251  0.0214 -0.3948
11831TIP3   OH256983   1.520   1.326   4.759  0.0183 -0.2147  0.3624
11831TIP3    H156984   1.548   1.247   4.713 -1.3109 -0.1551 -0.6164
11831TIP3    H256985   1.500   1.389   4.690 -1.5309  0.0554  1.0099
11832TIP3   OH256986   1.453   6.230   3.683 -0.4883  0.1731 -0.2237
11832TIP3    H156987   1.548   6.239   3.675 -0.3417 -0.8869  0.1960
11832TIP3    H256988   1.433   6.146   3.642 -1.3523  0.7209 -0.9779
11833TIP3   OH256989   0.321   6.661  11.127  0.5762 -0.2920  0.7399
11833TIP3    H156990   0.400   6.637  11.078  1.5375 -1.4658  2.7042
11833TIP3    H256991   0.345   6.742  11.172  0.0975  0.1674  0.1896
11834TIP3   OH256992   2.153   6.301   2.549 -0.1070  0.5019  0.1245
11834TIP3    H156993   2.213   6.332   2.480  1.1531 -1.0420  0.4457
11834TIP3    H256994   2.067   6.303   2.508  0.3194  1.6731 -0.7683
11835TIP3   OH256995   6.230   0.778  15.632  0.4263 -0.9436 -0.0973
11835TIP3    H156996   6.217   0.787  15.726  0.7791 -0.0008 -0.1295
11835TIP3    H256997   6.147   0.806  15.594  1.1780  1.4459 -0.1531
11836TIP3   OH256998   4.206   4.312  13.781  0.7324 -0.4952 -0.1715
11836TIP3    H156999   4.280   4.278  13.831 -1.0117 -2.3637  1.3385
11836TIP3    H257000   4.197   4.251  13.708  1.0583  0.1185 -0.7347
11837TIP3   OH257001   4.767   3.477  13.923 -0.0989 -0.7558 -0.0624
11837TIP3    H157002   4.710   3.452  13.851  1.1078 -0.6468 -1.0874
11837TIP3    H257003   4.855   3.453  13.894  0.5750  0.5467  0.7965
11838TIP3   OH257004   2.301   0.390  12.888 -0.9636 -0.5387  0.0697
11838TIP3    H157005   2.347   0.391  12.972 -0.2562 -0.9269 -0.3001
11838TIP3    H257006   2.364   0.428  12.827 -1.1954 -0.9312 -0.4133
11839TIP3   OH257007   5.665   2.493  13.554 -0.0596 -0.2161 -0.5479
11839TIP3    H157008   5.749   2.479  13.510  0.0088  0.1874 -0.5500
11839TIP3    H257009   5.651   2.414  13.607 -0.4538 -1.0152 -1.7869
11840TIP3   OH257010   5.430   0.932  11.758  0.4535  0.4248  0.0844
11840TIP3    H157011   5.483   0.852  11.761  0.0840  0.2114  1.4291
11840TIP3    H257012   5.494   1.003  11.755  0.8041  0.1112  0.0895
11841TIP3   OH257013   2.628   4.394   0.242  0.3350 -0.0693  0.0635
11841TIP3    H157014   2.689   4.369   0.312  0.2606 -1.2957 -0.2942
11841TIP3    H257015   2.569   4.319   0.234  0.2165  0.1389 -1.1808
11842TIP3   OH257016   4.305   5.000  12.540 -0.2358  0.1131 -0.0147
11842TIP3    H157017   4.338   5.066  12.479  1.5629  0.3011  1.1169
11842TIP3    H257018   4.365   5.002  12.613 -0.3114 -2.5785  0.2159
11843TIP3   OH257019   4.544   4.497   0.834 -0.2684 -0.5732  0.1209
11843TIP3    H157020   4.526   4.404   0.844  1.0255 -0.9752 -1.0036
11843TIP3    H257021   4.615   4.514   0.897  0.2367 -0.6029 -0.4332
11844TIP3   OH257022   0.101   1.204  12.900 -0.2612  0.0789 -0.2331
11844TIP3    H157023   0.102   1.169  12.989 -0.6366  0.0226 -0.2520
11844TIP3    H257024   0.155   1.143  12.849 -0.7216 -0.3482 -0.2176
11845TIP3   OH257025   4.496   3.149   5.268  0.0179 -0.3348 -0.1121
11845TIP3    H157026   4.582   3.190   5.278  0.7904 -1.5722 -1.2833
11845TIP3    H257027   4.437   3.205   5.318  1.4148  0.8191  0.3280
11846TIP3   OH257028   5.840   1.666   3.209  0.2431 -0.4558  0.3850
11846TIP3    H157029   5.753   1.671   3.169  0.9071  1.3833 -0.9800
11846TIP3    H257030   5.867   1.575   3.197 -0.7191 -0.5953 -0.9118
11847TIP3   OH257031   4.787   0.699  16.571 -0.5396 -0.1897 -0.4689
11847TIP3    H157032   4.876   0.697  16.607 -0.6756 -0.4168 -0.1347
11847TIP3    H257033   4.788   0.772  16.509  0.0170 -0.4908 -0.8306
11848TIP3   OH257034   2.358   0.997   4.622  0.2778 -0.1693 -0.4191
11848TIP3    H157035   2.332   0.906   4.631  1.7877 -0.5275  0.6680
11848TIP3    H257036   2.421   1.011   4.692  1.1836  1.3037 -1.4735
11849TIP3   OH257037   1.691   2.558   0.781 -0.6135  0.6205  0.2865
11849TIP3    H157038   1.646   2.553   0.696  1.8046  0.6850 -1.1052
11849TIP3    H257039   1.670   2.475   0.824 -0.6662 -0.1007 -1.0710
11850TIP3   OH257040   6.351   5.065  16.614  0.0453  0.8643 -0.2075
11850TIP3    H157041   6.294   5.117  16.669 -0.3210 -0.3663  0.6070
11850TIP3    H257042   6.293   5.026  16.549 -0.0277 -0.1678  0.4538
11851TIP3   OH257043   6.550   2.475  15.614  0.5002 -0.3672 -0.2027
11851TIP3    H157044   6.578   2.471  15.706 -2.2216  1.5627  0.8426
11851TIP3    H257045   6.489   2.401  15.605 -0.7752  0.5934  0.2093
11852TIP3   OH257046   4.430   5.326  16.496  0.1457  0.2928 -0.0200
11852TIP3    H157047   4.390   5.405  16.459  2.6598  0.6512 -2.2597
11852TIP3    H257048   4.514   5.356  16.532 -0.4836 -0.7790  2.6094
11853TIP3   OH257049   5.554   4.459  15.996  0.5278 -0.5907 -0.2864
11853TIP3    H157050   5.534   4.494  16.083  0.6408 -1.5674  0.1466
11853TIP3    H257051   5.499   4.509  15.937 -0.4909 -0.7565  0.4923
11854TIP3   OH257052   2.176   3.488   3.466  0.0034  0.1989 -0.1064
11854TIP3    H157053   2.202   3.459   3.378  2.8717  0.2668  0.6163
11854TIP3    H257054   2.205   3.579   3.470  1.5686 -0.3191  1.4641
11855TIP3   OH257055   4.966   5.008   3.996  0.6253 -0.2972  0.7843
11855TIP3    H157056   4.911   5.051   4.061  0.8500 -2.4427  2.5475
11855TIP3    H257057   5.051   5.052   4.003 -0.1550  1.4493 -0.2514
11856TIP3   OH257058   2.921   3.233   4.309 -0.3116 -0.0413 -0.1190
11856TIP3    H157059   2.884   3.161   4.259 -0.2916 -0.3447  0.3009
11856TIP3    H257060   2.992   3.193   4.359 -2.4286 -0.4773  2.7648
11857TIP3   OH257061   5.607   6.288  16.373  0.4059 -0.2602  0.1930
11857TIP3    H157062   5.578   6.261  16.460 -1.5321  1.4788  0.1654
11857TIP3    H257063   5.562   6.229  16.313 -0.5924  0.3772  0.2890
11858TIP3   OH257064   0.635   2.884  13.352 -0.3828  0.7290 -0.7352
11858TIP3    H157065   0.658   2.903  13.261 -0.4675  0.6642 -0.7709
11858TIP3    H257066   0.559   2.826  13.346  1.3166 -1.6734 -0.6883
11859TIP3   OH257067   5.281   6.232   3.307  0.4619 -0.7347 -0.9226
11859TIP3    H157068   5.359   6.177   3.299  0.8643 -0.3161 -0.0483
11859TIP3    H257069   5.260   6.230   3.400 -0.7845 -1.1181 -1.1929
11860TIP3   OH257070   5.504   3.929  12.601  0.2615  0.5104  0.0316
11860TIP3    H157071   5.553   3.997  12.554  3.0832 -0.2306  1.6815
11860TIP3    H257072   5.495   3.964  12.689  0.6165 -0.6951  0.5599
11861TIP3   OH257073   0.787   4.553   2.221  0.0733  0.3026  0.2007
11861TIP3    H157074   0.785   4.501   2.302 -1.2190  2.0733  1.3919
11861TIP3    H257075   0.713   4.520   2.170  0.5442 -0.4312 -0.0252
11862TIP3   OH257076   0.860   1.963   5.100  0.6150  1.1089  0.3077
11862TIP3    H157077   0.946   1.958   5.141  1.8658 -0.0207 -2.1735
11862TIP3    H257078   0.869   2.033   5.035  0.0385  0.3260 -0.6486
11863TIP3   OH257079   5.909   0.813   0.527  0.2986 -0.3797  0.2858
11863TIP3    H157080   5.820   0.798   0.493 -0.2407  0.1659  1.4061
11863TIP3    H257081   5.895   0.857   0.611  1.6272 -0.7568  0.7173
11864TIP3   OH257082   5.903   4.867   2.808  0.3128 -0.0355  0.2220
11864TIP3    H157083   5.880   4.865   2.901  1.0595 -2.1829  0.4130
11864TIP3    H257084   5.897   4.776   2.780  3.5329 -0.0267 -0.9288
11865TIP3   OH257085   3.668   1.990  15.894 -0.0242  0.4326 -0.0991
11865TIP3    H157086   3.650   2.009  15.802 -0.9803  1.1819  0.2168
11865TIP3    H257087   3.684   2.076  15.934  2.5280 -0.0316  0.0541
11866TIP3   OH257088   4.890   5.455  16.401  0.1221 -0.2998  0.6692
11866TIP3    H157089   4.930   5.421  16.480 -1.8314 -0.7951  1.5208
11866TIP3    H257090   4.948   5.526  16.372  1.1316 -0.4378  2.2577
11867TIP3   OH257091   2.702   4.376   3.809 -0.7802  0.0523 -0.1237
11867TIP3    H157092   2.667   4.329   3.734 -3.6599  0.1396  1.0448
11867TIP3    H257093   2.714   4.466   3.777  0.0813 -0.3732 -1.0325
11868TIP3   OH257094   1.938   1.619   6.006 -0.4289  0.1121  0.0514
11868TIP3    H157095   1.922   1.710   6.030 -0.0580  0.3308 -0.5193
11868TIP3    H257096   1.999   1.587   6.072 -1.7517 -0.1965  1.1814
11869TIP3   OH257097   4.647   4.540  10.647 -0.3918 -0.4677 -0.0741
11869TIP3    H157098   4.707   4.614  10.631 -2.2647  1.0854 -0.2172
11869TIP3    H257099   4.598   4.565  10.725  0.4894 -2.6612  1.2739
11870TIP3   OH257100   1.855   2.097   3.542  0.1042  0.1021 -0.2768
11870TIP3    H157101   1.767   2.085   3.506 -0.3993  1.0604  0.5775
11870TIP3    H257102   1.872   2.191   3.534  0.3816  0.1830  1.0038
11871TIP3   OH257103   4.442   1.045  14.337  0.8062  0.8954 -0.0941
11871TIP3    H157104   4.445   1.139  14.356 -0.8347  0.9902 -0.1548
11871TIP3    H257105   4.521   1.028  14.286 -0.1394  2.7757 -2.3132
11872TIP3   OH257106   4.592   2.806  13.430 -0.3773  0.4081 -0.6600
11872TIP3    H157107   4.618   2.894  13.404  1.4198 -0.2816 -1.3935
11872TIP3    H257108   4.513   2.789  13.380  0.8562  0.5801 -2.8134
11873TIP3   OH257109   2.946   3.776   6.116  0.3507  0.1920  0.0752
11873TIP3    H157110   3.039   3.782   6.134  0.2012  1.0470  0.6217
11873TIP3    H257111   2.910   3.726   6.189  0.3941 -0.2718 -0.2146
11874TIP3   OH257112   1.266   1.345  13.023 -0.1916  0.6213  0.3656
11874TIP3    H157113   1.181   1.318  13.056 -0.0455  1.1980  1.2410
11874TIP3    H257114   1.309   1.263  12.998 -0.4516  0.1960  1.2752
11875TIP3   OH257115   3.761   2.812  16.358 -0.3457  0.3255 -0.5653
11875TIP3    H157116   3.794   2.768  16.437 -0.0032 -0.7096 -1.2624
11875TIP3    H257117   3.777   2.750  16.288 -2.4095  0.4137 -1.1883
11876TIP3   OH257118   5.700   5.800   0.879 -0.3854 -0.3348 -0.4290
11876TIP3    H157119   5.633   5.813   0.813 -0.8074 -1.2450 -0.1872
11876TIP3    H257120   5.652   5.773   0.958 -0.0236  1.8843  0.6284
11877TIP3   OH257121   0.071   3.598   5.068 -0.1663  0.1072 -0.5936
11877TIP3    H157122   0.087   3.510   5.101  1.9428 -0.2785 -2.3891
11877TIP3    H257123   0.127   3.654   5.122 -0.4820  0.1565 -0.3189
11878TIP3   OH257124   5.646   5.725   1.159 -0.0637  0.3487 -0.2153
11878TIP3    H157125   5.725   5.715   1.212 -0.7689  2.6322  1.4370
11878TIP3    H257126   5.579   5.757   1.220 -1.8654 -0.0546 -1.8487
11879TIP3   OH257127   0.051   6.174   4.231 -0.3104  0.0947  0.3036
11879TIP3    H157128   0.060   6.265   4.202  3.2933 -0.5141 -1.0346
11879TIP3    H257129   0.070   6.122   4.152 -1.4143 -1.8445  1.2366
11880TIP3   OH257130   2.441   4.508   4.436  0.1660  0.0967 -0.5505
11880TIP3    H157131   2.466   4.594   4.402  1.3665 -0.2781 -0.6733
11880TIP3    H257132   2.458   4.447   4.364  0.0853 -0.3461 -0.2061
11881TIP3   OH257133   2.118   3.914  14.038 -0.0417  0.4723  0.0959
11881TIP3    H157134   2.023   3.928  14.034 -0.1098 -0.0661 -0.3950
11881TIP3    H257135   2.140   3.926  14.130 -0.6158  0.4553  0.2413
11882TIP3   OH257136   6.650   4.897   2.129  0.0937  0.2835 -0.0568
11882TIP3    H157137   6.727   4.866   2.177 -0.8158  0.0289  1.3105
11882TIP3    H257138   6.684   4.927   2.045  1.6600  0.0489  0.4618
11883TIP3   OH257139   6.126   4.586  13.227  0.1865  0.1462  0.1389
11883TIP3    H157140   6.075   4.509  13.200  2.4020 -1.1873 -0.5846
11883TIP3    H257141   6.121   4.645  13.153 -0.8530  0.3453  0.3572
11884TIP3   OH257142   5.724   3.717  15.344  0.3007  0.1759  0.4675
11884TIP3    H157143   5.629   3.721  15.352  0.3458  0.4180  0.8932
11884TIP3    H257144   5.748   3.632  15.381  0.2531  0.1218  0.3749
11885TIP3   OH257145   0.394   4.433  14.906  0.4117 -0.2368 -0.1204
11885TIP3    H157146   0.476   4.385  14.907 -0.0852 -1.1440 -1.2689
11885TIP3    H257147   0.332   4.377  14.954  0.5441  0.6640  1.1743
11886TIP3   OH257148   1.389   5.393  11.375 -0.9504 -0.4825  1.0690
11886TIP3    H157149   1.439   5.316  11.348  1.5782  0.2909  3.0975
11886TIP3    H257150   1.426   5.465  11.324 -2.8579 -0.4201 -0.3426
11887TIP3   OH257151   4.579   1.101  13.638  0.0577  0.0225  0.7182
11887TIP3    H157152   4.620   1.016  13.626 -0.6394 -0.3271  0.7448
11887TIP3    H257153   4.598   1.148  13.557 -0.5998 -0.6152  0.1758
11888TIP3   OH257154   5.170   3.655   1.106 -0.4089 -0.5440  0.1987
11888TIP3    H157155   5.155   3.722   1.040  0.9622  0.1261  0.5309
11888TIP3    H257156   5.173   3.704   1.189 -0.1135 -1.1122  0.5256
11889TIP3   OH257157   4.966   6.451  15.362 -0.7091 -0.0051 -0.1564
11889TIP3    H157158   4.882   6.409  15.345  0.1585 -1.0345 -2.4061
11889TIP3    H257159   4.944   6.541  15.388 -2.5240 -0.9364  1.7736
11890TIP3   OH257160   6.521   5.013  13.781 -0.4560 -0.3860 -0.2901
11890TIP3    H157161   6.474   5.006  13.697 -0.4252  0.2786 -0.3669
11890TIP3    H257162   6.567   4.929  13.789 -3.4592 -2.0545  0.9123
11891TIP3   OH257163   5.095   4.598  12.259  0.5584  0.2139  0.5900
11891TIP3    H157164   5.165   4.628  12.201  0.9551 -0.3389  0.7752
11891TIP3    H257165   5.039   4.544  12.203 -0.3191  1.5083  0.1864
11892TIP3   OH257166   5.141   4.281  11.102  0.1815 -0.2942 -0.5877
11892TIP3    H157167   5.108   4.236  11.024  0.3044 -0.0730 -0.7677
11892TIP3    H257168   5.184   4.211  11.153 -0.7438 -0.6230 -0.2404
11893TIP3   OH257169   0.345   1.787   0.268 -0.3126  0.3691  0.3665
11893TIP3    H157170   0.281   1.742   0.212 -1.5347  1.7468  0.6045
11893TIP3    H257171   0.401   1.834   0.206 -0.9183  0.9235  0.2188
11894TIP3   OH257172   2.219   0.382  11.338  0.1331  0.1343 -0.0488
11894TIP3    H157173   2.257   0.469  11.350 -1.4345  0.8108  0.2153
11894TIP3    H257174   2.182   0.384  11.250 -1.7640  0.5199  0.7063
11895TIP3   OH257175   0.319   5.827   3.577  0.1157 -0.1126  0.0409
11895TIP3    H157176   0.349   5.911   3.611  0.3990 -0.7691  1.5022
11895TIP3    H257177   0.391   5.795   3.523 -0.5769  1.2247 -1.7428
11896TIP3   OH257178   5.119   4.014  13.168  0.0333  0.2895  0.0127
11896TIP3    H157179   5.074   4.096  13.185  0.2317  0.5397 -0.6230
11896TIP3    H257180   5.048   3.949  13.158 -0.2642  0.8179 -1.7279
11897TIP3   OH257181   6.041   3.862  15.341  0.3757 -0.1261 -0.0384
11897TIP3    H157182   6.115   3.856  15.401  0.1297  1.4946  0.4809
11897TIP3    H257183   5.969   3.896  15.395 -0.4141 -0.5430 -0.8015
11898TIP3   OH257184   2.162   4.251  13.537 -0.4903 -0.4281 -0.2148
11898TIP3    H157185   2.129   4.210  13.617 -1.3770 -2.4924 -1.5643
11898TIP3    H257186   2.214   4.183  13.495  5.2018  2.3704  1.3654
11899TIP3   OH257187   4.312   5.923   0.385 -0.2549  0.1078 -0.5405
11899TIP3    H157188   4.284   6.014   0.377  1.4358  0.6789 -0.2018
11899TIP3    H257189   4.398   5.927   0.425  0.2131 -1.5966 -1.2721
11900TIP3   OH257190   1.397   0.069  13.468  0.2138 -0.4646 -0.4572
11900TIP3    H157191   1.492   0.058  13.476  0.3217  0.7827  0.3211
11900TIP3    H257192   1.360  -0.012  13.503  0.9815 -1.8939 -2.7296
11901TIP3   OH257193   1.767   4.379   1.076  0.1927  0.3905  0.2493
11901TIP3    H157194   1.830   4.433   1.125  2.1704 -0.4922 -1.1816
11901TIP3    H257195   1.691   4.435   1.064  1.1915  1.9670  0.9869
11902TIP3   OH257196   0.461   5.792  14.659  0.2072  0.2015 -0.2776
11902TIP3    H157197   0.440   5.865  14.601  0.5217 -1.2792 -2.3570
11902TIP3    H257198   0.554   5.802  14.677  0.2957  0.2217 -0.7252
11903TIP3   OH257199   4.133   3.652   1.789  0.3389  0.1257  0.1494
11903TIP3    H157200   4.191   3.576   1.780 -0.7122 -0.5480 -1.4881
11903TIP3    H257201   4.048   3.615   1.811 -0.0582  0.8727 -0.0746
11904TIP3   OH257202   3.521   3.902   0.763 -0.1203 -0.0593 -0.0766
11904TIP3    H157203   3.604   3.933   0.798 -0.9997  2.0674  0.2783
11904TIP3    H257204   3.468   3.880   0.840  0.0686 -1.3611 -0.2971
11905TIP3   OH257205   1.150   2.832   1.059  0.5791 -0.2247 -0.0440
11905TIP3    H157206   1.197   2.823   1.141  1.9412 -2.4086 -0.9699
11905TIP3    H257207   1.058   2.814   1.082  1.2369 -3.1988  0.7404
11906TIP3   OH257208   3.880   2.631  16.574  0.0675  0.2641  0.4203
11906TIP3    H157209   3.882   2.536  16.580 -0.3347  0.2789  0.7932
11906TIP3    H257210   3.801   2.657  16.621  0.8243  0.8600  1.4123
11907TIP3   OH257211   0.565   1.320   2.212  0.3575  0.3584 -0.5064
11907TIP3    H157212   0.514   1.283   2.140  0.9315 -0.5968 -0.4397
11907TIP3    H257213   0.629   1.377   2.169 -0.2782  0.9938 -0.6362
11908TIP3   OH257214   3.738   0.811   5.529 -0.2071  0.5126 -0.1920
11908TIP3    H157215   3.659   0.853   5.494 -0.2852  1.0009  0.5609
11908TIP3    H257216   3.757   0.858   5.609  1.0868  0.6573 -0.5642
11909TIP3   OH257217   2.206   4.807  12.780 -0.3261  0.1641 -0.1897
11909TIP3    H157218   2.139   4.755  12.824  1.6936 -0.9646  1.7685
11909TIP3    H257219   2.203   4.778  12.689 -1.1902 -1.2839  0.2644
11910TIP3   OH257220   5.182   2.981   3.365  0.4391 -0.0359  0.4857
11910TIP3    H157221   5.165   3.034   3.443 -1.6797  1.4783 -0.8831
11910TIP3    H257222   5.242   3.034   3.312 -0.3217  0.2452 -0.1178
11911TIP3   OH257223   3.033   5.719   0.759  0.5391 -0.1626 -0.2700
11911TIP3    H157224   3.042   5.810   0.734 -0.3361  0.1266  0.3905
11911TIP3    H257225   3.055   5.717   0.853 -1.6635 -0.1713  0.3106
11912TIP3   OH257226   0.570   3.727   2.932 -0.4153 -0.0367 -0.3303
11912TIP3    H157227   0.612   3.682   3.005 -0.5327 -0.2957 -0.4196
11912TIP3    H257228   0.564   3.661   2.863 -0.3599  0.1879 -0.5540
11913TIP3   OH257229   4.578   2.743  16.236  0.7225 -0.2631  0.7311
11913TIP3    H157230   4.548   2.670  16.182  0.2738 -0.0795  0.7252
11913TIP3    H257231   4.555   2.821  16.186  1.2198 -0.1154  0.7271
11914TIP3   OH257232   4.221   2.490  13.305 -0.0943 -0.0590  0.0410
11914TIP3    H157233   4.175   2.451  13.231 -2.3013  1.0147  0.7391
11914TIP3    H257234   4.243   2.417  13.362 -1.4116 -0.5735 -0.0923
11915TIP3   OH257235   0.040   2.930   3.368  0.1256  0.2122  0.1042
11915TIP3    H157236   0.032   2.851   3.421  1.5264  0.2871  0.4758
11915TIP3    H257237   0.129   2.927   3.333  0.8217  2.3998  1.4671
11916TIP3   OH257238   3.093   0.103  16.454  0.0777  0.4402 -0.0762
11916TIP3    H157239   3.097   0.036  16.386  0.4887  1.0299 -0.6356
11916TIP3    H257240   3.128   0.060  16.532 -1.2483 -0.5337  0.0254
11917TIP3   OH257241   5.562   4.814   1.202 -0.0617  0.5847 -0.5132
11917TIP3    H157242   5.512   4.817   1.284  0.2156  2.1383 -0.3714
11917TIP3    H257243   5.628   4.746   1.216 -1.3101 -0.6007 -0.2323
11918TIP3   OH257244   0.482   1.871  16.569  0.6480 -0.1141 -0.5390
11918TIP3    H157245   0.423   1.835  16.636  0.7947 -0.2907 -0.5019
11918TIP3    H257246   0.535   1.936  16.616  1.9350 -1.4406 -0.0537
11919TIP3   OH257247   3.209   6.268  14.310  0.1009 -0.0929  0.1326
11919TIP3    H157248   3.132   6.313  14.274  0.0183 -0.9024 -0.7467
11919TIP3    H257249   3.194   6.176  14.290  0.2933 -0.5211  1.8750
11920TIP3   OH257250   1.246   3.885  16.715  0.5309 -0.1371 -0.0161
11920TIP3    H157251   1.203   3.967  16.692 -2.3643 -0.9948  1.8763
11920TIP3    H257252   1.318   3.912  16.773  0.1815  1.1155 -0.1218
11921TIP3   OH257253   5.024   3.866  13.613 -0.2572 -0.1238  0.2838
11921TIP3    H157254   5.083   3.824  13.551 -1.3992  0.1394 -1.0437
11921TIP3    H257255   4.999   3.948  13.571 -1.4926 -0.1905  0.8393
11922TIP3   OH257256   2.951   1.256  10.386 -0.3188  0.3495 -0.3969
11922TIP3    H157257   2.970   1.347  10.361 -1.4977  0.8775  0.4938
11922TIP3    H257258   2.916   1.217  10.306 -0.7428  0.9861 -0.5382
11923TIP3   OH257259   5.673   4.072  13.324 -0.5224  0.0372  0.1228
11923TIP3    H157260   5.699   4.148  13.376 -0.2584  0.5813 -0.7679
11923TIP3    H257261   5.746   4.011  13.333 -0.8368 -0.2208  1.0285
11924TIP3   OH257262   0.412   3.510  14.516 -0.0345  0.0461  0.2966
11924TIP3    H157263   0.385   3.491  14.606 -0.3242  0.0781  0.2174
11924TIP3    H257264   0.497   3.553  14.526  0.7684 -1.4989  0.4687
11925TIP3   OH257265   4.176   0.649   6.585 -0.6269 -0.2971  0.2364
11925TIP3    H157266   4.100   0.593   6.572 -0.2151 -0.3920 -2.3467
11925TIP3    H257267   4.148   0.736   6.556  0.5637 -0.6218 -2.0971
11926TIP3   OH257268   5.029   2.697   4.226  0.8066 -0.1484  0.0179
11926TIP3    H157269   5.082   2.777   4.223 -0.1883  0.4983 -0.8789
11926TIP3    H257270   4.990   2.698   4.313 -0.1072  0.9696 -0.3760
11927TIP3   OH257271   0.556   6.854  15.746  0.6069  0.0237 -0.0551
11927TIP3    H157272   0.623   6.863  15.678  0.5866  0.9657  0.0397
11927TIP3    H257273   0.474   6.841  15.697  0.2346  2.8168 -0.3405
11928TIP3   OH257274   0.922   4.055  14.809  0.0666 -0.1409  0.1526
11928TIP3    H157275   0.882   4.066  14.723 -1.3652  0.5398  0.8693
11928TIP3    H257276   0.947   3.963  14.813  1.0944  0.0360 -1.3604
11929TIP3   OH257277   6.196   3.529  11.235 -0.1038  0.3442 -0.3488
11929TIP3    H157278   6.225   3.554  11.147 -0.5620  3.4864  0.2877
11929TIP3    H257279   6.107   3.495  11.222 -0.2773  1.0429 -1.1117
11930TIP3   OH257280   0.069   0.828  13.274  0.0210  1.1287  0.0725
11930TIP3    H157281   0.046   0.736  13.284  1.4738  0.6921 -0.4324
11930TIP3    H257282  -0.012   0.875  13.296 -0.8635 -0.2636 -0.0788
11931TIP3   OH257283   5.969   2.561  12.115 -0.0857 -0.7425  0.6693
11931TIP3    H157284   6.062   2.576  12.103 -0.2919 -0.0624 -0.2018
11931TIP3    H257285   5.935   2.550  12.026 -0.9294 -0.3726  0.9373
11932TIP3   OH257286   2.053   4.176  16.326  0.1917  0.4746 -0.3083
11932TIP3    H157287   2.098   4.128  16.256 -0.3134 -0.4526 -0.0157
11932TIP3    H257288   1.988   4.229  16.280  0.3688  0.4469 -0.5983
11933TIP3   OH257289   4.079   4.702   1.863  0.2408 -0.1147  0.0549
11933TIP3    H157290   4.052   4.750   1.784  2.0597 -0.3809 -0.7837
11933TIP3    H257291   4.102   4.770   1.926  1.2003  0.1484 -0.5512
11934TIP3   OH257292   3.177   3.435  11.268 -0.0375  0.3504  0.1051
11934TIP3    H157293   3.208   3.450  11.179  1.8120 -1.2129  0.4246
11934TIP3    H257294   3.256   3.424  11.320 -1.0843  0.7073  1.8809
11935TIP3   OH257295   6.224   3.803   0.559 -0.7652 -0.1584 -0.2346
11935TIP3    H157296   6.266   3.723   0.528 -0.5768 -0.4155  0.6421
11935TIP3    H257297   6.131   3.785   0.556 -0.7041 -0.7103  0.6830
11936TIP3   OH257298   3.270   1.503  16.544  1.0368 -0.2868 -0.3075
11936TIP3    H157299   3.228   1.582  16.580  1.2056 -0.8691  1.2227
11936TIP3    H257300   3.263   1.515  16.449  0.4013  1.2211 -0.1163
11937TIP3   OH257301   6.209   3.362   1.354 -0.0516  0.1109  0.0062
11937TIP3    H157302   6.157   3.295   1.398  0.3412  0.1326  0.5116
11937TIP3    H257303   6.283   3.313   1.317 -0.6223  0.0207 -1.0402
11938TIP3   OH257304   5.682   2.346   4.583 -0.3127  0.3102 -0.1631
11938TIP3    H157305   5.592   2.378   4.587  0.0647  1.3256  0.7672
11938TIP3    H257306   5.732   2.419   4.547 -0.0375 -0.7207 -1.9728
11939TIP3   OH257307   5.811   3.022   4.588 -0.2428 -0.4640  0.2369
11939TIP3    H157308   5.851   3.084   4.527  1.8693 -1.4041  0.6091
11939TIP3    H257309   5.745   3.074   4.635 -1.3117  0.5095 -2.1490
11940TIP3   OH257310   1.529   5.846  14.080 -0.3551 -0.3110  0.2987
11940TIP3    H157311   1.517   5.758  14.117 -0.0190 -0.9772 -1.1007
11940TIP3    H257312   1.561   5.830  13.991  1.4813  1.2687  0.6321
11941TIP3   OH257313   0.973   5.734   1.095 -0.1555 -0.4771  0.1840
11941TIP3    H157314   0.895   5.767   1.140  0.3685 -0.2818  0.9789
11941TIP3    H257315   0.957   5.640   1.086 -0.1420 -0.5802  1.0802
11942TIP3   OH257316   3.297   0.101   1.057 -0.0559  0.3502  0.2407
11942TIP3    H157317   3.320   0.017   1.017 -1.2759  0.1760 -0.1331
11942TIP3    H257318   3.260   0.078   1.142 -0.0042  0.5378  0.3138
11943TIP3   OH257319   2.699   4.300   4.972 -0.4973 -0.0603  0.0548
11943TIP3    H157320   2.713   4.393   4.953  0.1165  0.5382  2.9501
11943TIP3    H257321   2.612   4.296   5.010  0.0684 -0.3783  1.3686
11944TIP3   OH257322   3.412   0.375   1.224  0.1009 -0.1138 -0.0459
11944TIP3    H157323   3.399   0.324   1.145 -0.1036  0.5963 -0.4811
11944TIP3    H257324   3.398   0.313   1.296 -0.3633 -0.6068 -0.5578
11945TIP3   OH257325   0.887   3.539  10.718  0.1819  0.3466  0.0066
11945TIP3    H157326   0.795   3.561  10.703  0.0744  0.0815  0.2555
11945TIP3    H257327   0.926   3.620  10.750 -0.0509  0.3686  0.2458
11946TIP3   OH257328   1.663   0.883   6.348  0.2866 -0.3266 -0.2169
11946TIP3    H157329   1.575   0.847   6.363 -0.0552 -0.2153 -1.8248
11946TIP3    H257330   1.718   0.807   6.332  0.4135 -0.3703  0.4004
11947TIP3   OH257331   5.310   5.980  10.926 -0.0934  0.2142 -0.2121
11947TIP3    H157332   5.231   5.927  10.923 -0.5057  0.8379 -0.4871
11947TIP3    H257333   5.370   5.939  10.864 -0.3273 -0.0537 -0.2600
11948TIP3   OH257334   5.772   3.006   3.905 -0.0676 -0.4778  0.0414
11948TIP3    H157335   5.728   2.978   3.985  0.2325 -1.0047  0.0258
11948TIP3    H257336   5.727   2.958   3.835  1.4772 -2.1761  0.1575
11949TIP3   OH257337   2.905   6.674  14.805 -0.1459 -0.4128  0.3362
11949TIP3    H157338   2.885   6.594  14.854  0.9236 -0.1894  1.1900
11949TIP3    H257339   2.836   6.680  14.739 -0.9063 -1.4153  1.0060
11950TIP3   OH257340   3.011   1.230   0.216 -0.7998 -0.4401  0.6659
11950TIP3    H157341   2.937   1.200   0.268 -0.9824 -0.4110  0.4245
11950TIP3    H257342   2.982   1.313   0.178 -1.0270 -0.9186 -0.2428
11951TIP3   OH257343   6.182   0.475  14.891  0.4023  0.5162 -0.0322
11951TIP3    H157344   6.196   0.513  14.978 -0.8861  2.6896 -0.6907
11951TIP3    H257345   6.088   0.453  14.891  0.2115  1.2550 -1.0913
11952TIP3   OH257346   1.037   6.575   4.282  0.3382 -0.2395 -0.0812
11952TIP3    H157347   0.970   6.621   4.230  1.1601  0.9951 -0.1029
11952TIP3    H257348   1.081   6.518   4.219 -0.4087 -0.7405 -0.1560
11953TIP3   OH257349   6.418   4.051   1.396  0.1260  0.2564  0.3968
11953TIP3    H157350   6.461   4.105   1.330  0.5123 -2.4542 -1.7775
11953TIP3    H257351   6.480   4.048   1.469  0.0789  2.6214  0.6141
11954TIP3   OH257352   6.867   1.165   4.996  0.0477  0.2323  0.1396
11954TIP3    H157353   6.838   1.242   5.044  0.9862  0.7025 -0.0222
11954TIP3    H257354   6.838   1.091   5.049 -1.7336  0.6471 -0.1989
11955TIP3   OH257355   0.842   3.699  16.495 -1.0972  0.5196  0.4533
11955TIP3    H157356   0.758   3.687  16.539 -1.2054 -0.0034  0.1232
11955TIP3    H257357   0.829   3.659  16.408 -0.9208  1.6143 -0.0902
11956TIP3   OH257358   0.880   4.298   1.664  0.5580 -0.2386 -0.8645
11956TIP3    H157359   0.950   4.234   1.677  0.2471 -0.5126 -0.5232
11956TIP3    H257360   0.905   4.344   1.583  0.8136 -0.7460 -1.0803
11957TIP3   OH257361   3.401   3.119  14.921  0.0884 -0.4364 -0.1562
11957TIP3    H157362   3.346   3.192  14.894  0.5378 -0.3023 -0.7128
11957TIP3    H257363   3.487   3.136  14.882  0.7390 -0.2913  1.2548
11958TIP3   OH257364   6.671   6.434  12.955 -0.5094 -0.4504 -0.5955
11958TIP3    H157365   6.740   6.406  13.015 -0.5381 -1.6717 -1.0999
11958TIP3    H257366   6.699   6.520  12.924 -0.4768  0.1854  1.1140
11959TIP3   OH257367   2.698   2.135  13.436 -0.2715  0.0398  0.3197
11959TIP3    H157368   2.625   2.182  13.476 -1.0574  1.1799 -2.2466
11959TIP3    H257369   2.690   2.153  13.343  2.4383 -1.0573 -0.2204
11960TIP3   OH257370   5.696   4.238  15.886 -0.1525  0.2017  0.0290
11960TIP3    H157371   5.656   4.322  15.910  1.5042  1.2243 -0.6114
11960TIP3    H257372   5.768   4.262  15.828 -0.4401 -1.7791 -1.2279
11961TIP3   OH257373   1.911   3.794  14.351 -0.2661 -0.4229 -0.3530
11961TIP3    H157374   1.839   3.755  14.400 -0.5788  1.8779  1.2068
11961TIP3    H257375   1.868   3.842  14.281 -0.1131 -0.5509 -0.5329
11962TIP3   OH257376   5.299   0.351  13.835 -0.1961  0.4727 -0.0456
11962TIP3    H157377   5.297   0.256  13.825 -0.5342  0.4879 -0.1287
11962TIP3    H257378   5.207   0.377  13.833 -0.0330  1.1378 -3.1196
11963TIP3   OH257379   5.018   0.135  15.268 -0.6073  0.2983 -0.2922
11963TIP3    H157380   4.950   0.088  15.221 -0.5748 -0.4863  0.4156
11963TIP3    H257381   4.972   0.178  15.340 -0.4608  0.3661 -0.2385
11964TIP3   OH257382   5.716   2.751  15.360 -0.1850 -0.2981 -0.1949
11964TIP3    H157383   5.777   2.787  15.424  0.0291 -0.5599 -0.2485
11964TIP3    H257384   5.687   2.668  15.398  0.6818 -0.9260 -0.8631
11965TIP3   OH257385   6.449   0.835   2.767 -0.0620  0.3720  0.1388
11965TIP3    H157386   6.517   0.868   2.709 -0.2126 -0.0589 -0.2879
11965TIP3    H257387   6.494   0.771   2.822 -0.1989 -0.2113 -0.4150
11966TIP3   OH257388   4.891   5.384   4.100  0.3600 -0.2002  0.9232
11966TIP3    H157389   4.836   5.313   4.066  1.3802 -1.2819  1.4660
11966TIP3    H257390   4.840   5.464   4.083 -0.3335 -0.9372 -0.7208
11967TIP3   OH257391   0.481   6.533  11.684  0.6016  0.1256  0.2580
11967TIP3    H157392   0.552   6.494  11.632 -0.1711 -0.7812 -0.1527
11967TIP3    H257393   0.429   6.581  11.620  0.5218  0.3160  0.4652
11968TIP3   OH257394   1.633   6.347  14.490 -0.1567 -0.1806  0.1061
11968TIP3    H157395   1.649   6.418  14.429 -1.0867  1.8847  2.1128
11968TIP3    H257396   1.607   6.390  14.571 -1.7896 -2.8347  1.1482
11969TIP3   OH257397   2.190   1.761   4.221 -0.0338  0.6408  0.0747
11969TIP3    H157398   2.155   1.840   4.262  0.7291  0.2068  1.6741
11969TIP3    H257399   2.185   1.695   4.290  1.1763 -0.1774 -0.5838
11970TIP3   OH257400   1.898   1.625   5.342 -0.7079  0.5025 -0.0308
11970TIP3    H157401   1.922   1.660   5.428  1.6477 -1.1315  0.0716
11970TIP3    H257402   1.842   1.550   5.362  0.7404 -0.5542  0.1820
11971TIP3   OH257403   1.252   5.084  14.349 -0.0204  0.9492 -0.1356
11971TIP3    H157404   1.180   5.124  14.299 -0.3646 -0.4082 -0.7828
11971TIP3    H257405   1.305   5.040  14.283 -0.4027 -0.7809  0.6596
11972TIP3   OH257406   5.904   0.404  14.123 -0.5920 -0.1553  0.5045
11972TIP3    H157407   5.818   0.421  14.160 -1.2949 -1.9661 -0.1677
11972TIP3    H257408   5.894   0.422  14.029 -0.9647 -2.5514  0.0214
11973TIP3   OH257409   4.937   1.218   4.131 -0.4899  0.1272 -0.5749
11973TIP3    H157410   4.893   1.146   4.085 -0.4367 -0.0790 -0.3060
11973TIP3    H257411   5.027   1.215   4.098 -0.1775 -0.6958  0.3197
11974TIP3   OH257412   4.359   2.856  15.217 -0.1055 -0.3049 -0.0296
11974TIP3    H157413   4.278   2.815  15.247  0.1145  0.7328  2.1466
11974TIP3    H257414   4.367   2.828  15.126 -1.0551 -3.3053  0.6985
11975TIP3   OH257415   4.585   0.364  10.590  0.1241 -0.1224  0.1160
11975TIP3    H157416   4.606   0.277  10.624 -1.5324 -0.2360  0.9493
11975TIP3    H257417   4.607   0.360  10.497  1.3580 -0.9775  0.4227
11976TIP3   OH257418   2.388   5.091   1.562  0.0787  0.0192  0.0301
11976TIP3    H157419   2.456   5.146   1.523 -0.6083  0.4695 -0.5671
11976TIP3    H257420   2.315   5.151   1.578 -0.5312 -0.6325 -0.2432
11977TIP3   OH257421   2.901   5.543   0.605 -0.6255  0.0178 -0.0395
11977TIP3    H157422   2.972   5.599   0.639 -0.1227 -0.5632 -0.1102
11977TIP3    H257423   2.897   5.564   0.512 -2.1458  1.7662  0.3630
11978TIP3   OH257424   5.270   0.415  11.799  0.5154  0.0944  0.4440
11978TIP3    H157425   5.255   0.368  11.881 -0.6455 -0.7478 -0.2258
11978TIP3    H257426   5.292   0.347  11.735  2.1367  0.8112  0.1890
11979TIP3   OH257427   5.489   5.887  10.738  0.4791 -0.2351  0.3352
11979TIP3    H157428   5.577   5.921  10.754  0.1586  2.2277 -2.3237
11979TIP3    H257429   5.496   5.840  10.655 -0.8872  1.0655 -0.5657
11980TIP3   OH257430   6.071   2.166  16.153 -0.5013  0.2683 -0.1896
11980TIP3    H157431   6.039   2.079  16.177 -0.9289  0.3526 -0.4472
11980TIP3    H257432   5.993   2.213  16.124  0.0132  0.1032 -1.9627
11981TIP3   OH257433   1.925   3.956   5.550 -0.2373 -0.2276 -0.7884
11981TIP3    H157434   1.858   4.023   5.549  0.9914  1.0744 -0.0897
11981TIP3    H257435   1.996   3.992   5.496  0.8141 -0.5103  0.3424
11982TIP3   OH257436   1.595   6.502  12.678  0.0083  0.4168  0.3987
11982TIP3    H157437   1.549   6.570  12.630  0.1567  1.0863  1.1752
11982TIP3    H257438   1.644   6.550  12.746  2.1722 -0.1963 -0.6216
11983TIP3   OH257439   6.169   6.186  16.474  0.5164  0.6623  0.4148
11983TIP3    H157440   6.261   6.207  16.492  0.4641  0.1492  1.3568
11983TIP3    H257441   6.149   6.114  16.534 -0.4838  0.7191  0.1623
11984TIP3   OH257442   1.955   0.785  15.804  0.0033  0.5336 -0.2661
11984TIP3    H157443   1.979   0.877  15.792  1.6577  0.0832 -0.6349
11984TIP3    H257444   1.975   0.767  15.896  0.2463  0.3759 -0.3513
11985TIP3   OH257445   2.258   6.572   1.839  0.2403 -0.5332  0.4395
11985TIP3    H157446   2.195   6.503   1.864 -0.2862 -0.0999  0.3318
11985TIP3    H257447   2.218   6.653   1.871 -0.2750  0.0076 -1.4642
11986TIP3   OH257448   3.393   1.356  12.438  0.1991 -0.1471 -0.1171
11986TIP3    H157449   3.428   1.383  12.353 -1.9598 -0.0696 -1.0622
11986TIP3    H257450   3.366   1.265  12.425 -0.4380 -0.0345  0.3680
11987TIP3   OH257451   2.611   4.444   4.637 -0.2536  0.5925  0.1789
11987TIP3    H157452   2.550   4.396   4.693 -0.1157  0.8876  0.5792
11987TIP3    H257453   2.555   4.483   4.569 -0.2857 -0.7925 -0.6326
11988TIP3   OH257454   1.854   2.781  14.140 -0.2239  0.4109 -0.0395
11988TIP3    H157455   1.777   2.838  14.130 -0.7566 -0.0898  0.9536
11988TIP3    H257456   1.880   2.759  14.051 -1.0733  0.8209 -0.4032
11989TIP3   OH257457   4.394   4.706   2.270  0.2920  0.8250  0.0794
11989TIP3    H157458   4.380   4.711   2.175 -1.9557 -0.5068  0.2707
11989TIP3    H257459   4.334   4.771   2.307 -1.5788 -1.1714  0.7136
11990TIP3   OH257460   2.772   3.417   5.602  0.2974  0.8977 -0.0286
11990TIP3    H157461   2.694   3.388   5.556  0.7241  2.8186 -2.1321
11990TIP3    H257462   2.845   3.384   5.550  0.8781  0.5371  0.9805
11991TIP3   OH257463   3.930   3.802  15.516  0.2543  0.0697 -0.2226
11991TIP3    H157464   3.950   3.756  15.597  0.8714 -0.3901 -0.6290
11991TIP3    H257465   3.870   3.744  15.470  0.5848 -0.0689 -0.4811
11992TIP3   OH257466   2.526   1.134   3.699  0.5286 -0.0967 -0.4687
11992TIP3    H157467   2.440   1.129   3.658  0.6697  1.6489 -1.0509
11992TIP3    H257468   2.587   1.137   3.626  1.0741 -0.8143 -0.0599
11993TIP3   OH257469   0.937   2.326  16.752  0.4205 -0.0533  0.3507
11993TIP3    H157470   0.969   2.343  16.664 -0.3644 -2.3833 -0.4533
11993TIP3    H257471   0.964   2.236  16.771 -1.0412 -0.2508  1.7390
11994TIP3   OH257472   6.380   6.360   4.850 -0.4100  0.0321  0.3891
11994TIP3    H157473   6.359   6.340   4.758 -0.3244  0.6060  0.2426
11994TIP3    H257474   6.468   6.323   4.863 -0.5859 -0.4059  0.3607
11995TIP3   OH257475   0.737   6.504   4.347  0.0549  0.3957 -0.2816
11995TIP3    H157476   0.830   6.488   4.332  0.5261  1.3459  1.2963
11995TIP3    H257477   0.734   6.591   4.387 -1.4517  0.1564  0.2126
11996TIP3   OH257478   0.634   2.097   2.844  0.3210 -0.2605 -0.0030
11996TIP3    H157479   0.643   2.192   2.844  2.0783 -0.3847  1.6300
11996TIP3    H257480   0.713   2.065   2.800  1.8972 -1.0062  3.0640
11997TIP3   OH257481   2.343   0.068  10.324 -0.4326  0.5388 -0.1561
11997TIP3    H157482   2.349   0.014  10.246  0.2727  0.1082  0.1892
11997TIP3    H257483   2.268   0.034  10.372 -0.5120  0.4289 -0.3619
11998TIP3   OH257484   1.236   3.411   1.036 -0.2981 -0.5640  0.2303
11998TIP3    H157485   1.175   3.447   0.971 -1.5882 -0.8234  1.2355
11998TIP3    H257486   1.313   3.386   0.986 -0.2783  1.4261 -0.8399
11999TIP3   OH257487   6.755   3.272  16.091 -0.0794 -0.4378  0.0612
11999TIP3    H157488   6.848   3.294  16.088  0.0092 -0.8980 -1.0579
11999TIP3    H257489   6.743   3.230  16.176  0.6165  0.1170  0.4409
12000TIP3   OH257490   2.655   6.827  11.782 -0.6842  0.1651 -0.3304
12000TIP3    H157491   2.572   6.844  11.825 -0.7471  0.3814 -0.5350
12000TIP3    H257492   2.663   6.897  11.716  0.6703  1.4542  1.1146
12001TIP3   OH257493   1.380   6.434   0.760  0.0023  0.0526  0.1691
12001TIP3    H157494   1.427   6.479   0.830 -0.3477 -0.4483  0.7322
12001TIP3    H257495   1.406   6.343   0.768 -1.6440 -0.3879  0.9989
12002TIP3   OH257496   5.315   2.272  12.241 -0.3028  0.3845  0.1398
12002TIP3    H157497   5.324   2.320  12.159 -1.6875 -0.4470 -0.5345
12002TIP3    H257498   5.230   2.300  12.276 -0.2575 -0.1518  0.7022
12003TIP3   OH257499   0.483   0.559   3.590 -0.6631 -0.1392  0.7973
12003TIP3    H157500   0.511   0.477   3.631 -0.2815  0.4631  1.7731
12003TIP3    H257501   0.521   0.628   3.645 -2.5471  0.7062  1.1179
12004TIP3   OH257502   0.485   5.321  12.672 -0.5988  0.3479  0.0640
12004TIP3    H157503   0.520   5.297  12.586  1.0550  0.9039  0.5543
12004TIP3    H257504   0.490   5.417  12.674 -0.0504  0.3093  0.9985
12005TIP3   OH257505   1.260   1.451   5.051 -0.2852  0.5510  0.2106
12005TIP3    H157506   1.277   1.523   5.111 -1.2762  0.8994  0.0941
12005TIP3    H257507   1.168   1.427   5.068  0.1069 -0.8653  0.4474
12006TIP3   OH257508   0.767   5.717   6.063  0.0567  0.3663 -0.7762
12006TIP3    H157509   0.673   5.720   6.084  0.5437  0.6934  1.6004
12006TIP3    H257510   0.805   5.788   6.115  1.7261 -0.2037 -1.1767
12007TIP3   OH257511   2.297   2.258  11.688 -0.4295  0.0206 -0.3124
12007TIP3    H157512   2.217   2.210  11.707 -1.0579  1.2541  0.2500
12007TIP3    H257513   2.286   2.291  11.599 -1.5008  1.9622  0.4914
12008TIP3   OH257514   2.553   2.081   4.728 -0.0016 -0.1996  0.4074
12008TIP3    H157515   2.630   2.024   4.723 -1.4426 -2.1861 -0.8354
12008TIP3    H257516   2.584   2.166   4.698  2.2291 -0.2635  2.2616
12009TIP3   OH257517   3.309   0.136  14.398 -0.0010 -0.3887 -0.2028
12009TIP3    H157518   3.216   0.158  14.392 -0.6877 -3.2848 -2.4040
12009TIP3    H257519   3.354   0.219  14.385 -2.2205  1.0773  0.7965
12010TIP3   OH257520   0.949   5.719   5.088  0.2825 -0.5835 -0.1422
12010TIP3    H157521   0.895   5.788   5.051  0.1003 -1.7901 -2.2961
12010TIP3    H257522   0.888   5.648   5.108  0.7547 -1.0467 -0.3082
12011TIP3   OH257523   2.728   3.962   2.503  0.1851  0.6914  0.0082
12011TIP3    H157524   2.792   4.005   2.447  0.6645  2.6742  1.9565
12011TIP3    H257525   2.644   3.979   2.461  0.7314 -0.3702 -1.5962
12012TIP3   OH257526   5.648   5.082   2.556 -0.0555 -0.1848 -0.5807
12012TIP3    H157527   5.693   5.027   2.492  0.6736  0.0422 -0.2626
12012TIP3    H257528   5.615   5.021   2.622  0.4019 -0.2837 -0.4417
12013TIP3   OH257529   5.334   0.059   2.524  0.3832 -0.9219 -0.4215
12013TIP3    H157530   5.409   0.094   2.571  0.0632  0.3309 -0.8146
12013TIP3    H257531   5.367   0.039   2.436 -0.0194  0.9062 -1.0265
12014TIP3   OH257532   2.605   0.379   3.145 -0.5841 -0.0753  0.4336
12014TIP3    H157533   2.669   0.450   3.142 -1.1281  0.3963 -0.5211
12014TIP3    H257534   2.560   0.391   3.229  0.4151 -0.2923  1.0216
12015TIP3   OH257535   2.291   5.930   6.203 -0.3416 -0.1196  0.5882
12015TIP3    H157536   2.303   5.981   6.122 -0.9793 -0.7493  0.0801
12015TIP3    H257537   2.284   5.840   6.173 -0.7148 -0.3478  1.3399
12016TIP3   OH257538   6.278   0.691   1.055 -0.0229 -0.9935 -0.2669
12016TIP3    H157539   6.210   0.721   0.995 -0.5429 -2.4240 -0.4331
12016TIP3    H257540   6.233   0.630   1.114  0.8994 -1.1413  0.3059
12017TIP3   OH257541   4.116   0.826  15.611 -0.8374  0.4973 -0.2371
12017TIP3    H157542   4.104   0.809  15.705 -1.8333 -0.2891 -0.4872
12017TIP3    H257543   4.161   0.910  15.607 -1.7386  1.0649  0.9294
12018TIP3   OH257544   4.211   4.102   2.026  0.0141 -0.2060  0.7484
12018TIP3    H157545   4.196   4.147   1.943 -0.7783 -1.8988 -0.0913
12018TIP3    H257546   4.163   4.153   2.090 -3.5747 -1.4765 -0.6811
12019TIP3   OH257547   0.521   1.576  12.310  0.0254  0.0748 -0.3674
12019TIP3    H157548   0.459   1.543  12.244  0.2624  1.2059 -1.1837
12019TIP3    H257549   0.466   1.606  12.382 -0.2000 -2.2297  0.5191
12020TIP3   OH257550   0.351   1.742   3.666 -0.4287 -0.0215 -0.1031
12020TIP3    H157551   0.434   1.710   3.702 -0.1962 -0.8698 -1.3230
12020TIP3    H257552   0.375   1.820   3.616 -0.7804  1.2761  1.6351
12021TIP3   OH257553   3.439   6.473   1.388 -0.4101 -0.5124  0.1445
12021TIP3    H157554   3.358   6.435   1.422 -0.4386 -0.3815  0.2229
12021TIP3    H257555   3.410   6.544   1.331 -0.3534 -0.5485  0.0703
12022TIP3   OH257556   4.376   5.542   1.460  0.0233 -0.4395  0.0182
12022TIP3    H157557   4.386   5.530   1.555  0.8565  1.1734  0.1732
12022TIP3    H257558   4.412   5.462   1.422  2.3948  0.0592  1.0135
12023TIP3   OH257559   6.307   4.805  16.878  0.0417 -0.1245  0.3893
12023TIP3    H157560   6.265   4.719  16.877 -2.1649  0.8519  1.4228
12023TIP3    H257561   6.235   4.867  16.891  1.2351  2.1201 -2.4727
12024TIP3   OH257562   2.950   6.420  14.042  0.4246  0.2535  0.2373
12024TIP3    H157563   2.907   6.429  14.127  2.0477  2.0845  0.9322
12024TIP3    H257564   3.027   6.366  14.060  0.2665 -0.1638 -0.2954
12025TIP3   OH257565   2.675   3.132  11.067 -0.2433 -0.0909  0.1392
12025TIP3    H157566   2.737   3.060  11.050 -1.7083 -1.4751  0.4394
12025TIP3    H257567   2.650   3.120  11.158 -1.4691  0.0087 -0.1698
12026TIP3   OH257568   5.081   3.769  14.504 -0.0069 -0.0239  0.3528
12026TIP3    H157569   5.047   3.857  14.521  1.9994  0.8401  0.1517
12026TIP3    H257570   5.101   3.734  14.590 -1.4185 -0.5907  0.4831
12027TIP3   OH257571   0.839   1.937  15.258  0.6382 -0.5829 -0.2957
12027TIP3    H157572   0.762   1.931  15.202  0.8472 -1.7721 -0.4970
12027TIP3    H257573   0.881   1.851  15.250  1.4567 -0.2857  0.5640
12028TIP3   OH257574   1.199   2.709  11.763  0.2716 -0.1059  0.1045
12028TIP3    H157575   1.129   2.769  11.736 -1.2914 -1.4042  1.0895
12028TIP3    H257576   1.266   2.719  11.696 -0.7339  1.3842 -0.7434
12029TIP3   OH257577   2.562   1.722  16.729 -0.1240 -0.1759  0.3662
12029TIP3    H157578   2.574   1.635  16.768  1.2447 -0.1233  0.1186
12029TIP3    H257579   2.492   1.710  16.664 -0.8267 -0.7869  1.2224
12030TIP3   OH257580   0.233   1.760   5.810  0.5346  0.3031  0.2759
12030TIP3    H157581   0.323   1.782   5.834  0.4436 -1.1142  2.0912
12030TIP3    H257582   0.195   1.842   5.780  1.7222  1.4609  1.8141
12031TIP3   OH257583   4.225   1.386   2.079 -0.0043  0.1325  0.0687
12031TIP3    H157584   4.234   1.440   2.001 -0.8627  0.6899  0.3345
12031TIP3    H257585   4.176   1.441   2.140 -1.4755 -1.1631  0.1173
12032TIP3   OH257586   5.768   0.602  14.472  0.7749 -0.8093  0.0539
12032TIP3    H157587   5.739   0.664  14.540 -2.0812 -2.3928  0.4656
12032TIP3    H257588   5.786   0.656  14.396  0.4741  0.7140  1.0231
12033TIP3   OH257589   1.377   5.419  14.475  0.8971 -0.4553 -0.0735
12033TIP3    H157590   1.428   5.376  14.544  1.7133  0.3090 -0.1888
12033TIP3    H257591   1.408   5.379  14.394  0.4515 -0.8377 -0.0611
12034TIP3   OH257592   0.108   1.601  13.291 -0.2317  0.0168  0.0613
12034TIP3    H157593   0.186   1.569  13.336 -1.3055 -0.4845  1.6598
12034TIP3    H257594   0.139   1.675  13.239  0.9474  1.1546  2.2625
12035TIP3   OH257595   2.982   5.639   4.336  0.8796  0.2181  0.9831
12035TIP3    H157596   2.892   5.643   4.303  0.7566 -3.7119  0.3285
12035TIP3    H257597   2.974   5.655   4.430 -0.5569 -0.3575  0.9741
12036TIP3   OH257598   6.146   1.024  10.711 -0.5388  0.2811 -0.2932
12036TIP3    H157599   6.161   1.095  10.649  1.3810 -1.2892 -1.7331
12036TIP3    H257600   6.053   1.004  10.702 -0.2404 -0.1893 -3.0717
12037TIP3   OH257601   2.014   2.635  16.571  0.1185  0.2971 -0.3864
12037TIP3    H157602   1.996   2.680  16.654 -0.7276  0.0570 -0.4271
12037TIP3    H257603   1.933   2.587  16.552  0.6820 -0.5155 -0.8056
12038TIP3   OH257604   6.735   1.461  10.893  0.1082  0.1496  0.4755
12038TIP3    H157605   6.824   1.490  10.872 -0.1430  1.9448  1.6675
12038TIP3    H257606   6.684   1.481  10.815  0.1050  2.3353  0.9738
12039TIP3   OH257607   3.539   4.292   1.082  0.3129  0.3734 -0.0883
12039TIP3    H157608   3.559   4.199   1.087 -1.0909  0.0276 -0.6515
12039TIP3    H257609   3.625   4.334   1.077  1.0370 -0.7343  2.0529
12040TIP3   OH257610   1.226   0.934   3.779 -0.0635 -0.2948  0.4123
12040TIP3    H157611   1.206   0.953   3.687 -1.3859 -1.9272  0.3042
12040TIP3    H257612   1.319   0.909   3.778 -0.2851 -1.1957 -0.6738
12041TIP3   OH257613   1.441   5.785   5.470  0.5780  0.1561 -0.8510
12041TIP3    H157614   1.427   5.756   5.380  1.7215  1.0425 -1.3438
12041TIP3    H257615   1.520   5.738   5.498  0.0655 -0.3321 -0.2014
12042TIP3   OH257616   2.963   1.070  14.438 -0.1488  0.2684 -0.6994
12042TIP3    H157617   2.936   1.009  14.507 -2.5830  3.3362  1.3817
12042TIP3    H257618   2.912   1.043  14.362 -2.4692  0.5061  0.6456
12043TIP3   OH257619   2.699   2.547  11.525  1.0062 -0.1754  0.6532
12043TIP3    H157620   2.662   2.608  11.589  0.5784 -0.2194  0.4541
12043TIP3    H257621   2.785   2.583  11.505  1.6266 -0.7760  2.0874
12044TIP3   OH257622   4.910   0.526   1.315  0.7933 -0.2765 -0.1249
12044TIP3    H157623   4.931   0.497   1.404  0.1162  0.7105  0.3812
12044TIP3    H257624   4.896   0.621   1.324  0.2506 -0.2414 -1.1965
12045TIP3   OH257625   3.118   3.902  16.282 -0.9784 -0.4947  1.2719
12045TIP3    H157626   3.145   3.919  16.372  0.1173  1.9276  0.5683
12045TIP3    H257627   3.043   3.960  16.269  0.5488  1.2734 -0.1264
12046TIP3   OH257628   2.515   1.272  11.530 -0.3952  0.4328 -0.3058
12046TIP3    H157629   2.576   1.222  11.475 -1.5838  0.3342 -1.5911
12046TIP3    H257630   2.547   1.362  11.526 -0.2305  0.3530 -0.8015
12047TIP3   OH257631   1.529   3.403   0.913  0.0374  0.3061 -0.4801
12047TIP3    H157632   1.511   3.417   0.820 -3.0829 -1.8847 -0.3630
12047TIP3    H257633   1.523   3.308   0.924  0.2701  0.5295  1.9678
12048TIP3   OH257634   3.458   5.513  10.429 -0.2822  0.1440  0.1769
12048TIP3    H157635   3.487   5.595  10.391  1.5594  0.0513  1.2996
12048TIP3    H257636   3.370   5.532  10.463 -0.6093  1.1134 -1.1421
12049TIP3   OH257637   4.856   1.237  16.443 -0.3784 -0.2498 -0.0116
12049TIP3    H157638   4.810   1.230  16.359 -0.3135  0.8654 -0.1467
12049TIP3    H257639   4.867   1.331  16.457 -0.5568 -0.4130  1.3488
12050TIP3   OH257640   4.661   0.847  15.449  0.0972 -0.0697  0.0845
12050TIP3    H157641   4.688   0.790  15.522  1.7782  1.0505  0.4000
12050TIP3    H257642   4.665   0.790  15.372 -1.5248 -1.2260  0.7735
12051TIP3   OH257643   1.689   2.123   4.973 -0.3863 -0.1741  0.3055
12051TIP3    H157644   1.684   2.029   4.955  0.3576 -0.3064  0.7373
12051TIP3    H257645   1.755   2.156   4.912 -1.2818  0.2366 -0.4567
12052TIP3   OH257646   5.332   6.879  14.629 -0.3410 -0.3149  0.2047
12052TIP3    H157647   5.239   6.900  14.639 -0.0593  0.4246  1.4095
12052TIP3    H257648   5.371   6.959  14.596 -0.2595 -0.9275 -1.2965
12053TIP3   OH257649   3.211   3.986  12.488 -0.5133 -0.2809  0.7959
12053TIP3    H157650   3.264   3.924  12.538 -0.5589 -0.9142  0.0874
12053TIP3    H257651   3.269   4.060  12.472  0.5974 -1.4495 -0.9625
12054TIP3   OH257652   6.812   0.758  14.724  0.1171 -0.0056  0.0751
12054TIP3    H157653   6.778   0.739  14.637 -0.3875  1.3446 -0.0501
12054TIP3    H257654   6.894   0.710  14.729  0.1503 -0.1041 -1.1360
12055TIP3   OH257655   3.413   1.122  15.356  0.1559 -0.1942  0.0459
12055TIP3    H157656   3.470   1.086  15.423  2.1596  0.7840 -1.0583
12055TIP3    H257657   3.340   1.161  15.404  0.2674 -1.6329  1.4757
12056TIP3   OH257658   4.198   2.234   4.358 -0.2979 -0.2187 -0.7433
12056TIP3    H157659   4.235   2.205   4.275 -0.5983  0.7129 -1.2044
12056TIP3    H257660   4.169   2.324   4.343  1.8291  0.8680  1.0305
12057TIP3   OH257661   2.346   6.519  16.644  0.5254  0.7754 -0.6605
12057TIP3    H157662   2.301   6.483  16.568 -0.2577  1.7578 -0.6863
12057TIP3    H257663   2.343   6.614  16.631  0.0473  0.9788  0.7788
12058TIP3   OH257664   4.564   6.451   3.692  0.2345  0.0783  0.1094
12058TIP3    H157665   4.609   6.373   3.659 -0.3023 -0.0743 -0.2786
12058TIP3    H257666   4.617   6.525   3.662  0.5592 -0.1214  0.1876
12059TIP3   OH257667   1.614   0.363   1.405  0.3577 -0.0842  0.1123
12059TIP3    H157668   1.615   0.345   1.499  0.1182 -0.1615  0.1025
12059TIP3    H257669   1.604   0.276   1.365  0.5330 -0.0585  0.0140
12060TIP3   OH257670   2.965   2.263   3.001 -0.1867 -0.2238  0.5431
12060TIP3    H157671   2.873   2.288   3.011  0.3516  2.3871 -0.1581
12060TIP3    H257672   2.998   2.256   3.090 -1.0765 -1.4233  0.8088
12061TIP3   OH257673   4.759   3.846  10.562  0.5636 -0.1768  0.2072
12061TIP3    H157674   4.695   3.906  10.601 -0.3736 -1.6673  1.0722
12061TIP3    H257675   4.745   3.853  10.468 -0.1840  0.2699  0.3502
12062TIP3   OH257676   4.266   2.984   0.635 -0.3462  0.0635  0.1050
12062TIP3    H157677   4.242   3.024   0.719 -1.1770  0.7356 -0.4426
12062TIP3    H257678   4.329   3.045   0.597 -0.9352  0.4208 -0.3229
12063TIP3   OH257679   5.531   5.788  15.953  0.5329 -0.2922 -0.1397
12063TIP3    H157680   5.598   5.815  15.890  1.4512  1.7436  1.5889
12063TIP3    H257681   5.484   5.868  15.974  1.2719 -0.5303  2.8730
12064TIP3   OH257682   2.499   2.987   3.684 -0.0066  0.2100  0.1413
12064TIP3    H157683   2.505   3.012   3.776  1.3384  0.6631 -0.0411
12064TIP3    H257684   2.461   3.064   3.641 -1.1469 -0.2085  0.3903
12065TIP3   OH257685   6.827   6.714  14.725  0.7279  0.8759 -0.1054
12065TIP3    H157686   6.749   6.660  14.738  2.6708 -2.2406 -0.3301
12065TIP3    H257687   6.886   6.686  14.795  1.9176  2.6313 -0.3759
12066TIP3   OH257688   4.285   3.702   5.285 -0.1061 -0.4312 -0.3202
12066TIP3    H157689   4.260   3.774   5.343  0.1810 -0.4802 -0.1320
12066TIP3    H257690   4.256   3.623   5.330  1.3158 -0.5696  0.4256
12067TIP3   OH257691   4.203   4.245   5.267 -0.4788 -0.3803  0.2400
12067TIP3    H157692   4.175   4.216   5.180 -2.4905  1.0794  0.3176
12067TIP3    H257693   4.139   4.206   5.326  0.4552 -0.7702  1.0128
12068TIP3   OH257694   6.171   2.649   5.319  0.4621 -0.2530  0.2520
12068TIP3    H157695   6.124   2.580   5.365  0.4185 -0.9057 -0.7446
12068TIP3    H257696   6.114   2.726   5.327  0.2608 -0.4655  0.9107
12069TIP3   OH257697   6.211   4.075  11.452 -0.5253  0.1111  0.2671
12069TIP3    H157698   6.205   4.042  11.542 -0.3050 -0.5335  0.0485
12069TIP3    H257699   6.126   4.116  11.436 -1.1680 -1.1959  0.2230
12070TIP3   OH257700   3.747   6.780  16.617  0.0387 -0.3632 -0.3322
12070TIP3    H157701   3.836   6.799  16.647  0.7648 -2.0324 -1.3082
12070TIP3    H257702   3.728   6.849  16.553  0.3756  0.3698  0.3498
12071TIP3   OH257703   2.736   1.118   5.896  0.0944 -0.4070  0.1231
12071TIP3    H157704   2.706   1.130   5.806 -1.5488  0.2111  0.7205
12071TIP3    H257705   2.830   1.136   5.892  0.2875 -1.5950 -1.6733
12072TIP3   OH257706   6.441   6.676   1.847 -0.3958 -0.3093 -0.6267
12072TIP3    H157707   6.456   6.582   1.857  0.0461 -0.0918  0.9767
12072TIP3    H257708   6.444   6.711   1.936 -0.6868  1.2159 -1.1795
12073TIP3   OH257709   0.950   4.513   2.998  0.4977 -0.1063  0.5845
12073TIP3    H157710   0.980   4.559   3.077 -2.1430 -1.8662  2.7978
12073TIP3    H257711   0.883   4.570   2.962 -0.2929 -0.5620  1.2985
12074TIP3   OH257712   3.388   1.215  13.405  0.0327  0.3385 -0.6624
12074TIP3    H157713   3.466   1.253  13.364  0.3977 -1.6035 -1.9286
12074TIP3    H257714   3.333   1.290  13.426  0.5519  1.5892 -3.2725
12075TIP3   OH257715   6.359   5.486  13.253  0.0967  0.8237 -0.1598
12075TIP3    H157716   6.431   5.536  13.293 -0.2411  0.3546  1.0563
12075TIP3    H257717   6.294   5.478  13.323  0.0546 -1.1493 -0.3886
12076TIP3   OH257718   5.552   2.304  11.969  0.3835  0.5031 -0.1223
12076TIP3    H157719   5.583   2.225  12.014  0.0129 -0.4218 -1.4303
12076TIP3    H257720   5.598   2.376  12.012  0.4499 -0.3907  1.3376
12077TIP3   OH257721   4.742   4.044   0.433  0.2666  0.1225 -0.2926
12077TIP3    H157722   4.702   4.126   0.462  0.8924  0.8185 -1.3547
12077TIP3    H257723   4.759   3.996   0.514  0.7247  1.4285  0.4126
12078TIP3   OH257724   1.979   3.354  16.540  0.6243  0.1837 -0.0165
12078TIP3    H157725   1.884   3.352  16.553  0.4470  0.1558 -1.1530
12078TIP3    H257726   2.004   3.261  16.538  0.3581  0.1199 -1.6372
12079TIP3   OH257727   4.635   3.617  12.917  0.1465  0.2900 -0.3221
12079TIP3    H157728   4.670   3.603  12.829 -1.1092 -1.3439 -0.6103
12079TIP3    H257729   4.589   3.701  12.911 -0.0258  0.1385 -1.2651
12080TIP3   OH257730   2.600   2.684   0.471  0.6268  0.1352  0.0982
12080TIP3    H157731   2.547   2.604   0.469  0.9558 -0.1068  0.6825
12080TIP3    H257732   2.540   2.752   0.441 -0.4170  0.0709  1.8597
12081TIP3   OH257733   3.026   1.152  13.769  0.3859  0.0097 -0.3838
12081TIP3    H157734   2.962   1.201  13.717 -1.7468 -0.3320  1.7861
12081TIP3    H257735   3.091   1.218  13.795 -0.7946  1.0479  0.0003
12082TIP3   OH257736   4.025   6.010  12.416  0.3572  0.1941  0.6342
12082TIP3    H157737   3.955   5.963  12.462  0.8159 -0.8849  0.2389
12082TIP3    H257738   4.046   5.955  12.341 -0.7478  2.1817 -1.2320
12083TIP3   OH257739   2.217   4.042  12.748  0.3177 -0.1270  0.8082
12083TIP3    H157740   2.241   4.102  12.818  0.7914  1.2715 -0.5069
12083TIP3    H257741   2.298   4.028  12.699  0.0464 -1.2637  0.6444
12084TIP3   OH257742   4.350   4.912  10.898 -0.1606 -0.2104  0.1477
12084TIP3    H157743   4.317   4.925  10.987  4.3922  0.4728  2.0066
12084TIP3    H257744   4.352   5.000  10.860  0.6535 -0.0515  0.5384
12085TIP3   OH257745   1.966   1.998  13.505  0.1169 -0.1614  0.5688
12085TIP3    H157746   1.972   1.947  13.424  0.3100 -0.4229  0.7450
12085TIP3    H257747   1.880   1.975  13.540 -0.2389  0.4478  0.1155
12086TIP3   OH257748   0.890   3.840   2.803  0.0970 -0.1721  1.0434
12086TIP3    H157749   0.836   3.913   2.832 -1.3237 -1.4133  1.6850
12086TIP3    H257750   0.953   3.828   2.874 -0.5815 -0.4461  1.6166
12087TIP3   OH257751   1.081   2.023   4.389  0.4369 -0.3685  0.1022
12087TIP3    H157752   1.134   2.068   4.323 -0.2479  0.5756  0.1743
12087TIP3    H257753   1.143   2.004   4.460  1.0791 -0.9784 -0.5984
12088TIP3   OH257754   4.902   6.097   4.086 -0.5825 -0.0650  0.4028
12088TIP3    H157755   4.971   6.043   4.125  0.0988  1.0600  0.7875
12088TIP3    H257756   4.947   6.149   4.020 -1.5966 -1.4447 -1.4767
12089TIP3   OH257757   5.169   6.025   3.159  0.2942  0.7150 -0.1316
12089TIP3    H157758   5.099   6.015   3.093  0.8677  1.7292 -0.9239
12089TIP3    H257759   5.137   6.094   3.217  0.6290  1.1682 -0.4851
12090TIP3   OH257760   4.748   4.595   5.891  0.1426 -0.1753 -0.0719
12090TIP3    H157761   4.827   4.581   5.839  0.4368  0.2850  0.2442
12090TIP3    H257762   4.701   4.664   5.846  1.1596  1.3439  1.0836
12091TIP3   OH257763   6.535   4.387  14.952 -0.4256  0.0839  0.1261
12091TIP3    H157764   6.466   4.421  14.895 -1.2870  1.0805  1.7006
12091TIP3    H257765   6.599   4.457  14.957 -0.6306  0.2249  0.8199
12092TIP3   OH257766   4.721   1.973   2.181  0.0341 -0.1506 -0.1280
12092TIP3    H157767   4.811   1.942   2.184 -0.6353 -2.1032  2.8571
12092TIP3    H257768   4.726   2.063   2.214  0.6328 -1.1718  2.7949
12093TIP3   OH257769   4.467   0.411  14.387  0.0353 -0.2050 -0.3265
12093TIP3    H157770   4.398   0.450  14.333  0.2561  0.5629 -0.0670
12093TIP3    H257771   4.435   0.420  14.477  1.3090  1.9694 -0.0297
12094TIP3   OH257772   3.073   2.771  10.761  0.5762  0.1349 -0.1744
12094TIP3    H157773   3.009   2.704  10.739  2.7153 -2.7681  1.7456
12094TIP3    H257774   3.049   2.798  10.850  1.3148 -0.0906  0.0964
12095TIP3   OH257775   2.178   5.034   2.230 -0.6766  0.2689  0.5456
12095TIP3    H157776   2.231   5.012   2.307  0.5967  0.6759 -0.1756
12095TIP3    H257777   2.125   4.956   2.214 -0.8690  0.1320  1.7541
12096TIP3   OH257778   5.612   3.445  12.052  0.3742  0.3185  0.3075
12096TIP3    H157779   5.691   3.391  12.044 -0.4304 -0.9949  0.8085
12096TIP3    H257780   5.540   3.381  12.059 -0.5689  1.4573  1.4772
12097TIP3   OH257781   0.297   0.625  11.649 -0.1387 -0.1302  0.1637
12097TIP3    H157782   0.313   0.713  11.683 -0.5385  0.0741 -0.1795
12097TIP3    H257783   0.202   0.615  11.650 -0.0867 -0.7311  0.6271
12098TIP3   OH257784   4.560   0.846  16.729  0.8046 -0.3760  0.1083
12098TIP3    H157785   4.539   0.790  16.655  1.2514 -0.9086  0.3733
12098TIP3    H257786   4.625   0.796  16.779 -1.0844 -1.0242  2.0432
12099TIP3   OH257787   0.856   5.397  13.693 -0.9426 -0.3090  0.5417
12099TIP3    H157788   0.823   5.453  13.622 -0.0382  1.0969  1.1797
12099TIP3    H257789   0.781   5.385  13.751 -0.9002  1.1660  0.9425
12100TIP3   OH257790   2.184   0.115   4.287  0.2776  0.2062  0.7165
12100TIP3    H157791   2.182   0.210   4.276  0.8184  0.2404  0.8658
12100TIP3    H257792   2.276   0.092   4.277 -0.0308 -0.4863 -0.7180
12101TIP3   OH257793   1.395   6.740  13.262 -0.6708 -0.3315  0.2717
12101TIP3    H157794   1.396   6.836  13.258 -1.3972 -0.3221  0.1820
12101TIP3    H257795   1.351   6.720  13.345  1.3118 -0.5956  1.3314
12102TIP3   OH257796   1.023   6.693  12.559  0.7718 -0.1605 -0.1490
12102TIP3    H157797   1.109   6.683  12.599  0.2756  0.2911  1.0820
12102TIP3    H257798   0.994   6.604  12.540  0.2880 -0.5305  2.1436
12103TIP3   OH257799   4.832   5.689  15.525 -0.3032  0.0238 -0.0114
12103TIP3    H157800   4.921   5.705  15.555 -1.4898  2.2136  2.8798
12103TIP3    H257801   4.796   5.777  15.509 -2.4614 -0.6533  0.7873
12104TIP3   OH257802   4.952   0.122   1.135 -0.0035 -0.1843 -0.0411
12104TIP3    H157803   4.866   0.162   1.148 -1.1871 -2.2139 -1.1611
12104TIP3    H257804   5.000   0.141   1.215 -1.9544 -0.1142  1.1715
12105TIP3   OH257805   4.389   1.214   2.249  0.2917 -0.8250 -0.2153
12105TIP3    H157806   4.480   1.208   2.219  0.3386  0.3772 -0.3697
12105TIP3    H257807   4.347   1.272   2.185  0.4158  1.8700  1.9605
12106TIP3   OH257808   1.405   5.159  12.813 -0.0814 -0.7383 -0.6165
12106TIP3    H157809   1.326   5.214  12.821 -0.0456 -0.8476  0.6886
12106TIP3    H257810   1.459   5.184  12.888  1.7284  0.2414 -2.1640
12107TIP3   OH257811   0.404   6.047  15.998 -0.0411  0.4292 -0.7677
12107TIP3    H157812   0.418   5.969  15.944 -1.4447 -1.3205  1.2591
12107TIP3    H257813   0.309   6.061  15.994  0.0628  1.3542 -0.1829
12108TIP3   OH257814   5.392   5.169  15.558 -0.6575  0.3411 -0.8924
12108TIP3    H157815   5.455   5.197  15.625 -1.0884  0.9805 -0.7495
12108TIP3    H257816   5.396   5.238  15.491 -4.4000  2.8671  1.1537
12109TIP3   OH257817   4.771   6.778  11.319  0.1064  0.3115  0.0892
12109TIP3    H157818   4.701   6.727  11.358 -0.0307  0.4512  0.0245
12109TIP3    H257819   4.851   6.739  11.355 -0.0156  0.4151  0.4767
12110TIP3   OH257820   6.466   5.387  15.362  0.5814 -0.4485 -0.3011
12110TIP3    H157821   6.454   5.463  15.419  1.2820 -0.0153 -0.7132
12110TIP3    H257822   6.449   5.312  15.418  0.9178 -0.0190  0.3899
12111TIP3   OH257823   2.287   4.092  13.915  0.3946  0.3371 -0.3304
12111TIP3    H157824   2.227   4.038  13.967  0.1887  0.9575  0.0845
12111TIP3    H257825   2.364   4.036  13.902 -0.0396 -0.2615 -0.3888
12112TIP3   OH257826   2.879   0.792  15.705  0.4431 -0.1258  0.1108
12112TIP3    H157827   2.788   0.797  15.676  0.8098 -0.9800 -1.3211
12112TIP3    H257828   2.915   0.878  15.685  0.0705  0.0555  0.2104
12113TIP3   OH257829   1.080   1.253  15.970 -0.2503  0.2554  0.3296
12113TIP3    H157830   1.084   1.217  16.058  0.2346 -0.5886 -0.0231
12113TIP3    H257831   1.095   1.347  15.981  0.3097  0.0827  1.0914
12114TIP3   OH257832   5.700   2.860   2.225 -0.1699  0.0069  0.5701
12114TIP3    H157833   5.791   2.890   2.229  0.3368 -1.5474  1.8298
12114TIP3    H257834   5.664   2.902   2.147  1.7571  0.3196 -0.2127
12115TIP3   OH257835   0.042   3.387  11.165  0.4109 -0.1133  0.2799
12115TIP3    H157836   0.112   3.341  11.211 -0.1089 -1.5435 -0.3178
12115TIP3    H257837   0.014   3.454  11.226  2.0665  0.2875  0.6638
12116TIP3   OH257838   5.072   5.348  14.362  0.2984 -0.1624 -0.1541
12116TIP3    H157839   4.994   5.296  14.380  0.4093 -0.8209 -1.5026
12116TIP3    H257840   5.054   5.389  14.277  0.7994  0.9008  0.2348
12117TIP3   OH257841   1.298   0.061  12.332 -0.0566  0.2964  0.3692
12117TIP3    H157842   1.389   0.066  12.304 -0.5575  1.3170 -1.2011
12117TIP3    H257843   1.286   0.137  12.389 -0.3403  1.1459 -0.7906
12118TIP3   OH257844   1.326   1.668  14.168 -0.0601 -0.3538  0.3395
12118TIP3    H157845   1.408   1.677  14.217  0.0665 -1.0135  0.2614
12118TIP3    H257846   1.352   1.684  14.077  0.1535 -1.3935  0.2077
12119TIP3   OH257847   6.692   3.123   4.598 -0.4798 -0.4596  0.4644
12119TIP3    H157848   6.645   3.202   4.625 -0.7942 -0.1948 -0.8049
12119TIP3    H257849   6.626   3.068   4.556  0.2320 -0.2442 -1.0136
12120TIP3   OH257850   4.352   3.777  14.308  0.0880  0.1398 -0.1970
12120TIP3    H157851   4.427   3.827  14.340 -0.3614 -0.2752  1.5961
12120TIP3    H257852   4.389   3.720  14.241  0.9131  1.6311 -1.0544
12121TIP3   OH257853   2.481   0.390   2.082  0.2804 -0.0431  0.0087
12121TIP3    H157854   2.423   0.417   2.154  0.2375 -1.8606  0.6973
12121TIP3    H257855   2.455   0.300   2.063  0.8000  0.1593 -1.8007
12122TIP3   OH257856   6.088   3.818  11.505  0.0188 -0.4410 -0.2342
12122TIP3    H157857   6.132   3.886  11.557  1.3647 -0.5814 -1.1448
12122TIP3    H257858   6.143   3.741  11.516  0.0007 -0.6323 -1.4024
12123TIP3   OH257859   0.491   0.696   4.008  0.2432  0.2761  0.0591
12123TIP3    H157860   0.552   0.723   4.077  2.3472 -1.5239 -0.9578
12123TIP3    H257861   0.408   0.682   4.054  1.0674  0.9779  1.8731
12124TIP3   OH257862   5.286   3.730  16.709 -0.0992 -0.0240 -0.2767
12124TIP3    H157863   5.303   3.728  16.615  0.1263 -1.3889 -0.2273
12124TIP3    H257864   5.317   3.645  16.741 -1.3168 -0.0917  0.8290
12125TIP3   OH257865   2.274   6.495  11.636  0.0651 -0.2017 -0.3264
12125TIP3    H157866   2.323   6.424  11.677  1.5532  0.4401 -0.9278
12125TIP3    H257867   2.341   6.556  11.606 -1.1656  1.2451 -0.2280
12126TIP3   OH257868   5.064   3.913  12.683  0.1123 -0.8091 -0.0187
12126TIP3    H157869   5.083   4.004  12.707 -1.5792  0.3115 -2.4410
12126TIP3    H257870   5.075   3.863  12.764  1.5807  1.4517  1.2801
12127TIP3   OH257871   6.363   6.741   2.497  0.3219  0.3766 -0.0618
12127TIP3    H157872   6.436   6.693   2.458  0.5037  1.0089 -0.5142
12127TIP3    H257873   6.383   6.743   2.591  0.6316  0.1111 -0.1197
12128TIP3   OH257874   4.626   2.794   0.043 -0.2209 -0.0698  0.1203
12128TIP3    H157875   4.612   2.878   0.086 -1.0731 -0.4866  0.6883
12128TIP3    H257876   4.561   2.792  -0.027  0.7476  0.3395 -0.8148
12129TIP3   OH257877   1.603   3.402   0.611  0.2386  0.2285  0.2683
12129TIP3    H157878   1.631   3.468   0.547  1.5962  2.3622  2.8797
12129TIP3    H257879   1.652   3.324   0.587 -2.1599 -0.3670 -3.5359
12130TIP3   OH257880   4.734   4.422   0.126  0.3228  0.1521  0.1830
12130TIP3    H157881   4.804   4.367   0.090  1.5854  0.7900  1.5357
12130TIP3    H257882   4.737   4.406   0.221 -1.9010 -0.3730  0.2202
12131TIP3   OH257883   2.178   3.509   5.503 -0.0335  0.1202  0.2181
12131TIP3    H157884   2.145   3.589   5.463 -2.4590 -0.0889  1.5847
12131TIP3    H257885   2.235   3.470   5.437 -2.6507  0.4857 -2.4574
12132TIP3   OH257886   1.580   6.800   1.812  0.2688 -0.0951 -0.1931
12132TIP3    H157887   1.663   6.811   1.858 -0.7444  0.3937  1.6254
12132TIP3    H257888   1.585   6.713   1.772  1.6478 -0.0558 -0.1305
12133TIP3   OH257889   1.323   1.576  16.183 -0.2101  0.1150  0.6231
12133TIP3    H157890   1.335   1.659  16.138 -2.3518  1.0838  1.6766
12133TIP3    H257891   1.299   1.514  16.114  1.2114  0.3807 -0.1404
12134TIP3   OH257892   1.688   6.024   1.421  0.0732  0.0965  0.3462
12134TIP3    H157893   1.726   5.946   1.382  1.6705  0.9010  0.2019
12134TIP3    H257894   1.704   6.015   1.515 -1.9873 -0.8963  0.6469
12135TIP3   OH257895   1.915   6.392   3.346 -0.1328 -0.2644 -0.6167
12135TIP3    H157896   1.840   6.412   3.291 -2.0268 -1.2278  1.4181
12135TIP3    H257897   1.903   6.448   3.424  1.3864 -0.2893 -0.3341
12136TIP3   OH257898   1.687   3.457  14.401  0.3558  0.1708  0.3227
12136TIP3    H157899   1.727   3.527  14.452  0.8540  0.0010  0.1705
12136TIP3    H257900   1.758   3.423  14.347 -0.0199 -0.0617 -0.0343
12137TIP3   OH257901   2.970   0.976   2.006  0.0841 -0.0732  0.0413
12137TIP3    H157902   2.929   0.891   1.990  1.3574 -0.3328 -2.3257
12137TIP3    H257903   2.910   1.039   1.968  0.3177 -0.1703 -0.5055
12138TIP3   OH257904   4.001   5.629  14.361 -0.2063 -0.0072  0.2234
12138TIP3    H157905   4.044   5.659  14.281 -1.5227 -0.2843 -0.6342
12138TIP3    H257906   4.024   5.536  14.366  0.5318  0.1940  0.6153
12139TIP3   OH257907   2.347   3.377   1.064 -0.5212 -0.1100 -0.3739
12139TIP3    H157908   2.434   3.415   1.073 -1.0196  0.5196  2.7757
12139TIP3    H257909   2.295   3.419   1.132 -2.7319 -2.0527 -0.7367
12140TIP3   OH257910   1.212   5.544   3.929 -0.5072 -0.3441  0.7714
12140TIP3    H157911   1.254   5.461   3.951  1.2042  0.4633  0.6982
12140TIP3    H257912   1.189   5.536   3.837  0.0153 -0.5935  0.6618
12141TIP3   OH257913   6.134   4.877  12.269  0.3570 -0.1266 -0.1811
12141TIP3    H157914   6.127   4.922  12.353  3.0511 -1.1926  0.7323
12141TIP3    H257915   6.044   4.873  12.236 -0.2654  4.4355  0.3533
12142TIP3   OH257916   5.592   5.595  11.720  0.3707  0.0555  0.6891
12142TIP3    H157917   5.680   5.561  11.701  1.2139  1.7361  1.3652
12142TIP3    H257918   5.546   5.520  11.759  1.7042 -0.6950  0.9032
12143TIP3   OH257919   1.305   4.402   1.288 -0.0684 -0.2589  0.4124
12143TIP3    H157920   1.356   4.481   1.272 -1.1631  0.7910  1.8801
12143TIP3    H257921   1.246   4.396   1.213  0.2424  0.0993  0.1318
12144TIP3   OH257922   6.877   3.107  11.272 -0.6174  0.1900  1.0223
12144TIP3    H157923   6.801   3.144  11.318  0.2514 -0.6461  3.2504
12144TIP3    H257924   6.953   3.140  11.320  0.5212  1.1676 -1.2805
12145TIP3   OH257925   3.049   6.639   2.677  0.0817 -0.2619  0.4993
12145TIP3    H157926   3.057   6.713   2.737  0.2515  0.4919 -0.4286
12145TIP3    H257927   3.125   6.647   2.619  0.5870 -1.6752  0.9230
12146TIP3   OH257928   5.453   6.836   4.032  0.1011 -0.4874  0.2054
12146TIP3    H157929   5.387   6.803   4.094  0.4719 -0.9812  0.3426
12146TIP3    H257930   5.401   6.870   3.959 -0.3542  0.4226  0.9247
12147TIP3   OH257931   6.241   5.527  15.700 -0.2551 -0.2291  0.0160
12147TIP3    H157932   6.175   5.459  15.682 -0.3666 -0.3060  0.7087
12147TIP3    H257933   6.293   5.491  15.772  0.1466  0.1094 -0.1039
12148TIP3   OH257934   0.766   2.278  10.419  0.3482  0.0084 -0.4806
12148TIP3    H157935   0.817   2.201  10.395  0.2475 -0.8951  2.0024
12148TIP3    H257936   0.796   2.302  10.506 -2.8691 -0.1182  0.7944
12149TIP3   OH257937   3.593   1.186  10.410 -0.2499  0.0301  0.5010
12149TIP3    H157938   3.609   1.140  10.328  0.1239  0.4643  0.3199
12149TIP3    H257939   3.570   1.275  10.383  0.0432  0.2209  0.8726
12150TIP3   OH257940   3.948   1.302  13.007 -0.3057 -0.3997 -0.1252
12150TIP3    H157941   3.986   1.387  12.989 -1.0605 -0.2578 -1.1368
12150TIP3    H257942   3.867   1.321  13.054  0.0045 -0.6193  0.5172
12151TIP3   OH257943   1.946   6.131   3.961  0.0346 -0.3154  0.2928
12151TIP3    H157944   1.927   6.187   4.036  1.5997 -0.4610  0.8232
12151TIP3    H257945   1.859   6.106   3.928 -0.7389  2.7405 -0.2687
12152TIP3   OH257946   6.285   2.383   0.920 -0.0268 -1.1168 -0.7065
12152TIP3    H157947   6.256   2.474   0.928  2.3739 -0.4020  1.4070
12152TIP3    H257948   6.259   2.342   1.003 -0.2229 -2.0952 -1.2338
12153TIP3   OH257949   5.355   1.360   6.012 -0.3767  0.9759 -0.1785
12153TIP3    H157950   5.319   1.440   6.050  0.4815  1.7868 -0.9884
12153TIP3    H257951   5.409   1.391   5.939  0.1766 -0.3294 -0.3555
12154TIP3   OH257952   4.429   1.572   1.494 -0.6590 -0.0916  0.5084
12154TIP3    H157953   4.375   1.620   1.430  0.6229  1.4265  0.5097
12154TIP3    H257954   4.510   1.553   1.448 -0.0956  0.1520  1.3803
12155TIP3   OH257955   3.943   3.735   2.414  0.3185 -0.1000  0.4168
12155TIP3    H157956   3.918   3.791   2.340  1.6569  1.7115  1.2705
12155TIP3    H257957   3.963   3.650   2.373  2.2017  1.1752 -1.5049
12156TIP3   OH257958   4.543   0.558   2.084 -0.3256 -0.2116 -0.0015
12156TIP3    H157959   4.613   0.503   2.050  0.8941  0.7588  0.8543
12156TIP3    H257960   4.528   0.623   2.015  0.1889  0.0735  0.1559
12157TIP3   OH257961   2.246   1.192   3.978  0.4121  0.2096  0.3352
12157TIP3    H157962   2.200   1.118   4.019  0.1681  0.5548  0.7061
12157TIP3    H257963   2.314   1.152   3.925 -0.7601 -0.3624 -0.8085
12158TIP3   OH257964   0.479   6.174  12.510  0.1747  0.1257  0.1377
12158TIP3    H157965   0.481   6.202  12.602  0.2924  0.6406 -0.0214
12158TIP3    H257966   0.544   6.229  12.466  0.9641 -0.9176 -0.0388
12159TIP3   OH257967   0.055   4.476  16.570 -0.3949  0.1342 -0.0152
12159TIP3    H157968  -0.016   4.498  16.510  0.6174  0.1007 -1.2797
12159TIP3    H257969   0.097   4.560  16.589  1.6927 -0.1921 -2.5518
12160TIP3   OH257970   3.920   3.696   2.121  0.4952  0.0706 -0.5488
12160TIP3    H157971   3.945   3.610   2.155  1.8223  0.9562  0.8148
12160TIP3    H257972   3.892   3.678   2.031 -0.0922 -1.8935 -0.0456
12161TIP3   OH257973   0.295   2.214  14.427 -0.1828 -0.3759 -0.2922
12161TIP3    H157974   0.226   2.188  14.487 -0.4156  0.1598 -0.3209
12161TIP3    H257975   0.250   2.232  14.344  0.3944 -3.4726 -1.3994
12162TIP3   OH257976   2.968   6.100   5.365  0.0003 -0.3497 -0.0465
12162TIP3    H157977   2.946   6.172   5.308 -0.4352 -0.8310 -0.4944
12162TIP3    H257978   3.008   6.141   5.442  0.5399  0.3025 -0.6681
12163TIP3   OH257979   5.194   2.523   1.100  0.0748  0.2293 -0.4436
12163TIP3    H157980   5.146   2.469   1.038 -0.5539  0.5686 -0.2561
12163TIP3    H257981   5.129   2.548   1.166  0.7183 -0.0816  0.3212
12164TIP3   OH257982   3.030   6.551   4.690  0.3894  0.1897 -0.6062
12164TIP3    H157983   3.041   6.550   4.595 -0.3197 -0.8234 -0.6924
12164TIP3    H257984   2.989   6.467   4.711 -2.2358  1.5611  0.2476
12165TIP3   OH257985   6.455   5.841  16.135  0.8106 -0.5260  0.5610
12165TIP3    H157986   6.524   5.776  16.123  2.5356  1.3686 -0.2057
12165TIP3    H257987   6.414   5.850  16.049 -0.7423 -1.9014  1.0847
12166TIP3   OH257988   1.530   1.039  12.568 -0.3600  0.2218  0.3433
12166TIP3    H157989   1.483   0.956  12.581 -2.6083  1.2977 -0.3724
12166TIP3    H257990   1.576   1.054  12.650 -0.4493 -1.3916  0.7268
12167TIP3   OH257991   3.858   1.799   9.840 -0.0106 -0.4526  0.3639
12167TIP3    H157992   3.895   1.873   9.887 -0.3828 -0.4005  0.5793
12167TIP3    H257993   3.874   1.724   9.898 -1.2817 -0.2541  1.0317
12168TIP3   OH257994   3.990   4.514   3.801 -0.9539  0.0070  0.0975
12168TIP3    H157995   4.014   4.423   3.820 -0.2001 -0.0532 -1.0660
12168TIP3    H257996   3.953   4.546   3.883  2.0336 -0.2800  1.7260
12169TIP3   OH257997   4.138   2.874   2.505 -0.4249  0.5423  0.1785
12169TIP3    H157998   4.125   2.900   2.413 -0.8131 -0.1107  0.0376
12169TIP3    H257999   4.066   2.814   2.522 -0.4413  0.7833  0.9687
12170TIP3   OH258000   4.963   4.986  13.362  0.8645  0.1579  0.0112
12170TIP3    H158001   5.043   5.034  13.381  0.2713  0.8697  0.7815
12170TIP3    H258002   4.979   4.945  13.277  1.1129  2.3307 -1.0487
12171TIP3   OH258003   1.461   0.777   4.888 -0.1798 -0.9745 -0.4641
12171TIP3    H158004   1.521   0.768   4.815  1.2140 -0.0437  0.5216
12171TIP3    H258005   1.514   0.759   4.966 -0.4229  2.3191  0.6460
12172TIP3   OH258006   2.815   3.657  11.581  0.0974  0.8409 -0.5588
12172TIP3    H158007   2.792   3.711  11.657 -0.0490  0.6715 -0.4817
12172TIP3    H258008   2.808   3.716  11.507  2.1270  1.5366 -0.2472
12173TIP3   OH258009   3.830   2.395  15.386  0.1548 -0.0079 -0.5557
12173TIP3    H158010   3.762   2.459  15.408  0.5433  0.5957 -1.0911
12173TIP3    H258011   3.807   2.363  15.300  0.4400  0.0599 -0.6601
12174TIP3   OH258012   4.007   3.093  15.399 -1.0407 -0.2928 -0.7435
12174TIP3    H158013   4.029   3.004  15.372 -0.2605 -0.5647  0.6920
12174TIP3    H258014   3.927   3.113  15.350  0.4706 -0.5574 -3.5025
12175TIP3   OH258015   0.383   5.534   4.427 -1.0283  0.2133  0.7245
12175TIP3    H158016   0.340   5.552   4.511 -0.4148  1.8208  0.7449
12175TIP3    H258017   0.337   5.459   4.391 -1.2027 -0.6156  2.5751
12176TIP3   OH258018   0.009   0.640   0.280 -0.0678 -0.0139  0.3351
12176TIP3    H158019   0.029   0.677   0.365  1.0367 -1.2891  0.6744
12176TIP3    H258020  -0.055   0.571   0.298  0.9563 -1.0019  0.3187
12177TIP3   OH258021   0.573   3.541   0.023  0.0527  0.2232 -0.6069
12177TIP3    H158022   0.535   3.617  -0.022 -0.5802  1.5508  1.9874
12177TIP3    H258023   0.604   3.576   0.106 -1.3202 -2.5668  1.2112
12178TIP3   OH258024   5.658   0.412   4.810 -0.1433  0.2020 -0.3836
12178TIP3    H158025   5.585   0.450   4.858 -1.4655  0.5882 -2.5401
12178TIP3    H258026   5.727   0.399   4.875 -1.3011  1.9904  1.2746
12179TIP3   OH258027   0.739   0.548   4.943 -0.0551 -0.2756 -0.3504
12179TIP3    H158028   0.668   0.484   4.933  0.8756 -1.3185 -0.3365
12179TIP3    H258029   0.715   0.598   5.022 -1.1855 -0.0572 -0.8032
12180TIP3   OH258030   1.672   3.079  13.205  0.3145 -0.5260  0.4552
12180TIP3    H158031   1.711   3.028  13.134  0.6702  0.1426  0.1627
12180TIP3    H258032   1.651   3.015  13.273  0.9260 -1.0335  0.1666
12181TIP3   OH258033   3.176   6.415  12.283  1.0272  0.1027  0.1830
12181TIP3    H158034   3.133   6.498  12.260 -0.7387 -0.4747  1.2722
12181TIP3    H258035   3.204   6.426  12.373  0.6510 -0.5375  0.3826
12182TIP3   OH258036   6.473   4.749  11.310 -1.1512 -0.1492 -0.2652
12182TIP3    H158037   6.503   4.782  11.395 -0.9075  2.5352 -1.2908
12182TIP3    H258038   6.553   4.746  11.256 -1.5210 -0.5063 -0.8015
12183TIP3   OH258039   5.212   4.158   4.589  0.1028 -0.4051 -0.3382
12183TIP3    H158040   5.223   4.071   4.627 -1.2347 -0.0065  1.0586
12183TIP3    H258041   5.301   4.190   4.577  0.6805 -0.5517  2.6445
12184TIP3   OH258042   6.883   6.372   0.636 -0.2139 -0.4428 -0.0964
12184TIP3    H158043   6.899   6.428   0.712  0.6796  0.7231 -1.1112
12184TIP3    H258044   6.807   6.410   0.593  0.1582 -0.2278 -0.5745
12185TIP3   OH258045   3.414   3.036  13.316  0.1715 -1.3957 -0.4452
12185TIP3    H158046   3.404   2.959  13.372 -0.0174 -1.4533 -0.5576
12185TIP3    H258047   3.506   3.034  13.289  0.3563 -1.1694  0.1484
12186TIP3   OH258048   0.437   6.524   5.468 -0.2234  0.1676 -0.2501
12186TIP3    H158049   0.436   6.457   5.536 -1.1135  0.7233  0.3131
12186TIP3    H258050   0.417   6.476   5.387  0.4634 -0.4398 -0.0687
12187TIP3   OH258051   5.842   5.374  14.768  0.4881 -0.1324  0.0510
12187TIP3    H158052   5.850   5.468  14.751  1.3797 -0.1642  0.2417
12187TIP3    H258053   5.806   5.368  14.857  0.7423  0.0298  0.1647
12188TIP3   OH258054   4.538   2.563   5.491  0.0403  0.0602  0.5633
12188TIP3    H158055   4.573   2.506   5.422 -0.0291 -0.0357  0.6070
12188TIP3    H258056   4.582   2.647   5.476  0.4966 -0.1329  0.7866
12189TIP3   OH258057   4.767   4.523  16.687  0.0983  0.6005  0.0860
12189TIP3    H158058   4.701   4.588  16.711  0.5326  1.3797 -0.7708
12189TIP3    H258059   4.847   4.552  16.730  0.0888  0.0956  0.4675
12190TIP3   OH258060   4.437   3.102   3.866  0.2692 -0.6154  0.2898
12190TIP3    H158061   4.525   3.088   3.833  0.0216 -1.7515  0.0648
12190TIP3    H258062   4.413   3.189   3.835  0.5554 -1.0944 -1.3624
12191TIP3   OH258063   6.337   6.095  15.996 -0.1610 -0.3382  0.2844
12191TIP3    H158064   6.309   6.070  16.084 -0.8582 -2.7359 -0.5188
12191TIP3    H258065   6.433   6.102  16.003 -0.3962  4.3680  2.2261
12192TIP3   OH258066   5.518   1.802   5.779  0.0927  0.0158  0.6250
12192TIP3    H158067   5.507   1.710   5.754 -2.5965  0.3752  0.1962
12192TIP3    H258068   5.547   1.799   5.870 -0.3403 -1.2644  0.7350
12193TIP3   OH258069   0.106   2.444   2.319 -0.3005 -0.6555 -0.5520
12193TIP3    H158070   0.057   2.369   2.354 -1.0079  0.0320 -0.0244
12193TIP3    H258071   0.053   2.476   2.247  0.6553 -1.4414 -1.6471
12194TIP3   OH258072   0.321   4.615  13.816 -0.1048  0.4361 -0.0634
12194TIP3    H158073   0.264   4.566  13.756  1.2639  0.6987 -1.6545
12194TIP3    H258074   0.377   4.548  13.855  0.4121  0.4818 -0.7064
12195TIP3   OH258075   0.324   1.916  10.926 -0.5441 -0.0549  0.0039
12195TIP3    H158076   0.417   1.892  10.916  0.2940  2.1889  1.7299
12195TIP3    H258077   0.307   1.909  11.019 -1.7685  0.7785 -0.1355
12196TIP3   OH258078   0.345   5.715   5.067 -0.0315 -0.0652 -0.7632
12196TIP3    H158079   0.324   5.656   5.140 -2.1881 -0.8372 -1.8972
12196TIP3    H258080   0.375   5.657   4.997  0.7916  0.5350 -0.9257
12197TIP3   OH258081   0.489   5.580  15.325  0.7637 -0.2771 -0.1977
12197TIP3    H158082   0.462   5.525  15.398  1.4419 -2.0073 -1.1802
12197TIP3    H258083   0.426   5.560  15.255 -1.0276  2.7266  0.3793
12198TIP3   OH258084   3.868   0.119   3.623  0.2927  0.3882  0.2454
12198TIP3    H158085   3.835   0.168   3.548 -2.3648 -0.3036  0.8649
12198TIP3    H258086   3.872   0.183   3.694 -2.9255 -0.0801  0.9856
12199TIP3   OH258087   4.030   3.691  14.819 -0.1614 -0.2821 -0.1656
12199TIP3    H158088   4.063   3.747  14.748  1.0899 -0.2579  0.3958
12199TIP3    H258089   3.961   3.639  14.779 -0.2102  0.4865 -1.1283
12200TIP3   OH258090   3.430   3.528  14.128  0.0084  0.0199  0.2957
12200TIP3    H158091   3.338   3.538  14.103  0.3947  0.0545 -1.2110
12200TIP3    H258092   3.430   3.453  14.188 -0.8151 -0.9567 -0.8817
12201TIP3   OH258093   2.665   4.344   5.350 -0.6509  0.1480 -0.0879
12201TIP3    H158094   2.724   4.414   5.379  0.7165 -1.1726  0.4124
12201TIP3    H258095   2.638   4.372   5.262 -0.3038  1.3906  0.1745
12202TIP3   OH258096   2.459   5.176   3.632 -0.4527 -0.7444 -0.0942
12202TIP3    H158097   2.500   5.195   3.548 -0.9079 -1.8384 -0.5890
12202TIP3    H258098   2.523   5.120   3.677 -0.8480 -1.4306 -0.3614
12203TIP3   OH258099   5.250   2.204  11.423 -0.2829  0.3039 -0.3908
12203TIP3    H158100   5.156   2.212  11.436 -0.5131 -0.0333 -1.6725
12203TIP3    H258101   5.260   2.197  11.328  1.0044 -0.0472 -0.2447
12204TIP3   OH258102   3.578   3.677   3.048  0.2727 -0.6515  0.0985
12204TIP3    H158103   3.553   3.630   3.127  1.6429 -2.8207 -0.6784
12204TIP3    H258104   3.547   3.622   2.976 -1.6697  1.6598 -0.9831
12205TIP3   OH258105   4.056   4.288  12.551 -0.9367  0.1166 -1.0048
12205TIP3    H158106   4.008   4.205  12.556  1.5349 -1.4226 -1.1716
12205TIP3    H258107   4.058   4.320  12.641 -2.1576  0.1918 -0.9836
12206TIP3   OH258108   5.121   1.157  16.404 -0.0988  0.5099  0.0472
12206TIP3    H158109   5.135   1.157  16.310 -0.4247 -1.3107 -0.0520
12206TIP3    H258110   5.028   1.176  16.415 -0.2767 -0.2428 -0.0801
12207TIP3   OH258111   3.376   2.352  15.461  0.6198  0.5549 -0.1546
12207TIP3    H158112   3.332   2.436  15.467 -0.1476  0.3212 -1.9237
12207TIP3    H258113   3.466   2.373  15.435  0.3546  0.8261 -0.8716
12208TIP3   OH258114   5.005   6.250   5.489  0.1774  0.3875  0.1959
12208TIP3    H158115   4.926   6.232   5.541 -1.2317 -0.9589 -2.2226
12208TIP3    H258116   5.047   6.164   5.481  1.1284  0.8432  0.2461
12209TIP3   OH258117   4.563   4.552   1.348 -0.0580  0.0608 -0.0352
12209TIP3    H158118   4.490   4.508   1.391 -1.3641 -0.7477 -2.8306
12209TIP3    H258119   4.523   4.625   1.301  1.1210  0.3755 -0.5968
12210TIP3   OH258120   4.302   3.526   5.016  0.4753 -0.3119  0.0224
12210TIP3    H158121   4.249   3.606   5.013  1.6998  0.4916 -2.0746
12210TIP3    H258122   4.387   3.553   4.982  0.2274 -3.0079 -3.1343
12211TIP3   OH258123   0.403   4.517  12.245 -0.4453 -0.5407  0.6241
12211TIP3    H158124   0.492   4.482  12.254  0.6913  1.9482  0.0606
12211TIP3    H258125   0.399   4.549  12.154 -1.4656  0.4829  0.9992
12212TIP3   OH258126   0.837   4.680  12.663  0.6613 -0.3057  0.2020
12212TIP3    H158127   0.931   4.671  12.647  0.9721 -0.1952  1.8046
12212TIP3    H258128   0.818   4.616  12.732 -0.6930 -1.1798 -0.9399
12213TIP3   OH258129   3.188   2.963  11.020 -0.1739 -0.7582 -0.2792
12213TIP3    H158130   3.230   3.038  10.979 -1.1022  0.6724  1.2431
12213TIP3    H258131   3.236   2.950  11.102 -1.3837 -0.3644  0.5310
12214TIP3   OH258132   4.757   0.339  16.336  0.0157  0.0450 -0.1227
12214TIP3    H158133   4.733   0.255  16.375 -2.1696  1.3101  1.4614
12214TIP3    H258134   4.677   0.391  16.339  1.2959  2.2055 -1.0515
12215TIP3   OH258135   2.228   6.494   4.780 -0.4099  0.5295  0.2898
12215TIP3    H158136   2.310   6.528   4.744 -1.2533  1.7227 -0.5748
12215TIP3    H258137   2.160   6.551   4.744 -1.6148 -0.3142  1.1382
12216TIP3   OH258138   5.368   6.841   4.847 -0.1128  0.5642  0.3407
12216TIP3    H158139   5.345   6.748   4.860 -2.7635  1.3544  2.1998
12216TIP3    H258140   5.287   6.881   4.816  0.9785  2.2901 -0.3902
12217TIP3   OH258141   5.970   6.143  10.664  0.4074  0.0334  0.7843
12217TIP3    H158142   5.971   6.215  10.601 -0.3008 -1.0391 -0.4997
12217TIP3    H258143   5.931   6.181  10.743  2.3632  1.7112  1.0322
12218TIP3   OH258144   1.615   0.222   0.291  0.6089  0.1015 -0.4330
12218TIP3    H158145   1.560   0.203   0.368  0.7741  0.0546 -0.3268
12218TIP3    H258146   1.654   0.138   0.268  0.1140  0.0009 -0.9159
12219TIP3   OH258147   4.888   1.419  16.729  0.6504 -0.0455 -0.1559
12219TIP3    H158148   4.827   1.349  16.706  1.2785 -0.1546 -1.6013
12219TIP3    H258149   4.883   1.480  16.656  1.1695  0.6965  0.4183
12220TIP3   OH258150   3.097   5.537   2.763  0.4464  0.4863  0.4237
12220TIP3    H158151   3.005   5.552   2.785 -0.5421 -2.3612 -1.1965
12220TIP3    H258152   3.094   5.490   2.680  3.4910  1.7637 -0.5392
12221TIP3   OH258153   3.287   6.436  14.571  0.2248 -0.4478  0.1131
12221TIP3    H158154   3.277   6.520  14.615  0.4779 -0.0576 -0.5527
12221TIP3    H258155   3.376   6.407  14.593 -0.4380 -1.3856  1.7418
12222TIP3   OH258156   4.791   6.545   5.056 -0.3570 -0.2722  0.6225
12222TIP3    H158157   4.701   6.523   5.082 -1.0366 -0.1230 -1.4185
12222TIP3    H258158   4.828   6.462   5.027 -0.1430 -0.1599  0.5717
12223TIP3   OH258159   5.493   1.819  16.508 -0.8250  0.0418 -0.2361
12223TIP3    H158160   5.544   1.742  16.535  1.9692  0.5838 -3.3201
12223TIP3    H258161   5.427   1.783  16.448 -2.0626 -0.2853  1.2542
12224TIP3   OH258162   2.475   4.213   3.303  0.0530 -0.5354  0.2627
12224TIP3    H158163   2.431   4.136   3.340  0.8968 -1.8449 -1.3354
12224TIP3    H258164   2.523   4.179   3.228  0.4030  1.5895 -0.5375
12225TIP3   OH258165   0.024   1.806   5.509 -0.1823 -0.0822  0.1163
12225TIP3    H158166   0.013   1.733   5.570 -2.3061 -0.0162 -0.0805
12225TIP3    H258167  -0.066   1.837   5.493  0.3593  0.4285 -2.3943
12226TIP3   OH258168   4.784   0.024  15.148 -0.9457  0.1492  0.4532
12226TIP3    H158169   4.711   0.067  15.103 -2.5502 -2.6667  0.1169
12226TIP3    H258170   4.758   0.023  15.240 -1.9413 -1.7949  0.1992
12227TIP3   OH258171   4.643   0.055  13.496 -0.0230  0.4227  0.0525
12227TIP3    H158172   4.625  -0.005  13.424 -4.1031  0.2579  0.9893
12227TIP3    H258173   4.592   0.134  13.476  0.3575  1.1688  1.7753
12228TIP3   OH258174   2.823   3.078  12.531  0.8634 -0.3317 -0.2005
12228TIP3    H158175   2.867   3.017  12.472  1.3263  0.2680 -0.4816
12228TIP3    H258176   2.873   3.159  12.524  2.0388 -0.7652  2.3994
12229TIP3   OH258177   3.740   3.717  16.097 -0.8553 -0.0353 -0.1534
12229TIP3    H158178   3.753   3.629  16.060  2.4159  0.2300  0.0954
12229TIP3    H258179   3.743   3.704  16.191  0.8406  0.3955 -0.1085
12230TIP3   OH258180   2.401   1.323   1.230  0.2974 -0.4224 -0.3409
12230TIP3    H158181   2.412   1.407   1.185  2.6106 -0.0315  0.8216
12230TIP3    H258182   2.394   1.346   1.323  0.0071 -1.4769 -0.0944
12231TIP3   OH258183   4.706   1.449  12.101 -0.0291  0.2900 -0.0770
12231TIP3    H158184   4.746   1.362  12.104  0.2165  0.3976 -0.1882
12231TIP3    H258185   4.627   1.438  12.048  0.0813  0.1655 -0.2148
12232TIP3   OH258186   3.086   0.441  11.472  0.1769 -0.6422 -0.0401
12232TIP3    H158187   3.090   0.409  11.381  2.1839 -1.3994  0.2640
12232TIP3    H258188   3.006   0.402  11.507  0.3066 -1.8253 -0.9788
12233TIP3   OH258189   2.249   1.112  15.859 -0.8844 -0.2017 -0.0798
12233TIP3    H158190   2.321   1.094  15.799 -0.0500 -0.4786  0.9671
12233TIP3    H258191   2.197   1.180  15.816  1.9088  2.5753  0.5861
12234TIP3   OH258192   5.682   6.373   5.052  0.2313 -0.2271 -0.7033
12234TIP3    H158193   5.745   6.300   5.055  0.4005 -0.0667 -0.3302
12234TIP3    H258194   5.736   6.451   5.064  0.1861  0.0381 -2.0970
12235TIP3   OH258195   5.620   5.423   1.801 -0.6202 -0.7316  0.0591
12235TIP3    H158196   5.635   5.444   1.709 -1.6396 -0.8054 -0.1351
12235TIP3    H258197   5.689   5.360   1.823 -1.4465 -2.1585 -1.1873
12236TIP3   OH258198   6.645   4.608  12.524  0.0887 -0.1555 -0.0872
12236TIP3    H158199   6.583   4.594  12.453 -1.3366 -1.3731  1.3096
12236TIP3    H258200   6.731   4.612  12.481 -0.9310  1.7246 -2.0798
12237TIP3   OH258201   3.881   0.203   1.343 -0.5213 -0.1000  0.0219
12237TIP3    H158202   3.849   0.114   1.354  0.0610 -0.0813  2.2933
12237TIP3    H258203   3.820   0.257   1.394 -0.6539  0.7794 -1.0160
12238TIP3   OH258204   1.624   2.901  13.418  0.1637 -0.2742 -0.1459
12238TIP3    H158205   1.604   2.807  13.421  0.7068 -0.3613  1.9883
12238TIP3    H258206   1.719   2.905  13.413  0.0837  0.2056 -2.2103
12239TIP3   OH258207   2.747   6.749  15.467 -0.0408  0.0420 -0.0437
12239TIP3    H158208   2.663   6.729  15.425 -0.5027  1.3324  0.2228
12239TIP3    H258209   2.772   6.835  15.432  1.1859 -0.3271 -0.1278
12240TIP3   OH258210   3.732   5.577  11.541 -0.1913 -0.0010  0.4522
12240TIP3    H158211   3.725   5.607  11.631  0.1958  0.8723  0.1913
12240TIP3    H258212   3.769   5.489  11.548  0.6400  0.3919  1.0953
12241TIP3   OH258213   2.373   3.046  13.619  0.4521  0.3331  0.1412
12241TIP3    H158214   2.328   3.094  13.689 -0.9273  2.4992 -2.1053
12241TIP3    H258215   2.306   3.028  13.554  1.8515 -0.9778 -1.0181
12242TIP3   OH258216   5.772   6.590  11.754 -0.2292  0.4726 -0.8401
12242TIP3    H158217   5.699   6.542  11.715  0.2836 -2.8970  1.8549
12242TIP3    H258218   5.848   6.567  11.700 -0.6114  1.6178 -1.9138
12243TIP3   OH258219   2.960   2.937  11.850  0.0006  0.3307 -0.2327
12243TIP3    H158220   2.876   2.927  11.895 -0.3032  2.5716 -0.2234
12243TIP3    H258221   2.947   2.893  11.765 -1.9463  2.3780 -1.1005
12244TIP3   OH258222   5.002   0.763   0.437  0.1282  0.2572  0.3287
12244TIP3    H158223   4.989   0.847   0.479 -0.2037  0.2677  0.2098
12244TIP3    H258224   5.097   0.758   0.420  0.0964  0.7754 -0.0154
12245TIP3   OH258225   4.030   1.272  11.693 -0.1737  0.6589  0.0667
12245TIP3    H158226   4.034   1.250  11.786  0.3313  1.0353  0.1428
12245TIP3    H258227   4.122   1.282  11.668 -0.0922 -2.1829 -1.1593
12246TIP3   OH258228   5.619   1.933   5.169 -0.2781 -0.0949 -0.4927
12246TIP3    H158229   5.580   2.020   5.176 -1.6662 -0.6001 -1.5914
12246TIP3    H258230   5.657   1.930   5.081  1.2867 -0.0342  0.1401
12247TIP3   OH258231   5.811   5.674  10.867 -1.0465 -0.1834  0.0634
12247TIP3    H158232   5.720   5.658  10.842 -0.7085  0.3639 -1.6577
12247TIP3    H258233   5.828   5.764  10.841  0.0098 -0.3004  0.2789
12248TIP3   OH258234   4.159   4.093  11.844 -0.2989  0.1825 -0.4348
12248TIP3    H158235   4.114   4.159  11.791  1.1607  2.3498  0.8987
12248TIP3    H258236   4.252   4.104  11.823  0.3286  1.0567  2.4006
12249TIP3   OH258237   3.678   1.922   0.191  0.0080 -0.1294  0.1876
12249TIP3    H158238   3.759   1.883   0.224 -1.3853 -1.9087  1.7143
12249TIP3    H258239   3.703   2.012   0.166  2.8227 -1.1649 -1.1988
12250TIP3   OH258240   5.050   5.818   2.521 -0.2161 -0.2365 -0.0140
12250TIP3    H158241   5.044   5.749   2.587 -0.8243  0.2279  0.4229
12250TIP3    H258242   5.016   5.896   2.564  0.1183  0.2551 -0.6247
12251TIP3   OH258243   1.354   2.736   5.109  0.2486  0.3375 -0.0231
12251TIP3    H158244   1.340   2.717   5.202  0.3979 -1.2251 -0.2969
12251TIP3    H258245   1.397   2.822   5.109 -1.6271  1.3418  1.2213
12252TIP3   OH258246   3.218   6.866   2.680  0.1374 -0.4337 -0.4794
12252TIP3    H158247   3.287   6.893   2.741  0.4579 -0.0716 -0.9962
12252TIP3    H258248   3.264   6.813   2.614 -0.0053  0.1493 -1.0524
12253TIP3   OH258249   4.284   0.276  12.703 -0.1889 -0.0931 -0.1320
12253TIP3    H158250   4.341   0.303  12.631 -0.8966 -1.2356 -1.1534
12253TIP3    H258251   4.336   0.290  12.782  0.6615  1.0378 -0.8651
12254TIP3   OH258252   3.365   3.357  13.326 -0.1332  0.6624  0.3136
12254TIP3    H158253   3.359   3.296  13.252 -1.0143  0.7750  0.2818
12254TIP3    H258254   3.446   3.334  13.370 -0.2852 -0.3157  0.1001
12255TIP3   OH258255   2.114   4.692   2.299 -0.5755 -0.4931  0.2970
12255TIP3    H158256   2.143   4.630   2.366  2.4568 -0.1897 -0.6066
12255TIP3    H258257   2.094   4.637   2.223  1.5979 -0.5094 -0.3306
12256TIP3   OH258258   5.393   2.245   3.553 -0.5879  0.2493  0.2077
12256TIP3    H158259   5.445   2.314   3.595 -1.2558  0.2406  1.0908
12256TIP3    H258260   5.303   2.264   3.581 -0.8641 -0.5569 -0.1353
12257TIP3   OH258261   5.551   2.415   3.696  0.1149 -0.7712 -0.0274
12257TIP3    H158262   5.617   2.357   3.734  0.3256 -0.9811 -0.6924
12257TIP3    H258263   5.554   2.494   3.750  0.5465 -0.9832  0.2655
12258TIP3   OH258264   1.624   2.814   0.528  0.3514 -0.2044  0.0730
12258TIP3    H158265   1.556   2.881   0.531  0.2470 -0.2377 -1.0605
12258TIP3    H258266   1.576   2.732   0.521  0.4865 -0.3632  0.9599
12259TIP3   OH258267   6.630   4.579  15.192 -0.2987  0.1083 -0.6092
12259TIP3    H158268   6.560   4.635  15.159 -1.3444 -1.3209 -0.9045
12259TIP3    H258269   6.710   4.621  15.163 -1.1120  0.0016 -3.2597
12260TIP3   OH258270   1.718   6.172   5.510  0.4377  0.3742 -0.1408
12260TIP3    H158271   1.796   6.208   5.553  0.6829  0.8108 -0.9247
12260TIP3    H258272   1.749   6.095   5.463  0.4952  0.7642 -0.7687
12261TIP3   OH258273   0.858   4.045   1.482 -0.1251 -0.1487 -0.0409
12261TIP3    H158274   0.918   4.085   1.545  2.8947 -1.3261 -1.9420
12261TIP3    H258275   0.890   4.075   1.397 -0.6518 -2.8393 -1.2879
12262TIP3   OH258276   0.246   4.289  12.232 -0.4725  0.4731 -0.2784
12262TIP3    H158277   0.289   4.372  12.255 -1.6895  0.7171  1.3421
12262TIP3    H258278   0.318   4.231  12.208  0.4428  1.8781 -1.1303
12263TIP3   OH258279   4.487   0.612  12.845 -0.2793  0.2113  0.1514
12263TIP3    H158280   4.490   0.621  12.940 -0.3500  1.1079  0.0813
12263TIP3    H258281   4.393   0.607  12.825 -0.3328 -4.5881  0.4608
12264TIP3   OH258282   6.253   4.381  10.479 -0.2937  0.3638  0.0963
12264TIP3    H158283   6.346   4.361  10.466 -0.8253 -0.6616 -3.1355
12264TIP3    H258284   6.209   4.297  10.471 -1.6018  0.9752  0.5228
12265TIP3   OH258285   3.337   2.417   0.790 -0.6800 -0.4153  0.4995
12265TIP3    H158286   3.397   2.491   0.777 -1.7994  0.5820  0.7518
12265TIP3    H258287   3.289   2.440   0.870 -0.7445 -1.6500  0.8261
12266TIP3   OH258288   3.149   4.236  15.482  0.0138 -0.7764 -0.2495
12266TIP3    H158289   3.064   4.238  15.438  0.2955 -3.2711 -1.0543
12266TIP3    H258290   3.203   4.299  15.435 -1.1326  0.2583 -0.2265
12267TIP3   OH258291   3.823   4.128   6.435 -0.0502  0.5054  0.8742
12267TIP3    H158292   3.739   4.093   6.465 -0.1591  0.5673  0.6448
12267TIP3    H258293   3.871   4.051   6.403 -0.5240  0.6270 -0.1880
12268TIP3   OH258294   3.758   1.443   4.157  0.3478  0.2657  0.1701
12268TIP3    H158295   3.846   1.420   4.126  1.1390  1.3137  1.5272
12268TIP3    H258296   3.767   1.450   4.252 -1.6878 -1.5902  0.5791
12269TIP3   OH258297   2.767   6.687   3.106 -0.3750  0.3466  0.3987
12269TIP3    H158298   2.694   6.692   3.167 -2.1621  0.1098 -1.6082
12269TIP3    H258299   2.745   6.748   3.036  0.7017 -0.6855 -0.9066
12270TIP3   OH258300   5.401   3.674   2.466 -0.0895  0.4363 -0.6727
12270TIP3    H158301   5.470   3.643   2.525  1.1899  2.1039 -1.2064
12270TIP3    H258302   5.436   3.755   2.429 -1.6928  0.4879 -2.2019
12271TIP3   OH258303   6.705   0.371  12.597  0.1764  0.3413 -0.0589
12271TIP3    H158304   6.734   0.448  12.548  0.9720  0.9044  1.2377
12271TIP3    H258305   6.634   0.403  12.652 -0.2161 -0.1106 -0.2970
12272TIP3   OH258306   1.661   6.870  13.503 -0.1900  0.0365 -0.6076
12272TIP3    H158307   1.750   6.898  13.522 -0.8540  1.0588  1.2042
12272TIP3    H258308   1.654   6.783  13.542  0.1070 -0.1899 -1.0527
12273TIP3   OH258309   4.821   5.318  15.030  0.0676 -0.2001 -0.3931
12273TIP3    H158310   4.822   5.411  15.009  2.5332  0.4041  1.9178
12273TIP3    H258311   4.878   5.278  14.964  0.4722  0.2173 -0.2971
12274TIP3   OH258312   3.056   2.116   4.246  0.3665 -0.3867 -0.3428
12274TIP3    H158313   2.989   2.119   4.314  0.8060 -1.3262  0.1582
12274TIP3    H258314   3.062   2.205   4.213 -1.8723 -0.4860 -1.1334
12275TIP3   OH258315   4.313   0.679  12.339 -0.6079  0.1391 -0.5380
12275TIP3    H158316   4.408   0.686  12.324 -0.8074  3.0027 -1.0888
12275TIP3    H258317   4.304   0.669  12.433  0.2396 -2.2680 -0.6440
12276TIP3   OH258318   2.265   0.378  11.939 -0.1433  0.8296  0.0534
12276TIP3    H158319   2.282   0.432  11.862  1.5551 -1.2231 -1.1038
12276TIP3    H258320   2.341   0.391  11.996 -0.0241  0.1893  0.0548
12277TIP3   OH258321   1.811   2.026  14.795  0.3908 -0.0335  0.2334
12277TIP3    H158322   1.766   1.946  14.770  0.4035  0.0095  0.0702
12277TIP3    H258323   1.895   1.996  14.831  0.0964 -0.1296  0.8483
12278TIP3   OH258324   3.770   4.427   1.388 -0.0786  0.3460  0.4477
12278TIP3    H158325   3.684   4.396   1.416  0.3036 -1.0811  0.1321
12278TIP3    H258326   3.816   4.449   1.469 -0.1774 -0.4523  0.7263
12279TIP3   OH258327   1.293   1.284  11.559  0.0400  0.2662 -0.0850
12279TIP3    H158328   1.331   1.337  11.629 -0.4111  1.5485 -0.7706
12279TIP3    H258329   1.329   1.196  11.573  3.0212  1.3087 -0.5067
12280TIP3   OH258330   1.136   1.434  14.083 -0.2412  0.4586 -0.3841
12280TIP3    H158331   1.098   1.519  14.106  2.0012  1.2184  0.8805
12280TIP3    H258332   1.230   1.444  14.103  0.4472 -1.6420 -2.2007
12281TIP3   OH258333   6.352   2.278   4.409 -0.1717  0.2838  0.1955
12281TIP3    H158334   6.352   2.301   4.316  1.6139  1.2857  0.3967
12281TIP3    H258335   6.337   2.361   4.455 -1.1448 -0.2192  0.8088
12282TIP3   OH258336   4.975   4.600   5.736 -0.3056 -0.4995 -0.1168
12282TIP3    H158337   5.038   4.531   5.720 -0.1867 -0.6890  1.0330
12282TIP3    H258338   5.028   4.679   5.750 -0.4748  0.0605 -2.3590
12283TIP3   OH258339   6.556   0.049   3.417 -0.1811 -0.3152 -0.0090
12283TIP3    H158340   6.525   0.099   3.342 -1.7496  1.7957  1.8931
12283TIP3    H258341   6.647   0.074   3.427 -0.2710  0.2405 -0.5428
12284TIP3   OH258342   4.643   3.318  16.260  0.3698  0.7670 -0.3913
12284TIP3    H158343   4.693   3.237  16.263  0.9386  1.0476 -1.5877
12284TIP3    H258344   4.630   3.342  16.352 -0.2557 -0.9268 -0.0127
12285TIP3   OH258345   3.036   5.138   3.516  0.6664  0.4371  0.1925
12285TIP3    H158346   3.019   5.167   3.606  1.1224  0.9643  0.1098
12285TIP3    H258347   3.072   5.050   3.526  1.4519  0.7923  0.5787
12286TIP3   OH258348   5.412   3.622   5.195  0.0515  0.4315 -0.2459
12286TIP3    H158349   5.483   3.586   5.248 -1.8307  1.2723  3.2227
12286TIP3    H258350   5.369   3.545   5.157  0.5625 -0.3942  0.7987
12287TIP3   OH258351   4.884   5.651  11.004  0.3222 -0.2228 -0.5564
12287TIP3    H158352   4.843   5.590  11.065 -0.0194  0.6420  0.1107
12287TIP3    H258353   4.935   5.596  10.944  0.1467 -1.1371  0.1176
12288TIP3   OH258354   6.179   1.759  10.981  0.2978  0.1601 -0.1387
12288TIP3    H158355   6.104   1.796  11.028  0.4797 -0.5297  0.7468
12288TIP3    H258356   6.200   1.823  10.914 -0.7165  0.6411 -0.0185
12289TIP3   OH258357   2.732   6.392   0.723 -0.1538  0.3042  0.0851
12289TIP3    H158358   2.784   6.314   0.704 -0.8987  0.3988 -2.8290
12289TIP3    H258359   2.642   6.362   0.719 -0.5483  1.5105 -2.9316
12290TIP3   OH258360   0.966   4.239   2.790 -0.6078  0.1338  0.0699
12290TIP3    H158361   1.015   4.276   2.864  0.4231 -0.7972 -0.1133
12290TIP3    H258362   0.908   4.174   2.830 -2.2555  1.6960  0.3656
12291TIP3   OH258363   5.463   4.892   5.408 -0.4333 -0.1763  0.1364
12291TIP3    H158364   5.379   4.922   5.373 -0.0688  1.7357  0.7881
12291TIP3    H258365   5.492   4.825   5.346 -1.0690  1.1875 -1.7315
12292TIP3   OH258366   2.738   1.033   3.820  0.3111  0.2537 -0.3279
12292TIP3    H158367   2.787   1.055   3.741 -2.1945 -0.2666 -2.1317
12292TIP3    H258368   2.648   1.055   3.800 -0.7181 -1.7403  1.6532
12293TIP3   OH258369   5.504   0.641   3.177 -0.5784  0.4195  0.1096
12293TIP3    H158370   5.582   0.600   3.138 -1.0412  2.1296 -2.9088
12293TIP3    H258371   5.537   0.683   3.257  1.9562  2.0849 -1.6439
12294TIP3   OH258372   4.820   0.415   1.556 -0.5170 -0.3673 -0.0985
12294TIP3    H158373   4.813   0.319   1.550 -1.3374 -0.2820 -0.5725
12294TIP3    H258374   4.736   0.443   1.591 -0.0970  0.1513  0.5145
12295TIP3   OH258375   2.119   3.057   1.939  0.0327 -0.5224 -0.6856
12295TIP3    H158376   2.081   3.103   1.864  0.9993 -0.1451 -0.9601
12295TIP3    H258377   2.206   3.032   1.909  0.4817 -0.2313  0.3715
12296TIP3   OH258378   2.102   6.203   3.462 -0.2745  0.0477 -0.1153
12296TIP3    H158379   2.050   6.280   3.438 -0.8452 -0.5396 -0.8012
12296TIP3    H258380   2.188   6.219   3.423  0.0117  0.9271  0.8451
12297TIP3   OH258381   1.601   1.719  11.314 -0.2600 -0.0491  0.0534
12297TIP3    H158382   1.515   1.737  11.276 -0.6186  0.0411  0.8712
12297TIP3    H258383   1.637   1.805  11.335 -0.9443 -0.1277  1.7555
12298TIP3   OH258384   6.353   5.438   0.495 -0.8140  0.3263 -0.1894
12298TIP3    H158385   6.378   5.356   0.451  4.8244  1.7655 -0.5023
12298TIP3    H258386   6.295   5.482   0.433  0.0021 -1.3982 -2.3313
12299TIP3   OH258387   0.337   0.681  10.305  0.0080  0.0269  0.1136
12299TIP3    H158388   0.286   0.731  10.368  0.0283 -0.6246  0.6641
12299TIP3    H258389   0.297   0.594  10.306  0.3619 -0.1468 -0.3623
12300TIP3   OH258390   6.026   4.257  12.077  0.1774  0.3483 -0.2434
12300TIP3    H158391   5.991   4.334  12.123 -0.9237  0.7840 -1.7393
12300TIP3    H258392   6.117   4.252  12.105 -0.2895  0.9458  1.4986
12301TIP3   OH258393   3.725   0.801  10.711  0.2024 -1.9674 -0.2613
12301TIP3    H158394   3.718   0.882  10.660 -2.2856 -1.6023  0.5139
12301TIP3    H258395   3.773   0.742  10.654  1.4230 -0.2076 -1.1666
12302TIP3   OH258396   1.666   0.813   0.237  0.5539  0.3683 -0.1482
12302TIP3    H158397   1.633   0.875   0.301 -1.2686 -0.4283 -0.2693
12302TIP3    H258398   1.747   0.853   0.206 -1.0360  3.2430 -1.0088
12303TIP3   OH258399   0.010   5.153   5.771 -0.2193  0.6279 -0.1710
12303TIP3    H158400  -0.020   5.077   5.722 -0.0187  0.2345  0.3006
12303TIP3    H258401  -0.033   5.227   5.730 -2.1564  0.0543  0.7195
12304TIP3   OH258402   2.118   1.033   3.061  0.3736 -0.7411 -0.5701
12304TIP3    H158403   2.086   0.947   3.087  1.2305 -0.6923  0.7820
12304TIP3    H258404   2.212   1.020   3.047  0.8271  0.2598  1.2363
12305TIP3   OH258405   0.839   2.695   4.264  0.4708  0.2742 -0.0706
12305TIP3    H158406   0.929   2.678   4.235  0.4739 -0.5366  0.4073
12305TIP3    H258407   0.848   2.725   4.354  0.2379 -0.1243  0.0850
12306TIP3   OH258408   0.431   5.656  14.945  0.1853  0.2479 -0.1963
12306TIP3    H158409   0.516   5.640  14.985 -0.3751  0.3196  1.0767
12306TIP3    H258410   0.451   5.685  14.856  1.5090  0.9863  0.3188
12307TIP3   OH258411   3.910   4.051   1.508 -0.4960  0.7515 -0.1603
12307TIP3    H158412   3.837   4.113   1.511 -0.9932  0.2039 -0.6386
12307TIP3    H258413   3.987   4.103   1.528 -0.9115  1.5180 -0.5212
12308TIP3   OH258414   1.939   3.211   1.710 -0.1031 -0.0046  0.1840
12308TIP3    H158415   1.845   3.204   1.730  0.2592 -0.8510  1.7975
12308TIP3    H258416   1.965   3.294   1.750  0.0928 -0.4444  1.0031
12309TIP3   OH258417   3.343   4.527  13.939 -0.2106  0.5249 -0.2017
12309TIP3    H158418   3.419   4.476  13.912 -0.4531  0.3232 -0.5115
12309TIP3    H258419   3.315   4.487  14.021  0.8519  1.4769  0.6525
12310TIP3   OH258420   3.071   3.799   2.447 -0.0558  0.3046  0.2369
12310TIP3    H158421   3.129   3.842   2.511  2.6912 -0.8004 -1.3310
12310TIP3    H258422   3.023   3.870   2.406  0.0588  1.2667  1.6954
12311TIP3   OH258423   0.569   2.583   2.265  0.2510 -0.3710 -0.3635
12311TIP3    H158424   0.497   2.636   2.229  1.1014  1.4506  0.4792
12311TIP3    H258425   0.536   2.493   2.262 -1.6614  0.2908 -0.9263
12312TIP3   OH258426   6.882   1.244  13.847 -0.1548  0.0339  0.1156
12312TIP3    H158427   6.941   1.287  13.909 -1.2732  1.2680  0.3743
12312TIP3    H258428   6.896   1.150  13.861  1.4075  0.2954  0.4643
12313TIP3   OH258429   5.693   1.943  10.485  0.0937 -0.3850 -0.5074
12313TIP3    H158430   5.641   1.886  10.541 -0.3516 -0.0576 -0.5858
12313TIP3    H258431   5.781   1.906  10.489 -0.1689 -1.0105 -0.4709
12314TIP3   OH258432   1.758   3.595   3.898 -0.2063  0.6544  0.3484
12314TIP3    H158433   1.817   3.527   3.932 -2.8025 -1.3751  1.0842
12314TIP3    H258434   1.707   3.622   3.974 -1.3629  1.1521 -0.5803
12315TIP3   OH258435   0.560   3.019  14.523  0.3201  0.6647 -0.1236
12315TIP3    H158436   0.467   3.038  14.517 -0.3658 -2.2342  0.0514
12315TIP3    H258437   0.578   3.013  14.617  0.5092  0.4615 -0.1707
12316TIP3   OH258438   6.290   6.863  12.586 -0.1958 -0.4232 -0.0173
12316TIP3    H158439   6.359   6.847  12.650  0.1459  1.5942  0.1731
12316TIP3    H258440   6.324   6.827  12.504  1.9602  2.0769 -0.3478
12317TIP3   OH258441   3.371   5.573   1.746  0.3237 -0.2883 -0.0728
12317TIP3    H158442   3.410   5.487   1.758 -0.2397 -0.2797  2.2267
12317TIP3    H258443   3.422   5.631   1.802 -0.9116  0.3527  0.4283
12318TIP3   OH258444   2.200   3.652  14.998 -0.2713  0.0204  1.2204
12318TIP3    H158445   2.188   3.724  14.936  1.4141  0.6253  1.5481
12318TIP3    H258446   2.127   3.592  14.980  0.3704 -0.0336 -1.6339
12319TIP3   OH258447   4.002   1.213   1.994  0.0324 -0.4421  0.4605
12319TIP3    H158448   4.088   1.242   2.021  0.5550 -0.5820 -0.9757
12319TIP3    H258449   3.942   1.252   2.058  0.8609  2.2010 -0.2739
12320TIP3   OH258450   0.956   4.386   6.480  0.1880 -0.3364 -0.2426
12320TIP3    H158451   0.875   4.436   6.474  0.3927  0.0002 -0.2840
12320TIP3    H258452   1.000   4.422   6.557  0.6740  0.0695 -0.6957
12321TIP3   OH258453   3.116   0.380  11.210 -0.1681 -1.0043 -0.3829
12321TIP3    H158454   3.059   0.309  11.178  1.3756 -2.1559 -0.6905
12321TIP3    H258455   3.189   0.381  11.148  0.0445  0.6287 -0.1525
12322TIP3   OH258456   1.849   1.912   1.036 -0.4498 -0.5994 -0.0555
12322TIP3    H158457   1.924   1.879   0.987  0.7340 -0.3422  1.4892
12322TIP3    H258458   1.843   1.855   1.112 -0.4256  0.6855  0.9553
12323TIP3   OH258459   4.009   6.217   3.567 -0.1404  0.2628  0.3343
12323TIP3    H158460   3.923   6.176   3.577  1.0626 -2.5519  0.0181
12323TIP3    H258461   4.044   6.220   3.657 -0.0897  0.2734  0.3141
12324TIP3   OH258462   2.463   3.038   3.353 -0.0106  0.0023  0.2226
12324TIP3    H158463   2.468   2.945   3.331 -0.5297 -0.1635  0.7586
12324TIP3    H258464   2.472   3.083   3.270  2.6252 -0.4161  0.1974
12325TIP3   OH258465   5.925   1.795   5.718  0.4999 -0.1145  0.1710
12325TIP3    H158466   5.964   1.710   5.738 -1.6760 -1.2500 -0.1103
12325TIP3    H258467   5.847   1.799   5.773 -1.0858  0.3102 -1.9595
12326TIP3   OH258468   0.797   5.145   5.183  0.1250 -0.2984 -0.1436
12326TIP3    H158469   0.802   5.222   5.238 -0.2834  0.0984 -0.6504
12326TIP3    H258470   0.806   5.071   5.243  1.5937  0.1504  0.2246
12327TIP3   OH258471   1.549   2.752   0.257  0.6677  0.0113  0.1372
12327TIP3    H158472   1.592   2.838   0.260  0.2773  0.2434 -0.5838
12327TIP3    H258473   1.468   2.765   0.307 -0.0727  0.4770 -1.1431
12328TIP3   OH258474   3.319   5.937   3.520  0.0760 -0.2288 -0.0592
12328TIP3    H158475   3.268   5.942   3.440 -1.2357 -0.6032  0.7257
12328TIP3    H258476   3.372   5.858   3.509 -0.4256 -0.5254 -0.3696
12329TIP3   OH258477   6.686   5.965   0.690  0.4534  0.5549  0.3980
12329TIP3    H158478   6.743   6.007   0.625  0.1653 -0.9799 -0.8978
12329TIP3    H258479   6.655   6.038   0.744  2.3773  1.6313  0.1710
12330TIP3   OH258480   0.490   4.335   2.545  0.0657  0.3332 -0.4771
12330TIP3    H158481   0.433   4.335   2.468  0.3610 -0.0940 -0.7029
12330TIP3    H258482   0.444   4.283   2.610 -0.4890  1.2488 -0.1283
12331TIP3   OH258483   4.423   5.592   4.896 -0.6136 -0.4318  0.0671
12331TIP3    H158484   4.452   5.665   4.951 -0.4335  0.4689 -1.1803
12331TIP3    H258485   4.384   5.633   4.820 -1.8516 -1.6573 -0.0025
12332TIP3   OH258486   0.917   2.671   6.068  0.2650  0.0481  0.3394
12332TIP3    H158487   0.889   2.705   6.153 -2.4588 -0.4729 -0.2250
12332TIP3    H258488   0.909   2.746   6.009 -0.0907 -0.1318  0.1538
12333TIP3   OH258489   5.015   4.932   1.524 -0.1333 -0.3389  0.7307
12333TIP3    H158490   5.059   5.017   1.520 -0.4825 -0.1994 -0.2125
12333TIP3    H258491   5.074   4.872   1.478 -1.1683 -0.0320 -1.0819
12334TIP3   OH258492   2.753   0.930   6.111 -0.1538 -0.4602 -0.0953
12334TIP3    H158493   2.700   0.954   6.188 -0.2418 -0.8152 -0.0437
12334TIP3    H258494   2.733   0.998   6.047 -0.5684 -0.5128 -0.0255
12335TIP3   OH258495   4.198   3.830   4.517  0.0220  0.1841  0.2913
12335TIP3    H158496   4.189   3.785   4.601 -0.8586 -2.6052 -1.1817
12335TIP3    H258497   4.288   3.813   4.490  0.2523  0.9331  0.5564
12336TIP3   OH258498   4.579   5.938  13.470 -0.2634  0.0530 -0.3732
12336TIP3    H158499   4.553   5.901  13.554  0.0646  0.8814  0.1086
12336TIP3    H258500   4.502   5.927  13.414 -0.5555 -0.3187  0.0954
12337TIP3   OH258501   0.119   5.853  14.386 -0.5424  0.1273  0.1225
12337TIP3    H158502   0.148   5.782  14.328  0.8137  1.0940 -0.4447
12337TIP3    H258503   0.166   5.930  14.354 -3.7022  1.8443 -0.7976
12338TIP3   OH258504   3.113   5.432   6.011 -0.2303 -0.0317 -0.0518
12338TIP3    H158505   3.126   5.368   5.942 -2.5912 -0.7010  0.0141
12338TIP3    H258506   3.175   5.407   6.079  1.0154 -0.3397 -1.2563
12339TIP3   OH258507   6.757   2.150  14.172  0.5006  0.3913  0.3849
12339TIP3    H158508   6.709   2.155  14.090 -1.1678  3.2191  1.3687
12339TIP3    H258509   6.776   2.057  14.184  0.2792 -0.1660 -2.8479
12340TIP3   OH258510   1.852   6.457   0.424  0.0391  0.2058  0.2006
12340TIP3    H158511   1.920   6.442   0.490 -1.5265 -0.5929  1.6899
12340TIP3    H258512   1.857   6.379   0.368  1.8927  1.2381 -1.1924
12341TIP3   OH258513   2.392   2.690  13.981  0.1708  0.1856 -1.5256
12341TIP3    H158514   2.468   2.746  13.965  0.4801  0.9093  1.7395
12341TIP3    H258515   2.321   2.751  14.000 -0.7260 -0.5202 -2.4857
12342TIP3   OH258516   6.170   2.179  11.860 -0.2856 -0.2550 -0.1440
12342TIP3    H158517   6.206   2.149  11.943 -0.3922  0.6013  0.2291
12342TIP3    H258518   6.231   2.246  11.830 -1.1269  0.6593  0.1132
12343TIP3   OH258519   1.123   1.735   3.898  0.1097 -0.5606 -0.6306
12343TIP3    H158520   1.189   1.777   3.953 -0.9455 -1.1279  1.1767
12343TIP3    H258521   1.127   1.643   3.923 -1.8209 -0.4975  0.0812
12344TIP3   OH258522   4.845   2.085   4.948  0.4123 -0.3900  0.3677
12344TIP3    H158523   4.756   2.048   4.945  0.3744 -0.3165  0.6061
12344TIP3    H258524   4.870   2.091   4.856 -0.0371  0.0823  0.2693
12345TIP3   OH258525   5.490   6.559   3.905 -0.3187 -1.1774  0.1422
12345TIP3    H158526   5.555   6.493   3.931  0.2825  0.1919  2.4230
12345TIP3    H258527   5.526   6.641   3.937 -2.1055 -0.0323 -0.6370
12346TIP3   OH258528   0.342   2.722   2.154 -0.1297  0.3576  0.5003
12346TIP3    H158529   0.343   2.734   2.059  0.0904  1.8190  0.6662
12346TIP3    H258530   0.258   2.757   2.182  0.4110  1.3074  0.9881
12347TIP3   OH258531   2.674   1.061   4.287  0.2460  0.3817  0.3382
12347TIP3    H158532   2.767   1.072   4.305  0.3845  1.7540 -1.0420
12347TIP3    H258533   2.658   1.112   4.208 -1.1451 -1.9736 -1.0284
12348TIP3   OH258534   2.637   5.779  10.332  0.3181  0.1106  0.6623
12348TIP3    H158535   2.587   5.772  10.251 -0.4365 -0.7022  1.1784
12348TIP3    H258536   2.722   5.813  10.305  0.1821 -0.4371 -0.5096
12349TIP3   OH258537   4.893   3.987   3.825 -0.0898  0.5317 -0.4205
12349TIP3    H158538   4.831   3.969   3.754 -2.9044  1.1596  1.7134
12349TIP3    H258539   4.885   3.913   3.884  0.8309  0.8745  0.1588
12350TIP3   OH258540   5.974   5.847  11.982  0.1129 -0.2308  0.6614
12350TIP3    H158541   6.052   5.857  12.038  0.3298 -3.0080  1.0129
12350TIP3    H258542   6.009   5.821  11.897 -0.3785  0.8034  0.1178
12351TIP3   OH258543   4.022   3.013  14.407  0.0528  0.0665  0.0290
12351TIP3    H158544   4.047   3.076  14.475  1.8769 -0.4809 -0.0742
12351TIP3    H258545   4.012   3.066  14.328  1.6053  0.2443 -0.0684
12352TIP3   OH258546   1.671   3.354  11.393 -0.6259  0.0549 -0.6175
12352TIP3    H158547   1.635   3.290  11.332 -0.1238 -1.6030  0.7332
12352TIP3    H258548   1.750   3.388  11.350 -0.8438 -0.3068 -1.3105
12353TIP3   OH258549   3.625   4.988   1.507  0.0982  0.2047  0.3476
12353TIP3    H158550   3.530   4.974   1.512 -0.0035  0.9858  0.6815
12353TIP3    H258551   3.635   5.078   1.478  0.7521 -0.1257 -0.5110
12354TIP3   OH258552   5.434   2.087  11.796  0.0211  0.0507 -0.0886
12354TIP3    H158553   5.474   2.097  11.709  0.6296 -1.2819  0.0219
12354TIP3    H258554   5.478   2.153  11.850 -1.0283  1.5539 -0.9746
12355TIP3   OH258555   0.493   2.422  15.123  0.1212  0.0275 -0.4445
12355TIP3    H158556   0.469   2.388  15.209 -1.7872  0.1499 -0.8865
12355TIP3    H258557   0.582   2.455  15.135 -0.2114  0.3474  1.5763
12356TIP3   OH258558   1.956   0.601   2.493  0.0524 -0.0570  0.3240
12356TIP3    H158559   1.904   0.625   2.570 -0.2505  0.9425 -0.1730
12356TIP3    H258560   2.042   0.642   2.508  0.0907 -0.1197  0.2758
12357TIP3   OH258561   3.889   0.336  16.629 -0.0964 -0.0426 -0.4319
12357TIP3    H158562   3.984   0.326  16.627 -0.0803 -0.0039 -0.0131
12357TIP3    H258563   3.856   0.263  16.577  0.0880 -1.2826  1.0883
12358TIP3   OH258564   2.612   5.532  13.282 -0.2856  0.6428  0.5925
12358TIP3    H158565   2.650   5.505  13.366  3.4789  0.4692 -0.9609
12358TIP3    H258566   2.632   5.626  13.276 -0.1293  0.5598 -0.2792
12359TIP3   OH258567   4.599   2.812   0.734  0.3404  0.3267 -0.0345
12359TIP3    H158568   4.516   2.786   0.774 -0.2178  0.9244 -0.7791
12359TIP3    H258569   4.663   2.805   0.805 -0.7996  2.3810  1.2723
12360TIP3   OH258570   0.370   5.717  11.765  0.5481 -0.0590  0.4735
12360TIP3    H158571   0.299   5.674  11.718 -1.1964  0.3657  2.5404
12360TIP3    H258572   0.425   5.756  11.697  0.6138 -3.0336 -1.3478
12361TIP3   OH258573   6.465   3.945   4.970 -0.2105 -0.6379 -0.1102
12361TIP3    H158574   6.464   3.863   4.920 -0.7357 -1.5411  1.3106
12361TIP3    H258575   6.375   3.976   4.968 -1.1883 -2.6769  3.2635
12362TIP3   OH258576   4.637   2.559  10.770  0.2383 -0.9148  0.3069
12362TIP3    H158577   4.680   2.501  10.833 -0.3970 -1.7066  0.0266
12362TIP3    H258578   4.675   2.536  10.686 -1.9670 -2.9451 -0.2451
12363TIP3   OH258579   6.543   1.045   0.997 -0.0218 -0.4509  0.1182
12363TIP3    H158580   6.474   1.110   1.008  0.1011 -0.0752 -1.2726
12363TIP3    H258581   6.579   1.062   0.911  0.6555 -1.7602  0.1239
12364TIP3   OH258582   1.502   1.188   5.147 -0.7604 -0.3842 -0.2789
12364TIP3    H158583   1.407   1.192   5.134 -1.4533 -3.1085  2.6337
12364TIP3    H258584   1.535   1.146   5.068 -2.2356 -1.0072 -0.5979
12365TIP3   OH258585   4.977   2.787   1.725  0.0182 -0.4771  0.2692
12365TIP3    H158586   4.896   2.839   1.731 -0.5632 -1.3649  0.2255
12365TIP3    H258587   5.037   2.832   1.785 -1.3892 -1.3625  2.5050
12366TIP3   OH258588   3.056   2.493   3.990 -0.2643  0.1370 -0.1183
12366TIP3    H158589   3.002   2.548   3.933  0.0760 -1.4422 -2.0539
12366TIP3    H258590   3.001   2.417   4.008 -0.3814  0.6219  1.7640
12367TIP3   OH258591   1.687   3.709  10.856  0.2849  0.2174  0.2404
12367TIP3    H158592   1.663   3.740  10.768 -0.3488 -1.5340 -0.2576
12367TIP3    H258593   1.640   3.626  10.865  1.6936 -0.4840  1.5682
12368TIP3   OH258594   6.148   2.153   1.689 -0.3458 -0.2972  0.3129
12368TIP3    H158595   6.123   2.061   1.683 -0.7437 -0.1276 -0.8575
12368TIP3    H258596   6.122   2.191   1.605  0.5880  0.6913  0.4445
12369TIP3   OH258597   0.886   3.319   4.096  0.1738 -0.0887 -0.3411
12369TIP3    H158598   0.819   3.257   4.068 -0.3170  0.2733  0.0063
12369TIP3    H258599   0.844   3.369   4.166 -0.7014  2.9369 -2.7772
12370TIP3   OH258600   4.303   6.862   6.254  0.3083 -0.6044  0.0024
12370TIP3    H158601   4.369   6.816   6.202 -0.5412 -2.1593  0.2301
12370TIP3    H258602   4.258   6.793   6.303 -1.6993  0.3422 -0.3849
12371TIP3   OH258603   5.440   6.593  11.883 -0.0077  0.6221  0.0264
12371TIP3    H158604   5.494   6.515  11.898 -2.2230 -1.1873 -0.7715
12371TIP3    H258605   5.474   6.658  11.944  2.5437 -0.6400  0.0731
12372TIP3   OH258606   3.837   5.248  15.086 -0.2467  0.1367 -0.0731
12372TIP3    H158607   3.777   5.174  15.069 -1.5326  1.1038  0.0930
12372TIP3    H258608   3.858   5.282  15.000  0.4159 -0.4610 -0.1549
12373TIP3   OH258609   5.144   6.024   5.471 -0.2033 -0.3273  0.0362
12373TIP3    H158610   5.169   5.947   5.521  1.4629 -0.1404 -0.4636
12373TIP3    H258611   5.138   5.993   5.381 -3.4092 -0.7115  0.2687
12374TIP3   OH258612   5.273   2.808   5.454 -0.0996 -0.7843  0.7069
12374TIP3    H158613   5.317   2.783   5.535 -3.3098 -3.7819  1.7810
12374TIP3    H258614   5.318   2.759   5.386  0.8511 -0.4712  1.1002
12375TIP3   OH258615   4.221   5.470  11.540 -0.1994 -0.3302  0.5805
12375TIP3    H158616   4.291   5.436  11.596  0.7263  1.3657  0.4993
12375TIP3    H258617   4.254   5.458  11.450  0.5290  1.4730  0.5660
12376TIP3   OH258618   2.118   5.220  13.367 -0.8981  0.1869  0.1873
12376TIP3    H158619   2.024   5.215  13.381 -1.4501  1.5607 -2.4399
12376TIP3    H258620   2.131   5.187  13.278  0.8699  1.5580 -0.1304
12377TIP3   OH258621   4.664   6.210   3.840 -0.0892  0.3889 -0.1452
12377TIP3    H158622   4.759   6.211   3.830 -0.1335 -0.5849 -0.8244
12377TIP3    H258623   4.644   6.291   3.886  0.9053  1.4146 -1.4604
12378TIP3   OH258624   3.810   1.453   4.847 -0.3090  0.1036 -0.1404
12378TIP3    H158625   3.868   1.418   4.779  0.4553 -0.5811  0.8202
12378TIP3    H258626   3.764   1.525   4.805 -1.6230 -1.7301 -2.0893
12379TIP3   OH258627   0.323   2.271  11.172 -0.3142  0.2882  0.3445
12379TIP3    H158628   0.301   2.240  11.084 -0.1458 -0.9986  0.7336
12379TIP3    H258629   0.362   2.357  11.159 -1.3497  0.6228 -0.7416
12380TIP3   OH258630   2.475   6.185   6.342  0.5644 -0.3880 -0.0255
12380TIP3    H158631   2.407   6.127   6.307  0.8647  1.0683 -3.3877
12380TIP3    H258632   2.435   6.272   6.341  1.6277  0.1244  0.5120
12381TIP3   OH258633   6.867   4.316  12.883  0.0106  0.3765 -0.0646
12381TIP3    H158634   6.855   4.304  12.789 -1.4658 -0.2534  0.1708
12381TIP3    H258635   6.891   4.229  12.916  0.9978  0.6956  0.0908
12382TIP3   OH258636   5.057   4.083  14.137  0.1099  0.4835  0.0357
12382TIP3    H158637   5.057   4.139  14.214 -0.3116 -1.5898  1.6285
12382TIP3    H258638   4.997   4.011  14.159  2.9613 -2.2885 -0.5372
12383TIP3   OH258639   3.169   6.743  16.343 -0.2284  0.2392  0.1388
12383TIP3    H158640   3.120   6.700  16.272  2.7395 -1.4827 -1.0703
12383TIP3    H258641   3.128   6.711  16.423 -0.7974 -1.5246 -0.7978
12384TIP3   OH258642   1.978   5.177  11.395  0.7716  0.0363  0.0109
12384TIP3    H158643   2.037   5.219  11.332  0.3284  0.0047 -0.4361
12384TIP3    H258644   1.923   5.120  11.341  0.7267 -0.3847  0.4957
12385TIP3   OH258645   6.156   5.959  10.578 -0.0928  0.1769 -0.1671
12385TIP3    H158646   6.248   5.963  10.605 -0.5435  0.3951  1.4587
12385TIP3    H258647   6.120   6.045  10.599 -0.7563 -0.0316 -0.4085
12386TIP3   OH258648   3.398   1.152   2.224 -0.1940 -0.0104  0.0018
12386TIP3    H158649   3.387   1.215   2.296 -1.7032  0.5480 -0.6775
12386TIP3    H258650   3.312   1.148   2.182  0.6191 -0.4205 -1.7054
12387TIP3   OH258651   6.777   2.855   2.671  0.4429  0.0327  0.0090
12387TIP3    H158652   6.681   2.853   2.670  0.4528 -0.3262 -0.5319
12387TIP3    H258653   6.801   2.920   2.605  0.5860 -0.8497 -0.8313
12388TIP3   OH258654   0.175   5.658  10.940  0.7372  0.1064 -0.2545
12388TIP3    H158655   0.161   5.707  11.021 -2.2761  0.8999 -1.0949
12388TIP3    H258656   0.175   5.725  10.871  2.2637 -0.6336 -1.0290
12389TIP3   OH258657   3.582   4.577   5.073  0.6530 -0.4124 -0.4240
12389TIP3    H158658   3.600   4.670   5.089 -0.5950 -0.3122  0.5821
12389TIP3    H258659   3.616   4.532   5.150  0.6533 -0.7088 -0.5948
12390TIP3   OH258660   0.087   5.866   2.204  0.4493 -0.1190 -0.0834
12390TIP3    H158661   0.061   5.880   2.296  0.1930 -1.0186 -0.0068
12390TIP3    H258662   0.165   5.810   2.210  0.7691  0.2883 -0.4029
12391TIP3   OH258663   0.724   5.266  11.932  0.3080  0.2042 -0.8353
12391TIP3    H158664   0.806   5.311  11.910  1.0823 -0.8159 -0.0923
12391TIP3    H258665   0.656   5.331  11.916  1.2976  1.2059 -1.0560
12392TIP3   OH258666   1.278   2.434   5.489 -0.2760  0.2461 -0.1905
12392TIP3    H158667   1.285   2.452   5.582 -0.3962  0.3146 -0.1949
12392TIP3    H258668   1.369   2.427   5.459 -0.2420 -0.5276  0.0752
12393TIP3   OH258669   4.243   0.282  13.261 -0.1507  0.5577  0.0749
12393TIP3    H158670   4.152   0.308  13.248  0.1626  0.8738 -1.8534
12393TIP3    H258671   4.271   0.250  13.175  0.7959 -2.0971  1.2713
12394TIP3   OH258672   6.881   4.541   4.643 -0.2255 -0.6197  0.1324
12394TIP3    H158673   6.793   4.577   4.640 -1.7695 -3.8530  1.5226
12394TIP3    H258674   6.885   4.481   4.568  1.2333  0.2511 -0.5313
12395TIP3   OH258675   4.146   3.616  16.032  0.0224  0.4799  0.0182
12395TIP3    H158676   4.130   3.522  16.046  0.0849  0.5375  0.4850
12395TIP3    H258677   4.162   3.651  16.119 -1.3634  1.1858  0.0289
12396TIP3   OH258678   4.118   0.309   2.296  0.1077 -0.3518 -0.3142
12396TIP3    H158679   4.211   0.329   2.305 -0.0420  0.1111  0.2332
12396TIP3    H258680   4.081   0.384   2.250 -0.2964  0.2838  0.9837
12397TIP3   OH258681   2.650   6.738  11.417  0.5244  0.3022 -0.6624
12397TIP3    H158682   2.607   6.787  11.347 -1.3127 -0.0075  0.1867
12397TIP3    H258683   2.619   6.648  11.405  1.0514  0.0429 -0.1060
12398TIP3   OH258684   4.529   2.629  12.204  0.3302 -0.3808 -0.1765
12398TIP3    H158685   4.623   2.629  12.224  0.4156 -1.4526 -0.5523
12398TIP3    H258686   4.510   2.540  12.175 -0.9400 -0.3423  0.4879
12399TIP3   OH258687   5.784   0.801   5.671 -0.7108  0.2196 -0.0331
12399TIP3    H158688   5.778   0.830   5.762  0.4987  1.0701 -0.1997
12399TIP3    H258689   5.847   0.860   5.631 -2.1942  0.7127 -1.7885
12400TIP3   OH258690   6.093   2.205   5.320  0.2286  0.6170 -0.1946
12400TIP3    H158691   6.135   2.121   5.305 -1.2067  0.0025 -0.9707
12400TIP3    H258692   6.134   2.264   5.257 -1.1057 -0.3515 -2.0373
12401TIP3   OH258693   6.118   1.677   5.136  0.4831 -0.5062 -0.3509
12401TIP3    H158694   6.187   1.614   5.114  1.3064 -0.2179  1.2568
12401TIP3    H258695   6.051   1.624   5.179 -0.2026 -0.7357 -1.6454
12402TIP3   OH258696   4.249   3.565  15.009 -0.3849  0.6456  0.8044
12402TIP3    H158697   4.295   3.533  14.932 -1.2163 -0.1217  0.6105
12402TIP3    H258698   4.170   3.607  14.974 -0.3090  1.1092  1.1838
12403TIP3   OH258699   5.560   2.467   0.202 -0.0521 -0.5355  0.2274
12403TIP3    H158700   5.616   2.396   0.235  2.3626  0.4407 -1.4935
12403TIP3    H258701   5.577   2.540   0.261  0.0500 -0.4262  0.0656
12404TIP3   OH258702   0.529   5.851   3.809 -0.1115  0.8032  0.6299
12404TIP3    H158703   0.486   5.936   3.817 -0.9064  0.5887 -0.9942
12404TIP3    H258704   0.594   5.864   3.740  0.4992  0.3602  1.1140
12405TIP3   OH258705   5.407   5.314   5.490 -0.2420  0.0959 -0.4101
12405TIP3    H158706   5.444   5.308   5.402 -0.1421  0.3847 -0.3906
12405TIP3    H258707   5.462   5.256   5.543  0.1342  0.4506 -0.4010
12406TIP3   OH258708   3.953   4.541  14.193  0.0143 -0.1244  0.0192
12406TIP3    H158709   3.943   4.548  14.098  0.6096  0.2013 -0.0258
12406TIP3    H258710   4.048   4.540  14.207 -0.0631  0.5534  0.6576
12407TIP3   OH258711   4.156   6.252  12.240  0.5747  0.6780 -0.2843
12407TIP3    H158712   4.122   6.235  12.152 -0.6140 -0.3016  0.3238
12407TIP3    H258713   4.215   6.326  12.229 -1.7278  2.4921 -1.4626
12408TIP3   OH258714   4.241   6.781   0.834  0.1375  0.1009  0.0089
12408TIP3    H158715   4.310   6.714   0.830  0.3971  0.3938 -0.6835
12408TIP3    H258716   4.282   6.854   0.880  0.7534  0.7732 -1.5377
12409TIP3   OH258717   2.051   2.951   2.413 -0.3105  0.0363 -0.0314
12409TIP3    H158718   1.990   2.980   2.345  0.9522 -0.2919 -1.3561
12409TIP3    H258719   2.121   3.015   2.411 -0.2289 -0.0019  0.9683
12410TIP3   OH258720   4.720   5.889   4.033 -0.0912  0.9020  0.0632
12410TIP3    H158721   4.790   5.954   4.025  0.0153  0.6805 -0.8713
12410TIP3    H258722   4.697   5.867   3.943 -0.8158  0.3773  0.3671
12411TIP3   OH258723   1.808   1.014   4.136  0.3672 -0.0216 -0.1177
12411TIP3    H158724   1.729   1.019   4.190  0.2730 -0.5028 -0.2044
12411TIP3    H258725   1.879   1.007   4.199  0.1779 -1.6565 -0.0450
12412TIP3   OH258726   6.876   4.817  11.381  0.2926 -0.5297  0.1991
12412TIP3    H158727   6.825   4.760  11.323  0.8639 -0.1069 -0.7415
12412TIP3    H258728   6.836   4.904  11.370  0.6339 -0.3777  0.1486
12413TIP3   OH258729   3.144   1.830  12.957  0.6202 -0.0384  0.0560
12413TIP3    H158730   3.094   1.769  12.902  0.7503  0.4031 -0.5647
12413TIP3    H258731   3.079   1.864  13.019  1.0029 -2.5188  1.9809
12414TIP3   OH258732   3.279   4.042  10.371 -0.2671  0.0306 -0.1480
12414TIP3    H158733   3.297   4.084  10.455 -0.9773 -0.3045  0.1804
12414TIP3    H258734   3.204   3.984  10.388  1.3784 -2.2648 -0.2845
12415TIP3   OH258735   0.348   1.880   2.044 -0.2121 -1.0702 -0.0170
12415TIP3    H158736   0.323   1.794   2.077 -1.2477 -0.2806  1.3340
12415TIP3    H258737   0.354   1.936   2.121  1.0691 -0.0563 -0.7987
12416TIP3   OH258738   1.016   5.633   1.904 -1.1317  0.5253 -0.2405
12416TIP3    H158739   1.069   5.710   1.925 -0.2549 -0.0531 -0.3046
12416TIP3    H258740   1.078   5.561   1.901 -1.1806  0.4021 -4.1764
12417TIP3   OH258741   5.657   0.516   1.998  0.3196  0.3128  0.4183
12417TIP3    H158742   5.647   0.518   1.903 -0.8028  0.8732  0.5299
12417TIP3    H258743   5.686   0.428   2.018  0.6126  0.2060 -0.4528
12418TIP3   OH258744   5.001   4.566  12.982  0.0223 -0.2284  0.3460
12418TIP3    H158745   4.930   4.505  13.002 -1.5807  1.8182  1.3372
12418TIP3    H258746   4.992   4.635  13.047  0.7618  1.8235 -1.5759
12419TIP3   OH258747   5.518   4.862  14.564  0.2534  0.4164  0.2705
12419TIP3    H158748   5.551   4.805  14.634  1.3494  0.4605 -0.1950
12419TIP3    H258749   5.545   4.950  14.590 -1.2429  0.7310  0.8749
12420TIP3   OH258750   0.193   2.034   3.309 -0.0494 -0.1107  0.4921
12420TIP3    H158751   0.140   2.110   3.334  0.1275  0.5703 -1.1036
12420TIP3    H258752   0.201   2.040   3.214  1.8253 -0.9089  0.5471
12421TIP3   OH258753   2.867   5.524  15.150  0.3844  0.2585 -0.3356
12421TIP3    H158754   2.771   5.531  15.156  0.4608 -0.2034  2.5586
12421TIP3    H258755   2.898   5.614  15.162  0.3353  0.1329  0.8630
12422TIP3   OH258756   2.785   0.766   1.906 -0.2265  0.0839 -0.1385
12422TIP3    H158757   2.818   0.680   1.933  1.4027  0.6915 -0.0624
12422TIP3    H258758   2.817   0.777   1.816 -1.3335  0.1839 -0.5361
12423TIP3   OH258759   3.838   2.783   0.438 -0.3523  0.2434  1.0581
12423TIP3    H158760   3.796   2.773   0.524  0.5113  0.8559  1.5737
12423TIP3    H258761   3.883   2.700   0.424 -1.4001 -0.2720  0.6790
12424TIP3   OH258762   3.606   1.995   4.710 -0.1654  0.7540 -0.7143
12424TIP3    H158763   3.673   2.016   4.646 -1.0374  0.5670 -1.7202
12424TIP3    H258764   3.541   2.065   4.701 -0.0408  1.0248  0.3595
12425TIP3   OH258765   0.955   0.357   0.188 -0.6450 -0.0315 -0.8874
12425TIP3    H158766   1.007   0.276   0.185  0.1853  0.4167  0.3468
12425TIP3    H258767   1.010   0.418   0.239 -2.0237  0.7293 -0.2636
12426TIP3   OH258768   2.599   2.353  16.905 -0.4996 -0.6063 -0.7948
12426TIP3    H158769   2.663   2.291  16.941 -0.0758  0.1879 -0.1524
12426TIP3    H258770   2.589   2.419  16.973 -1.8544 -0.6003 -0.9783
12427TIP3   OH258771   0.260   0.405   3.099 -0.4119  0.7560  0.3180
12427TIP3    H158772   0.335   0.392   3.158 -1.2974 -3.6610  0.7924
12427TIP3    H258773   0.300   0.417   3.013  0.8227  2.8188  1.1073
12428TIP3   OH258774   2.483   4.231  15.519  0.5945  0.0831  0.5279
12428TIP3    H158775   2.437   4.201  15.598 -0.2498 -0.4404 -0.1465
12428TIP3    H258776   2.557   4.172  15.510  0.4085 -0.1712  0.6530
12429TIP3   OH258777   3.677   6.809  13.415 -0.2352  0.2936  0.4133
12429TIP3    H158778   3.730   6.885  13.442  0.7103  0.1253 -0.8824
12429TIP3    H258779   3.635   6.780  13.496  3.4737 -0.9921  2.1443
12430TIP3   OH258780   3.919   3.120  16.525  0.1659 -0.1637  0.4774
12430TIP3    H158781   3.907   3.073  16.443  2.4520 -0.3811  0.1865
12430TIP3    H258782   3.892   3.058  16.593  1.7471 -1.4147  0.0276
12431TIP3   OH258783   5.526   5.500  10.346  0.8148  0.5209  0.6610
12431TIP3    H158784   5.468   5.491  10.422  0.1452  0.0820  0.1101
12431TIP3    H258785   5.491   5.575  10.298 -1.6942 -1.8682 -1.6485
12432TIP3   OH258786   3.770   3.282  14.523 -0.1561  0.1147 -0.1212
12432TIP3    H158787   3.717   3.361  14.522  1.5572  1.3741  1.2755
12432TIP3    H258788   3.812   3.280  14.437  0.4236  1.2279  0.1118
12433TIP3   OH258789   4.511   0.049   2.777 -0.2106  0.2163 -0.0803
12433TIP3    H158790   4.530  -0.025   2.720  0.3210  0.7877 -0.6660
12433TIP3    H258791   4.424   0.030   2.812 -0.8984  0.1956 -1.6762
12434TIP3   OH258792   3.719   6.665   0.604 -0.1259  0.5347  0.3292
12434TIP3    H158793   3.727   6.596   0.670  2.6964  1.5154  1.1203
12434TIP3    H258794   3.686   6.619   0.526 -1.4026 -1.0611  1.7235
12435TIP3   OH258795   0.599   5.163  11.529 -0.3033 -0.1188 -0.1429
12435TIP3    H158796   0.687   5.134  11.554  0.3633  1.7416 -0.2018
12435TIP3    H258797   0.540   5.098  11.569  0.9233  0.4091  2.7783
12436TIP3   OH258798   4.812   4.169  11.454 -0.5047 -0.4336  0.0146
12436TIP3    H158799   4.882   4.125  11.502 -0.6323  0.2607  0.8530
12436TIP3    H258800   4.837   4.261  11.453 -1.0755 -0.2748 -0.2675
12437TIP3   OH258801   3.620   0.227   1.850 -0.1248  0.2839 -0.4133
12437TIP3    H158802   3.564   0.193   1.920  0.5592 -0.9764 -0.4363
12437TIP3    H258803   3.560   0.266   1.787 -1.2598 -2.8999 -1.4874
12438TIP3   OH258804   5.021   0.053  11.736  0.2196  0.7791  0.1567
12438TIP3    H158805   4.998   0.133  11.689 -1.5177  0.9638  1.2067
12438TIP3    H258806   4.945  -0.004  11.723  0.2767  0.3465  1.6111
12439TIP3   OH258807   3.105   1.494  16.274 -1.1551 -0.3865 -0.4776
12439TIP3    H158808   3.072   1.456  16.192 -2.0235 -0.1388 -0.2590
12439TIP3    H258809   3.062   1.443  16.343 -2.0607  0.7186 -0.1826
12440TIP3   OH258810   0.772   5.053   3.794 -0.3137 -0.0502  0.6775
12440TIP3    H158811   0.721   5.111   3.851 -0.9721 -0.9333  1.0052
12440TIP3    H258812   0.813   4.991   3.854  1.3963  0.7985  0.4462
12441TIP3   OH258813   0.989   1.316  11.622 -0.2566  0.2558  0.4415
12441TIP3    H158814   1.083   1.328  11.616 -0.1868 -0.5818 -0.3407
12441TIP3    H258815   0.971   1.238  11.570 -1.0858 -0.9802  2.4693
12442TIP3   OH258816   2.658   1.834  12.567  0.2716  0.0578 -0.1180
12442TIP3    H158817   2.722   1.828  12.497  0.6739  0.7713  0.1852
12442TIP3    H258818   2.629   1.743  12.580  2.2197 -0.5243  0.6590
12443TIP3   OH258819   5.275   2.052  14.662 -0.3042 -0.7139 -0.1393
12443TIP3    H158820   5.220   2.056  14.740 -1.0918 -0.6739 -0.6932
12443TIP3    H258821   5.351   2.001  14.689  0.2096  0.6430  1.1293
12444TIP3   OH258822   1.532   4.656  12.052 -0.5459 -0.3826 -0.1296
12444TIP3    H158823   1.485   4.658  12.135 -0.1033 -0.1223  0.1253
12444TIP3    H258824   1.541   4.563  12.030  2.5081 -0.7479  1.9976
12445TIP3   OH258825   3.627   0.803  12.295 -0.5631  0.2035  0.3307
12445TIP3    H158826   3.693   0.765  12.237 -1.4520 -1.8432  0.5429
12445TIP3    H258827   3.611   0.890  12.260 -1.6964 -1.2003 -3.1514
12446TIP3   OH258828   5.912   0.749  15.166 -0.2698 -0.0256  0.1806
12446TIP3    H158829   5.920   0.812  15.094  0.8390 -0.2889  0.0494
12446TIP3    H258830   5.835   0.697  15.144 -1.3267  1.3729  0.3870
12447TIP3   OH258831   5.438   5.176   4.968  0.1289  0.7287 -0.1345
12447TIP3    H158832   5.533   5.168   4.952 -0.0290  2.0092 -1.9614
12447TIP3    H258833   5.428   5.261   5.010 -0.0672 -0.2510  1.9433
12448TIP3   OH258834   6.673   2.588   1.667  0.0540  0.4577 -0.1990
12448TIP3    H158835   6.713   2.527   1.605  1.9972 -0.2000  1.5845
12448TIP3    H258836   6.733   2.662   1.670 -0.4313  0.8361  0.3158
12449TIP3   OH258837   5.350   3.840  14.841  0.4166  0.0456  0.1610
12449TIP3    H158838   5.410   3.786  14.789  0.2700 -2.5156  2.4403
12449TIP3    H258839   5.264   3.825  14.803  0.2765 -1.9899  1.1779
12450TIP3   OH258840   4.516   2.831   1.376 -0.2696 -0.4293 -0.3059
12450TIP3    H158841   4.516   2.800   1.285 -0.2754  1.2153 -0.8958
12450TIP3    H258842   4.423   2.841   1.397 -0.2554  0.7677 -0.7156
12451TIP3   OH258843   3.774   2.512  13.904 -0.3722 -0.2824  0.6981
12451TIP3    H158844   3.760   2.606  13.909 -0.6862 -0.2963  0.1786
12451TIP3    H258845   3.855   2.497  13.953 -1.0715  0.0716  2.0016
12452TIP3   OH258846   4.290   0.809  14.878 -0.4044 -0.3026 -0.6192
12452TIP3    H158847   4.298   0.733  14.820  2.2293  0.4733 -1.4284
12452TIP3    H258848   4.278   0.883  14.819  0.7473  0.3161 -0.0995
12453TIP3   OH258849   4.222   4.076   3.104 -0.3127  1.1482 -0.2428
12453TIP3    H158850   4.289   4.052   3.168 -0.5424  0.4272 -0.2723
12453TIP3    H258851   4.194   4.164   3.131 -1.0028  0.5362  1.1708
12454TIP3   OH258852   5.696   1.059   0.470 -0.7303 -0.2568 -0.3914
12454TIP3    H158853   5.734   1.044   0.556 -1.5633 -0.0375  0.0226
12454TIP3    H258854   5.770   1.083   0.415 -0.4561  1.5896  0.7279
12455TIP3   OH258855   6.294   0.123   3.474  0.0134  0.1958 -0.6196
12455TIP3    H158856   6.388   0.109   3.468  0.0762  0.6065 -0.6033
12455TIP3    H258857   6.256   0.038   3.451  0.4105 -0.2799  0.4001
12456TIP3   OH258858   5.039   5.953   5.211  0.0445 -0.2828  0.4963
12456TIP3    H158859   5.015   6.023   5.151  1.5767  0.9026  1.2119
12456TIP3    H258860   5.088   5.891   5.157 -1.0777 -0.7154 -0.0728
12457TIP3   OH258861   5.772   4.090  16.309  0.1612  0.4596 -0.3146
12457TIP3    H158862   5.716   4.066  16.383  0.8804 -3.0830 -0.7564
12457TIP3    H258863   5.715   4.083  16.232  0.5621 -0.6373 -0.5228
12458TIP3   OH258864   2.938   0.237   1.137 -0.1367  0.6660  0.0188
12458TIP3    H158865   3.006   0.175   1.164  2.0901  3.4872  1.3971
12458TIP3    H258866   2.890   0.257   1.217  0.9104  2.6156  0.2235
12459TIP3   OH258867   1.032   4.778  13.479 -0.2892  0.1901 -0.5409
12459TIP3    H158868   1.050   4.816  13.565 -0.8684  1.6548 -1.0375
12459TIP3    H258869   1.114   4.790  13.430 -0.3257  0.4042 -0.5519
12460TIP3   OH258870   4.970   0.103  10.985 -0.1999  0.8364  0.2522
12460TIP3    H158871   5.039   0.037  10.970  1.2899  2.2933  0.4126
12460TIP3    H258872   4.967   0.113  11.080  0.3376  1.7445  0.1816
12461TIP3   OH258873   1.449   4.245  11.583  0.4351  0.4582  0.1848
12461TIP3    H158874   1.498   4.310  11.533  0.6598  0.0288 -0.1636
12461TIP3    H258875   1.465   4.162  11.537 -1.9434  0.5376 -0.9340
12462TIP3   OH258876   4.038   6.633   3.847 -0.5874  0.4823 -0.0208
12462TIP3    H158877   4.027   6.726   3.867  2.3604  1.4341 -2.1007
12462TIP3    H258878   3.974   6.615   3.778 -0.5527  1.2492 -0.2597
12463TIP3   OH258879   6.664   6.511  13.877  0.3916  0.6975 -0.5637
12463TIP3    H158880   6.597   6.572  13.908  0.9119  2.3772 -2.5346
12463TIP3    H258881   6.653   6.508  13.782  0.8882 -1.7552 -0.6284
12464TIP3   OH258882   2.929   0.812  16.472 -0.1735 -0.6268 -0.3048
12464TIP3    H158883   2.982   0.748  16.519 -0.9510 -0.7172  0.4818
12464TIP3    H258884   2.984   0.890  16.468  0.1477 -0.8202  0.2044
12465TIP3   OH258885   4.281   6.592   1.529 -0.5302  0.4634 -0.1622
12465TIP3    H158886   4.307   6.677   1.565 -0.0634  0.2878 -0.0829
12465TIP3    H258887   4.192   6.607   1.496 -0.4149  1.0121 -0.2444
12466TIP3   OH258888   4.944   2.809   2.698  0.5652  0.1681 -0.6924
12466TIP3    H158889   4.894   2.737   2.735  1.0201  0.6626  0.9842
12466TIP3    H258890   4.880   2.862   2.650 -0.2219 -0.0178  0.1422
12467TIP3   OH258891   0.125   0.048   3.762  0.3200  0.0804 -0.5462
12467TIP3    H158892   0.105  -0.003   3.683 -1.5108  0.9787 -0.6986
12467TIP3    H258893   0.043   0.089   3.786  1.3244  1.4894  0.6656
12468TIP3   OH258894   5.643   4.207  15.056 -0.8958  0.1059  0.4475
12468TIP3    H158895   5.731   4.230  15.026 -0.6256 -0.6412  0.6471
12468TIP3    H258896   5.589   4.282  15.031 -0.3968  0.1297 -0.6028
12469TIP3   OH258897   0.975   2.884  13.410  0.2120 -0.2431  0.5592
12469TIP3    H158898   0.907   2.946  13.437  1.1143  0.0621  2.2706
12469TIP3    H258899   1.047   2.938  13.379  0.3956 -0.4985  0.5360
12470TIP3   OH258900   6.503   1.272   2.044  0.8891 -0.4031 -0.1856
12470TIP3    H158901   6.598   1.284   2.046  0.7557  0.7129 -0.1917
12470TIP3    H258902   6.473   1.302   2.129  0.3086  1.5724 -1.0354
12471TIP3   OH258903   0.263   3.726   2.742 -0.2129  0.2364 -0.2090
12471TIP3    H158904   0.193   3.661   2.733 -0.2286  0.0723  0.9163
12471TIP3    H258905   0.343   3.676   2.727 -0.2339 -0.0242  0.5007
12472TIP3   OH258906   4.430   5.551  13.292 -0.4263 -0.0898 -0.2367
12472TIP3    H158907   4.503   5.601  13.254 -1.6533  1.4622 -0.6495
12472TIP3    H258908   4.422   5.585  13.381  0.7740 -1.8923  0.6229
12473TIP3   OH258909   1.110   0.487  13.102  0.2715 -0.0565 -0.4501
12473TIP3    H158910   1.086   0.467  13.192  1.4006 -2.6230 -0.6282
12473TIP3    H258911   1.055   0.429  13.049 -0.8303  1.8574 -1.5171
12474TIP3   OH258912   5.099   3.161   5.611  0.2841 -0.4181 -0.0718
12474TIP3    H158913   5.089   3.254   5.591  0.0428 -0.7504 -1.6011
12474TIP3    H258914   5.192   3.151   5.630  0.7298 -0.2070 -1.9573
12475TIP3   OH258915   1.500   0.537  15.128 -0.6069  0.4138  0.3626
12475TIP3    H158916   1.590   0.567  15.112 -0.3021 -0.7429 -0.2319
12475TIP3    H258917   1.450   0.569  15.053 -0.4173  0.0063  0.0566
12476TIP3   OH258918   0.726   3.393   5.515  0.2477 -0.0048 -0.2834
12476TIP3    H158919   0.813   3.359   5.495  0.3097  0.3464 -0.6353
12476TIP3    H258920   0.729   3.417   5.608  0.9908  1.3420 -0.6261
12477TIP3   OH258921   4.207   0.564  16.789  0.3824 -0.7740  0.0468
12477TIP3    H158922   4.176   0.500  16.854 -0.0896 -0.8520 -0.2533
12477TIP3    H258923   4.297   0.582  16.816 -0.6419  1.3711  2.4923
12478TIP3   OH258924   2.983   3.837   6.494 -0.0013 -0.0637  0.0262
12478TIP3    H158925   3.050   3.860   6.429  1.8022 -1.4975  1.3000
12478TIP3    H258926   2.939   3.920   6.513 -0.4002  0.4684 -2.7410
12479TIP3   OH258927   5.861   5.191  12.639  0.2851 -0.2505 -0.2938
12479TIP3    H158928   5.767   5.179  12.634  0.1399  0.5112  0.4150
12479TIP3    H258929   5.879   5.268  12.586  0.5884 -0.6756 -0.8306
12480TIP3   OH258930   6.768   2.369   2.617  0.3158 -0.4092 -0.1086
12480TIP3    H158931   6.794   2.322   2.537 -0.8394 -0.3779 -0.5114
12480TIP3    H258932   6.757   2.300   2.682  0.2555 -0.5332 -0.2497
12481TIP3   OH258933   3.557   1.073  14.420 -0.2268 -0.4004 -0.0339
12481TIP3    H158934   3.623   1.044  14.356 -1.7224  0.6123 -2.1758
12481TIP3    H258935   3.570   1.168  14.426 -1.4605 -0.1844 -0.5066
12482TIP3   OH258936   6.464   0.980   5.078 -0.6833 -0.2422  0.1429
12482TIP3    H158937   6.499   0.958   5.164 -1.7608  0.5886  0.8224
12482TIP3    H258938   6.529   0.947   5.016  0.5246 -0.0727  1.2909
12483TIP3   OH258939   1.443   4.645   1.241  0.1992  0.4304 -0.1278
12483TIP3    H158940   1.479   4.731   1.223 -1.4713  1.1246 -0.3483
12483TIP3    H258941   1.448   4.635   1.336 -0.8547  1.3880  0.0481
12484TIP3   OH258942   3.661   0.288  10.990  0.2480  0.5776  0.5142
12484TIP3    H158943   3.724   0.360  10.999 -0.9783  1.8444 -0.6148
12484TIP3    H258944   3.615   0.306  10.908 -0.6006 -1.1207  0.5663
12485TIP3   OH258945   5.082   4.477  16.102  0.2472  0.0086  0.0041
12485TIP3    H158946   5.104   4.551  16.159 -0.4989  0.3532 -0.1270
12485TIP3    H258947   4.998   4.446  16.136  0.2484 -0.3697 -0.3355
12486TIP3   OH258948   1.508   3.114  12.880 -0.2141 -0.3087 -0.3997
12486TIP3    H158949   1.491   3.068  12.798  0.2371 -1.0645 -0.0813
12486TIP3    H258950   1.590   3.076  12.911 -0.9501 -0.8275  0.9666
12487TIP3   OH258951   6.469   0.590   5.143 -0.0698  0.1258 -0.3378
12487TIP3    H158952   6.416   0.626   5.214 -2.9311  0.1976 -2.3495
12487TIP3    H258953   6.468   0.495   5.159 -0.5677  0.1536 -0.1659
12488TIP3   OH258954   6.503   2.298  13.498 -0.3073  0.7146  0.2457
12488TIP3    H158955   6.433   2.257  13.549  0.9926 -0.6971  0.9770
12488TIP3    H258956   6.584   2.270  13.541  0.7339  1.9973 -0.7934
12489TIP3   OH258957   5.786   5.665   4.828 -0.2613 -0.2238 -0.0439
12489TIP3    H158958   5.734   5.585   4.832 -0.6237  0.0434  1.0705
12489TIP3    H258959   5.785   5.698   4.918  0.4175  0.6914 -0.3605
12490TIP3   OH258960   0.061   6.016  13.385  0.1172  0.3032  0.0739
12490TIP3    H158961   0.119   6.092  13.392  0.1476  0.2098  0.8475
12490TIP3    H258962   0.028   6.002  13.474 -0.1493 -0.3890 -0.1273
12491TIP3   OH258963   3.644   3.264  13.189 -0.1311  0.1207 -0.1633
12491TIP3    H158964   3.671   3.177  13.219  0.6769  0.0184 -1.1486
12491TIP3    H258965   3.577   3.246  13.122 -2.6230  0.3613  2.0708
12492TIP3   OH258966   0.324   0.861  12.967  0.2506 -0.2178 -0.0401
12492TIP3    H158967   0.392   0.794  12.954  0.6436  0.3321 -0.9034
12492TIP3    H258968   0.256   0.838  12.904 -0.0527 -0.3535  0.3324
12493TIP3   OH258969   0.730   5.438  15.834  0.4004 -0.0506  0.1370
12493TIP3    H158970   0.768   5.367  15.781  0.2260  0.4671 -0.6973
12493TIP3    H258971   0.699   5.394  15.913  0.4691 -0.8818 -0.2795
12494TIP3   OH258972   3.339   4.931   3.855 -0.1649  0.8523  0.5549
12494TIP3    H158973   3.253   4.959   3.886 -1.3350 -1.4695 -0.3612
12494TIP3    H258974   3.379   4.888   3.930 -0.3873  0.7265  0.6025
12495TIP3   OH258975   1.220   5.357  15.358  0.2789  0.1837  0.5029
12495TIP3    H158976   1.194   5.316  15.276  0.6753  1.0682 -0.0843
12495TIP3    H258977   1.167   5.314  15.425  0.1681 -0.7566 -0.1750
12496TIP3   OH258978   5.802   2.943  15.072  0.7537  0.7338 -0.4835
12496TIP3    H158979   5.843   2.992  15.143  0.1984 -0.8825  1.0268
12496TIP3    H258980   5.713   2.928  15.102  0.8659 -1.0578 -0.9522
12497TIP3   OH258981   0.304   1.210  14.677  0.0967  0.1618  0.2119
12497TIP3    H158982   0.304   1.133  14.734 -2.1543 -0.2103 -0.2032
12497TIP3    H258983   0.334   1.177  14.593  0.9781  0.1736  0.5097
12498TIP3   OH258984   4.377   6.581  14.619  0.2374 -0.0520 -0.1026
12498TIP3    H158985   4.408   6.634  14.693  0.8284  0.7591 -0.9032
12498TIP3    H258986   4.397   6.634  14.542 -0.9835 -0.5782 -0.8111
12499TIP3   OH258987   3.962   0.123  15.746  0.3200  0.5537 -0.0852
12499TIP3    H158988   3.902   0.049  15.738 -1.0435  1.2955  2.2532
12499TIP3    H258989   3.908   0.199  15.722  1.1526  0.9872 -0.6155
12500TIP3   OH258990   1.448   5.873  12.360 -0.2624  1.4226 -0.0313
12500TIP3    H158991   1.444   5.964  12.388 -0.2767  2.1741 -2.2833
12500TIP3    H258992   1.456   5.877  12.264 -0.1857 -0.9382 -0.1929
12501TIP3   OH258993   0.352   0.478  13.108  0.3536  0.3032 -0.5475
12501TIP3    H158994   0.330   0.529  13.186  0.1029  0.7420 -0.9031
12501TIP3    H258995   0.303   0.396  13.118  1.2770 -0.1623  0.3531
12502TIP3   OH258996   2.665   2.007   1.766 -0.0305  0.4044 -0.3333
12502TIP3    H158997   2.693   2.012   1.857 -0.7407 -0.7847 -0.0320
12502TIP3    H258998   2.569   2.003   1.770 -0.1676  1.8855 -1.2209
12503TIP3   OH258999   2.547   2.307   3.454  0.0769  0.9185 -0.3624
12503TIP3    H159000   2.469   2.359   3.474 -1.2181 -1.2066  0.3938
12503TIP3    H259001   2.558   2.318   3.359 -2.3758 -0.2903 -0.8723
12504TIP3   OH259002   1.141   1.432   2.049 -0.0960 -0.7122  0.1508
12504TIP3    H159003   1.063   1.415   1.997  0.8338 -1.8742 -0.9159
12504TIP3    H259004   1.113   1.416   2.139 -0.9999 -1.4691 -0.2416
12505TIP3   OH259005   1.554   2.125   3.502  0.5822  0.4279  0.0346
12505TIP3    H159006   1.468   2.086   3.519  0.1539  0.7389 -1.2840
12505TIP3    H259007   1.540   2.219   3.514  0.9554  0.4040  0.6586
12506TIP3   OH259008   0.104   1.012  14.218 -0.3797 -0.1744  0.5291
12506TIP3    H159009   0.043   0.994  14.289 -0.6888 -0.5107  0.1805
12506TIP3    H259010   0.069   1.090  14.174 -0.4564 -0.2554  0.4459
12507TIP3   OH259011   2.252   3.038   4.041  0.1420 -0.0307 -0.1520
12507TIP3    H159012   2.226   3.125   4.010  0.1946 -0.4934 -1.5743
12507TIP3    H259013   2.319   3.055   4.108  1.4730  1.0123 -1.6625
12508TIP3   OH259014   5.574   2.781  15.130 -0.1882 -0.6788  0.1331
12508TIP3    H159015   5.620   2.786  15.213  2.0930 -1.4689 -0.9870
12508TIP3    H259016   5.508   2.713  15.142 -1.4482  0.7826  1.9235
12509TIP3   OH259017   4.509   6.013  15.355 -0.2619  0.1121  0.2601
12509TIP3    H159018   4.519   5.936  15.411  0.6631  1.6383  2.3065
12509TIP3    H259019   4.569   5.998  15.282  0.5765 -0.7077  1.0947
12510TIP3   OH259020   4.399   3.481   2.238 -0.6521 -0.0643 -0.2662
12510TIP3    H159021   4.409   3.453   2.147 -0.0948  0.2270 -0.3030
12510TIP3    H259022   4.348   3.561   2.233  0.4842  0.6738 -0.4508
12511TIP3   OH259023   2.918   3.001  13.065  0.0384 -0.0548 -0.5223
12511TIP3    H159024   2.916   3.088  13.024 -1.3100  1.6356  2.7409
12511TIP3    H259025   3.009   2.989  13.092 -0.2713  1.8863  1.7251
12512TIP3   OH259026   1.417   0.519  12.089  0.1011 -0.0516 -0.6649
12512TIP3    H159027   1.427   0.609  12.056  1.2781  0.4825  0.9997
12512TIP3    H259028   1.394   0.530  12.181 -0.3925 -1.4828 -0.5967
12513TIP3   OH259029   2.571   0.341  16.717  0.3657  0.7603 -0.2707
12513TIP3    H159030   2.654   0.334  16.764 -1.1300 -4.0225  2.3373
12513TIP3    H259031   2.525   0.413  16.760  0.3521 -1.3696  3.7817
12514TIP3   OH259032   5.869   0.051  11.320 -0.5861 -0.3488  0.3521
12514TIP3    H159033   5.928  -0.021  11.297 -1.2220 -0.5742 -0.5941
12514TIP3    H259034   5.782   0.012  11.324 -0.7365  0.0560  1.4093
12515TIP3   OH259035   1.278   2.969   1.746 -0.1401 -0.0393  0.0277
12515TIP3    H159036   1.275   2.873   1.752 -0.0616 -0.0359  0.1322
12515TIP3    H259037   1.344   2.994   1.811  0.4912  0.0307 -0.6298
12516TIP3   OH259038   4.038   3.808  11.668  1.1460 -0.2642  0.7365
12516TIP3    H159039   3.952   3.852  11.670  1.0885 -0.3228 -0.1193
12516TIP3    H259040   4.020   3.721  11.632  1.4999 -0.4405  0.9795
12517TIP3   OH259041   6.572   4.423  15.851  0.3315  0.0321 -0.4727
12517TIP3    H159042   6.563   4.506  15.898  1.5243  0.4918 -1.0014
12517TIP3    H259043   6.519   4.434  15.772 -0.4536 -0.1596  0.0270
12518TIP3   OH259044   6.513   6.719   2.097 -0.1828  0.2331  0.3470
12518TIP3    H159045   6.495   6.633   2.133 -0.0045 -0.4567 -1.1251
12518TIP3    H259046   6.607   6.731   2.110  0.6975 -1.6293 -2.9614
12519TIP3   OH259047   5.162   1.587   0.732  0.0525  0.1077 -0.1435
12519TIP3    H159048   5.094   1.646   0.761 -0.6484 -0.2792 -0.9589
12519TIP3    H259049   5.146   1.575   0.638  3.7940  3.4382 -1.4802
12520TIP3   OH259050   5.543   1.456   1.829  0.0950  0.2525  0.2622
12520TIP3    H159051   5.470   1.445   1.768 -0.5795 -1.0783  1.2593
12520TIP3    H259052   5.584   1.538   1.802 -1.4688  0.7872 -0.6503
12521TIP3   OH259053   4.515   6.681  10.847  0.4867 -0.0136  0.5139
12521TIP3    H159054   4.427   6.693  10.883  0.8122 -0.5406  1.5309
12521TIP3    H259055   4.502   6.678  10.752 -0.6706 -0.6932  0.6767
12522TIP3   OH259056   3.712   4.219  12.171  0.1978  0.1070  0.0241
12522TIP3    H159057   3.735   4.270  12.249 -1.0191 -0.7140  0.9624
12522TIP3    H259058   3.789   4.226  12.115  1.1878  0.5948  1.3693
12523TIP3   OH259059   5.182   0.628  13.068  0.3161 -0.3070  0.1041
12523TIP3    H159060   5.239   0.704  13.056  0.4917 -0.0550  2.1835
12523TIP3    H259061   5.102   0.663  13.105 -0.0695 -1.0022 -0.0470
12524TIP3   OH259062   6.665   0.722  15.668  0.1037 -0.2194 -0.0309
12524TIP3    H159063   6.627   0.678  15.744  0.3632 -0.6784 -0.1618
12524TIP3    H259064   6.725   0.787  15.705  0.6532 -0.8177  0.1655
12525TIP3   OH259065   6.700   2.712  12.250  0.1348 -0.2835  0.4927
12525TIP3    H159066   6.611   2.740  12.270 -0.0588 -1.2521  1.0943
12525TIP3    H259067   6.750   2.735  12.328  0.2816 -0.2491  0.3881
12526TIP3   OH259068   1.838   3.374   0.812  0.2708 -0.4600  0.0055
12526TIP3    H159069   1.906   3.441   0.804  0.4437 -0.7814 -1.6847
12526TIP3    H259070   1.771   3.414   0.868  2.4104 -0.6595  2.9417
12527TIP3   OH259071   2.257   5.898   0.970  0.0578  0.2317  0.3689
12527TIP3    H159072   2.221   5.823   0.922  0.4039  1.0736 -1.2456
12527TIP3    H259073   2.184   5.928   1.024 -0.8156  0.1536 -0.7262
12528TIP3   OH259074   4.434   6.714   5.195  0.1508 -0.2798  0.1960
12528TIP3    H159075   4.504   6.758   5.244 -0.2035 -0.4107  0.8235
12528TIP3    H259076   4.383   6.668   5.262 -1.5884  1.2363 -0.0357
12529TIP3   OH259077   2.291   3.301  12.706  0.9252 -0.5530 -0.6304
12529TIP3    H159078   2.291   3.329  12.797  0.0651 -1.2441 -0.4068
12529TIP3    H259079   2.364   3.239  12.700  1.5659  0.2000 -0.6408
12530TIP3   OH259080   1.582   1.030  16.916 -0.7442  0.1432 -0.0452
12530TIP3    H159081   1.575   1.072  16.830  1.6911 -0.1114 -0.4541
12530TIP3    H259082   1.626   0.947  16.899 -4.1138 -2.0291  0.9628
12531TIP3   OH259083   0.925   5.451  11.892  0.1782  0.1326 -0.1437
12531TIP3    H159084   0.918   5.535  11.936 -1.4201 -0.4367  0.7910
12531TIP3    H259085   0.863   5.457  11.819 -0.4328 -0.4148  0.3079
12532TIP3   OH259086   6.813   3.149   3.088  0.5394  0.0579  0.1408
12532TIP3    H159087   6.776   3.224   3.136 -0.0196  1.4944 -2.3385
12532TIP3    H259088   6.748   3.079   3.099  0.3639  0.3893  1.3295
12533TIP3   OH259089   2.208   3.104  13.865  0.0856 -0.0332  0.4516
12533TIP3    H159090   2.183   3.162  13.937 -0.1522  0.5861 -0.1181
12533TIP3    H259091   2.141   3.119  13.799  1.5340  1.1252 -0.8301
12534TIP3   OH259092   0.750   5.404  13.334 -0.1003  0.0793 -0.1866
12534TIP3    H159093   0.804   5.462  13.388 -0.8907  0.1470  0.5593
12534TIP3    H259094   0.739   5.451  13.251 -0.7352  1.0242  0.4087
12535TIP3   OH259095   5.603   1.657  11.800  0.0473 -0.3067  0.0489
12535TIP3    H159096   5.558   1.724  11.851 -0.8551 -1.4925  0.8932
12535TIP3    H259097   5.540   1.632  11.732  0.4101 -0.2234 -0.3191
12536TIP3   OH259098   2.268   5.051  15.952  0.0933 -1.3959 -0.2250
12536TIP3    H159099   2.229   5.035  16.038 -1.3238 -2.2134 -0.9969
12536TIP3    H259100   2.198   5.035  15.889  1.1923 -1.1624 -1.5745
12537TIP3   OH259101   6.617   3.891  13.083  0.5219 -0.5749 -0.3026
12537TIP3    H159102   6.584   3.960  13.142  0.5135 -0.9454  0.1317
12537TIP3    H259103   6.686   3.933  13.033  0.9665 -0.4232  0.4236
12538TIP3   OH259104   3.236   0.791   1.682 -0.1288 -0.2425 -0.0200
12538TIP3    H159105   3.268   0.814   1.770  2.9544  2.1301 -1.5445
12538TIP3    H259106   3.172   0.859   1.662  1.4082  1.1154 -0.6284
12539TIP3   OH259107   0.556   4.246  12.423 -0.1688  0.0389 -0.0906
12539TIP3    H159108   0.496   4.303  12.469  1.3586 -0.0882  2.2112
12539TIP3    H259109   0.607   4.304  12.366  0.6620  0.8586  1.4474
12540TIP3   OH259110   5.835   1.755  11.722  0.1499  0.0970 -0.3034
12540TIP3    H159111   5.881   1.736  11.804 -0.3953 -2.2115 -0.4692
12540TIP3    H259112   5.743   1.735  11.740  0.0376 -0.5640 -1.4862
12541TIP3   OH259113   5.278   3.967   5.734 -0.4660 -0.4962  0.2881
12541TIP3    H159114   5.258   3.940   5.823 -0.4606  1.0285  0.7825
12541TIP3    H259115   5.200   3.945   5.684 -1.5542  1.0350  1.2322
12542TIP3   OH259116   1.323   4.914  13.088  0.7653  0.2605  0.8184
12542TIP3    H159117   1.381   4.968  13.142 -0.4833  1.9192  0.5769
12542TIP3    H259118   1.256   4.975  13.056 -0.2924 -1.3028 -0.0782
12543TIP3   OH259119   3.040   2.493   4.836  0.3101 -0.6789  0.3841
12543TIP3    H159120   3.010   2.581   4.810 -0.0468 -2.1422 -5.9027
12543TIP3    H259121   2.960   2.443   4.848  0.4066 -1.0137 -0.3020
12544TIP3   OH259122   2.046   2.428  15.163  0.5000  0.2551  0.1327
12544TIP3    H159123   2.129   2.398  15.126 -0.1619 -1.7041  0.1293
12544TIP3    H259124   1.989   2.442  15.087  0.5049  0.6607  0.1964
12545TIP3   OH259125   5.327   2.767   2.994 -0.0870 -0.2472 -0.0582
12545TIP3    H159126   5.410   2.732   3.027  1.0021  0.2984 -2.0991
12545TIP3    H259127   5.264   2.745   3.062  1.8587  0.0693  1.9631
12546TIP3   OH259128   6.395   1.294   5.839 -0.2052  0.3648 -0.3061
12546TIP3    H159129   6.477   1.245   5.843  0.5097  1.5102 -0.4258
12546TIP3    H259130   6.359   1.274   5.753 -0.3144 -0.5367 -0.0602
12547TIP3   OH259131   3.560   2.214  12.514  0.0966  0.7687  0.3387
12547TIP3    H159132   3.491   2.151  12.495 -0.3798  0.3617  2.9866
12547TIP3    H259133   3.641   2.162  12.513 -0.1941  0.2543  1.6461
12548TIP3   OH259134   5.665   5.653   0.174 -0.0682 -0.1731  0.0978
12548TIP3    H159135   5.572   5.656   0.197  0.2063 -1.0850  1.4012
12548TIP3    H259136   5.693   5.564   0.196  0.9816 -0.1128 -0.8710
12549TIP3   OH259137   5.922   2.453  13.443 -0.3859  0.2162  0.4092
12549TIP3    H159138   5.924   2.513  13.369  0.5896 -0.9448 -0.5557
12549TIP3    H259139   6.004   2.470  13.489 -1.0657  1.0544  1.3660
12550TIP3   OH259140   1.002   3.940  10.980 -0.2084  0.0632  0.0701
12550TIP3    H159141   1.073   4.004  10.988 -0.7507  0.5107  2.0925
12550TIP3    H259142   0.931   3.989  10.938 -1.1388  1.3763  2.9306
12551TIP3   OH259143   4.052   0.579  10.763  0.2172 -0.0090  0.2779
12551TIP3    H159144   4.014   0.610  10.681  0.3233 -0.1331  0.1814
12551TIP3    H259145   3.981   0.586  10.827  0.6054  1.7199  0.5779
12552TIP3   OH259146   4.911   1.028  11.976 -0.4485  0.2838 -0.1290
12552TIP3    H159147   4.942   0.948  12.016 -0.8786 -0.9631 -2.1455
12552TIP3    H259148   4.937   1.021  11.884 -2.4328  1.3881 -0.8455
12553TIP3   OH259149   1.130   5.094  12.979  0.4205  0.2085  0.3592
12553TIP3    H159150   1.145   5.183  12.947 -0.1727  0.4824  0.8185
12553TIP3    H259151   1.035   5.083  12.976  0.5753 -1.2429 -1.8820
12554TIP3   OH259152   4.966   2.916   1.035  0.4831 -0.2423  0.7584
12554TIP3    H159153   4.951   3.006   1.006 -0.9649 -0.8386 -0.4461
12554TIP3    H259154   4.973   2.923   1.130  0.9676  1.2032  0.6514
12555TIP3   OH259155   1.611   3.879   0.094  0.3290 -0.3118  0.3801
12555TIP3    H159156   1.543   3.822   0.129 -1.0183 -0.7351 -2.5787
12555TIP3    H259157   1.618   3.853   0.002  3.0152  1.1887  0.0652
12556TIP3   OH259158   2.155   4.079  11.932  0.5910  0.6491 -0.3922
12556TIP3    H159159   2.112   4.002  11.970  1.7265  0.2512  0.1265
12556TIP3    H259160   2.162   4.141  12.004 -0.2288  1.2138 -0.7851
12557TIP3   OH259161   4.340   6.661   4.090  0.5049 -1.0373  0.2949
12557TIP3    H159162   4.266   6.602   4.074  0.9442 -2.1953  2.1962
12557TIP3    H259163   4.299   6.745   4.108 -0.3338 -1.5239  0.7329
12558TIP3   OH259164   1.788   6.346  15.114 -0.0411 -0.0592 -0.4372
12558TIP3    H159165   1.865   6.342  15.059  0.2085  0.0312 -0.1012
12558TIP3    H259166   1.728   6.281  15.078 -1.0393  1.9233 -2.5552
12559TIP3   OH259167   1.316   5.715   4.767 -0.4540 -0.2056  0.5025
12559TIP3    H159168   1.230   5.715   4.725 -0.7846  0.3133  1.1602
12559TIP3    H259169   1.350   5.803   4.749 -0.6075  0.0266  1.3207
12560TIP3   OH259170   1.700   5.970   1.082  0.3354  0.4069 -0.6601
12560TIP3    H159171   1.669   5.901   1.022 -1.7833  1.0907 -0.4413
12560TIP3    H259172   1.761   5.925   1.140 -0.7943 -1.2666 -0.6704
12561TIP3   OH259173   4.984   1.685  15.939  0.3626 -0.0180 -0.8507
12561TIP3    H159174   5.015   1.775  15.939  0.0509  0.1184 -2.4156
12561TIP3    H259175   5.039   1.641  15.873  0.1712 -0.8539 -0.4747
12562TIP3   OH259176   5.791   1.633  15.616  0.5192  0.0835 -0.2808
12562TIP3    H159177   5.855   1.679  15.560  1.1377 -1.2340 -0.6891
12562TIP3    H259178   5.710   1.635  15.565  0.8400 -0.2817 -0.8210
12563TIP3   OH259179   0.677   1.888   4.728  0.4220  0.6478  0.5982
12563TIP3    H159180   0.649   1.977   4.709 -2.4718 -0.5680 -1.8453
12563TIP3    H259181   0.771   1.888   4.711  1.5056  4.0256  4.8041
12564TIP3   OH259182   3.730   0.327   0.314  0.2854 -0.4193 -0.4585
12564TIP3    H159183   3.659   0.308   0.252  0.9933 -0.4888 -1.2667
12564TIP3    H259184   3.779   0.398   0.273  0.2522  0.1402  0.4501
12565TIP3   OH259185   3.813   0.330  11.821 -0.4231 -0.4319  0.3075
12565TIP3    H159186   3.789   0.307  11.731 -2.2826 -0.2360  0.7124
12565TIP3    H259187   3.849   0.418  11.814 -0.4161 -0.4741 -0.2627
12566TIP3   OH259188   1.833   3.166   3.517 -0.0802 -0.1807 -0.1503
12566TIP3    H159189   1.854   3.111   3.442  0.5839 -1.7167  1.1009
12566TIP3    H259190   1.774   3.112   3.570 -2.7723  1.8811 -0.7924
12567TIP3   OH259191   2.776   6.039  15.580 -0.2710  0.0575  0.1929
12567TIP3    H159192   2.714   5.982  15.535 -0.8248 -0.1206  1.1551
12567TIP3    H259193   2.748   6.037  15.671  0.9767  0.2183  0.5910
12568TIP3   OH259194   2.279   1.233  15.088 -0.4786 -0.0869 -0.0803
12568TIP3    H159195   2.270   1.140  15.106  0.2907 -0.6722 -2.3942
12568TIP3    H259196   2.285   1.274  15.175 -1.0856 -2.1325  0.9853
12569TIP3   OH259197   4.309   6.074  12.923  0.4279 -0.2071  0.2476
12569TIP3    H159198   4.229   6.074  12.871  0.8380 -0.5351 -0.3931
12569TIP3    H259199   4.304   5.992  12.974 -0.4889  0.6262  1.5603
12570TIP3   OH259200   0.165   6.198  15.012 -0.3908  0.0882  0.0553
12570TIP3    H159201   0.241   6.139  15.015 -0.7716 -0.3597  1.1365
12570TIP3    H259202   0.169   6.247  15.095  0.5359  2.3963 -1.2477
12571TIP3   OH259203   0.599   0.203  15.995  0.3508  0.0199 -0.7214
12571TIP3    H159204   0.611   0.115  15.959  0.6568  0.2024 -1.0791
12571TIP3    H259205   0.683   0.247  15.977 -0.0490  0.6070 -1.1877
12572TIP3   OH259206   5.177   4.857  11.198 -0.0356  0.3851 -0.5162
12572TIP3    H159207   5.214   4.897  11.119  1.5715  0.7026  0.3720
12572TIP3    H259208   5.133   4.929  11.243  0.5142  0.5805 -0.2825
12573TIP3   OH259209   2.483   1.123   5.246  0.4027 -0.0377 -0.0512
12573TIP3    H159210   2.531   1.184   5.190  0.2192 -0.2761 -0.4793
12573TIP3    H259211   2.441   1.178   5.312  0.3090  0.2889 -0.3828
12574TIP3   OH259212   6.149   0.123  14.150  0.4519  0.5036  0.5134
12574TIP3    H159213   6.229   0.085  14.114  0.0142 -0.6057  0.6713
12574TIP3    H259214   6.092   0.136  14.075  0.3208  0.1372  0.5484
12575TIP3   OH259215   4.189   1.784  16.165 -0.7354  0.8276 -0.4205
12575TIP3    H159216   4.262   1.808  16.223 -0.9755  1.0391 -0.2032
12575TIP3    H259217   4.196   1.689  16.157 -0.0294  0.9136 -0.9493
12576TIP3   OH259218   4.537   6.801  16.860 -0.8529 -0.0822  0.1903
12576TIP3    H159219   4.513   6.714  16.891 -1.1309  0.6710  2.2176
12576TIP3    H259220   4.454   6.839  16.830 -0.8689 -0.1912  0.0929
12577TIP3   OH259221   6.123   5.606  11.283  0.1565  0.4669  0.4659
12577TIP3    H159222   6.116   5.511  11.296 -1.5664  0.5328  0.2188
12577TIP3    H259223   6.047   5.629  11.231  0.2728  2.0781  0.9489
12578TIP3   OH259224   5.331   4.184   1.709 -0.2299  0.0135 -0.2505
12578TIP3    H159225   5.342   4.191   1.804  0.0208 -0.3594 -0.2491
12578TIP3    H259226   5.402   4.128   1.681 -0.3686  0.0337 -0.6481
12579TIP3   OH259227   3.204   4.318  16.184  0.3662 -0.0184  0.4164
12579TIP3    H159228   3.287   4.295  16.225  1.3832  0.1387 -1.4514
12579TIP3    H259229   3.175   4.238  16.140  0.4285  0.3722 -0.3687
12580TIP3   OH259230   6.329   1.822   2.906 -0.1849  0.0781  0.8645
12580TIP3    H159231   6.273   1.790   2.835  0.7251 -1.0996  0.6468
12580TIP3    H259232   6.410   1.847   2.863  0.2157 -0.2338  1.4341
12581TIP3   OH259233   4.695   1.080  11.669 -0.0292 -0.4610 -0.1159
12581TIP3    H159234   4.781   1.049  11.699 -0.3475 -1.0157  0.2286
12581TIP3    H259235   4.691   1.171  11.698  1.0165  0.0163 -1.3473
12582TIP3   OH259236   4.996   5.978  13.896 -0.2957 -0.4286 -0.0736
12582TIP3    H159237   4.988   6.028  13.815  0.6833 -0.0001  0.0733
12582TIP3    H259238   4.908   5.944  13.913 -1.3353  2.2706  0.4745
12583TIP3   OH259239   0.733   0.100   0.067  0.1429  0.4631 -0.1074
12583TIP3    H159240   0.640   0.090   0.083  0.2413 -1.6478 -0.6533
12583TIP3    H259241   0.739   0.169   0.000 -1.0277  0.4752 -0.2108
12584TIP3   OH259242   4.140   4.274   3.999 -0.0691  0.2512 -0.0711
12584TIP3    H159243   4.109   4.237   3.916 -1.6285 -0.7929  0.9052
12584TIP3    H259244   4.060   4.302   4.043  0.7090  0.5822  1.1667
12585TIP3   OH259245   0.312   5.408  12.347  0.1172 -0.7200 -0.3039
12585TIP3    H159246   0.396   5.398  12.391  0.9132 -1.7385 -1.9827
12585TIP3    H259247   0.301   5.328  12.297 -1.4706 -0.2430 -0.7739
12586TIP3   OH259248   0.603   2.044  15.914 -0.0681  0.0545  0.4732
12586TIP3    H159249   0.605   2.007  16.003 -0.2684  0.9965  0.8844
12586TIP3    H259250   0.527   2.003  15.873  0.9236 -1.5810  0.1833
12587TIP3   OH259251   3.050   4.642  12.203 -0.0835  0.0403  0.2227
12587TIP3    H159252   3.045   4.606  12.115  3.2634 -2.6335  0.9071
12587TIP3    H259253   3.071   4.735  12.190 -2.6817  0.4482 -1.6712
12588TIP3   OH259254   5.798   6.120   2.795  0.1117  0.0823 -0.1720
12588TIP3    H159255   5.736   6.047   2.788 -0.9782  0.9070  0.5600
12588TIP3    H259256   5.745   6.198   2.778  1.0053  0.7893  0.2277
12589TIP3   OH259257   1.500   3.048  15.649 -0.4757  0.3493  0.4458
12589TIP3    H159258   1.418   3.005  15.673 -1.7216  0.7854 -2.6146
12589TIP3    H259259   1.513   3.115  15.716 -2.2894 -0.1504  1.3489
12590TIP3   OH259260   0.695   3.639   1.851 -0.1549 -0.0186 -0.4508
12590TIP3    H159261   0.612   3.595   1.832 -0.0696  0.1850 -1.3578
12590TIP3    H259262   0.690   3.721   1.803  0.6231 -0.0665 -0.6336
12591TIP3   OH259263   2.926   1.906   0.752 -0.2788 -0.0751  0.1229
12591TIP3    H159264   2.851   1.858   0.787  0.3281 -0.4204  0.9800
12591TIP3    H259265   3.000   1.876   0.804  0.4208  0.4344 -0.5602
12592TIP3   OH259266   2.987   1.131  10.143  0.4114 -0.0959  0.0653
12592TIP3    H159267   3.047   1.175  10.083 -2.6529  1.0858 -2.4526
12592TIP3    H259268   3.006   1.038  10.134  0.5161  0.1089 -2.2980
12593TIP3   OH259269   5.832   5.381   1.437 -0.1156 -0.0969 -0.1184
12593TIP3    H159270   5.897   5.407   1.502 -1.1525  0.5441  0.6980
12593TIP3    H259271   5.867   5.413   1.354  0.9056 -0.3298  0.2105
12594TIP3   OH259272   6.519   5.272  13.465 -0.4852 -0.2738  0.0902
12594TIP3    H159273   6.572   5.294  13.388 -1.4722 -0.5015 -0.6719
12594TIP3    H259274   6.443   5.227  13.429 -1.2821  0.1970  1.1598
12595TIP3   OH259275   2.799   1.268   3.055  0.3225  0.0631 -0.6514
12595TIP3    H159276   2.758   1.181   3.057  0.8654 -0.1922 -0.5346
12595TIP3    H259277   2.726   1.328   3.042 -0.4944 -0.1345  2.3626
12596TIP3   OH259278   2.645   4.749   2.083 -0.1022 -0.1223 -0.2302
12596TIP3    H159279   2.634   4.823   2.144 -1.1648 -0.5242  0.0778
12596TIP3    H259280   2.735   4.720   2.097 -0.4203 -0.4144  1.4078
12597TIP3   OH259281   1.266   3.227   4.301 -0.2737 -0.0665 -0.0508
12597TIP3    H159282   1.197   3.162   4.285  1.4339 -1.6940 -1.2589
12597TIP3    H259283   1.347   3.179   4.287  1.1042  2.4671 -1.4688
12598TIP3   OH259284   0.779   0.484  13.453 -0.1579  0.1519  0.0845
12598TIP3    H159285   0.761   0.433  13.532  1.1694 -1.0897 -0.3678
12598TIP3    H259286   0.708   0.460  13.393 -1.4805  1.5166  1.0457
12599TIP3   OH259287   5.245   5.436  14.930 -0.4086  0.3385  0.6332
12599TIP3    H159288   5.225   5.529  14.923 -0.8125  0.3036  1.2305
12599TIP3    H259289   5.325   5.424  14.877 -0.1318  1.0890  0.8720
12600TIP3   OH259290   3.709   1.902  10.133 -0.5392 -0.0591  0.1207
12600TIP3    H159291   3.801   1.882  10.112 -1.1940 -1.7196 -1.4289
12600TIP3    H259292   3.704   1.891  10.228  1.3212  2.2551  0.5889
12601TIP3   OH259293   1.175   4.072   2.958 -0.5821 -0.0801 -0.3164
12601TIP3    H159294   1.154   4.002   2.897  2.2888 -0.1046 -1.4418
12601TIP3    H259295   1.114   4.060   3.030 -1.3172 -2.6733 -1.2502
12602TIP3   OH259296   3.869   2.167   6.520  0.4075 -0.1156  0.2316
12602TIP3    H159297   3.780   2.134   6.531  0.6296 -0.9366 -0.3610
12602TIP3    H259298   3.908   2.110   6.455  1.0178  0.9348 -0.3487
12603TIP3   OH259299   2.463   6.793   0.905  0.6985 -0.1634 -0.5281
12603TIP3    H159300   2.446   6.707   0.942  0.0014  0.1411 -0.1238
12603TIP3    H259301   2.496   6.775   0.817  1.3131 -0.8604 -0.1663
12604TIP3   OH259302   5.681   4.071  10.652  0.2895  0.3684 -0.4441
12604TIP3    H159303   5.738   4.000  10.681 -0.2874  0.0222 -0.1432
12604TIP3    H259304   5.738   4.148  10.649  0.6907  0.0998  0.1731
12605TIP3   OH259305   6.549   3.467   4.238 -0.1445  0.0688  0.0871
12605TIP3    H159306   6.484   3.400   4.217  0.2747 -0.3083  0.0050
12605TIP3    H259307   6.589   3.488   4.154 -0.9305  1.1118 -0.0526
12606TIP3   OH259308   5.557   6.853   5.394  0.4521  0.8018  0.3980
12606TIP3    H159309   5.587   6.850   5.303  0.1895 -1.5417  0.3136
12606TIP3    H259310   5.542   6.946   5.412  1.8918  1.4586 -1.4749
12607TIP3   OH259311   0.700   0.555  11.521 -0.6085 -0.0318  0.0857
12607TIP3    H159312   0.779   0.598  11.489  0.2916 -3.0271 -2.1400
12607TIP3    H259313   0.628   0.605  11.482  0.3629 -0.1859 -2.0357
12608TIP3   OH259314   1.180   3.997   6.644 -0.0393  0.0641  0.4077
12608TIP3    H159315   1.271   4.018   6.622  0.4407  1.1712  3.0379
12608TIP3    H259316   1.186   3.914   6.692 -0.3058  0.5625  1.3083
12609TIP3   OH259317   4.198   6.179  12.604  0.0681 -0.2517  0.0330
12609TIP3    H159318   4.232   6.261  12.639 -0.5012  0.6185 -1.3902
12609TIP3    H259319   4.274   6.136  12.565 -0.0156  0.6034 -1.0941
12610TIP3   OH259320   1.694   5.220   6.058  0.4901 -0.0872  0.4527
12610TIP3    H159321   1.633   5.146   6.051 -0.1089  0.3073  1.3854
12610TIP3    H259322   1.663   5.270   6.133 -0.9874  2.8357 -1.9018
12611TIP3   OH259323   4.950   0.983  13.754  0.0163  0.5602 -0.1172
12611TIP3    H159324   5.013   1.055  13.755  0.9252 -0.2229  0.3830
12611TIP3    H259325   4.923   0.972  13.845  0.6489 -0.3688 -0.0267
12612TIP3   OH259326   5.284   1.334  13.717  0.2521  0.4151 -0.9298
12612TIP3    H159327   5.334   1.313  13.638 -0.5116 -0.7108 -1.1364
12612TIP3    H259328   5.326   1.412  13.752  1.1245  0.4423 -1.9932
12613TIP3   OH259329   1.597   5.359   4.743  0.2157 -0.0489 -0.3349
12613TIP3    H159330   1.659   5.380   4.673  0.3621 -1.2219 -0.5719
12613TIP3    H259331   1.551   5.281   4.711 -0.5048  0.0715  0.3919
12614TIP3   OH259332   2.979   0.679   0.639 -0.4130 -0.5374 -0.0251
12614TIP3    H159333   2.996   0.623   0.714  0.8130  2.5583  2.2019
12614TIP3    H259334   2.997   0.624   0.563  0.5812 -3.1309  1.9601
12615TIP3   OH259335   2.155   0.275   5.029  0.5582 -0.3830  0.1216
12615TIP3    H159336   2.204   0.296   4.950  1.4136 -0.8520  0.5137
12615TIP3    H259337   2.115   0.358   5.055  3.2589  0.6861  1.2359
12616TIP3   OH259338   3.797   0.368  13.952 -0.0556  0.5365  0.4112
12616TIP3    H159339   3.735   0.309  13.909  0.2813  1.2338 -1.1008
12616TIP3    H259340   3.883   0.333  13.929  0.1318  0.9333  0.4967
12617TIP3   OH259341   5.625   2.634  10.796 -0.3726 -0.3953 -0.0850
12617TIP3    H159342   5.634   2.563  10.733  0.1529 -0.0730 -0.3771
12617TIP3    H259343   5.690   2.699  10.769  0.3148 -0.5437  1.1926
12618TIP3   OH259344   5.912   2.060   4.963 -0.9085 -0.0977  0.3280
12618TIP3    H159345   5.917   2.121   5.036 -2.1799 -0.6441  0.9088
12618TIP3    H259346   5.987   2.082   4.907 -0.3710  0.8422  1.3898
12619TIP3   OH259347   4.478   0.150   4.685  0.0132  0.4527  0.1379
12619TIP3    H159348   4.383   0.140   4.679  0.0919  0.1252 -0.6625
12619TIP3    H259349   4.495   0.164   4.778 -0.6118 -1.5700  0.6032
12620TIP3   OH259350   5.570   3.287  11.809  0.1633 -0.0788  0.3281
12620TIP3    H159351   5.607   3.296  11.721 -0.5842  2.3193  0.1678
12620TIP3    H259352   5.631   3.336  11.865 -2.2359  3.5134  0.1314
12621TIP3   OH259353   0.608   6.414   3.685 -0.2670  0.4318  0.6379
12621TIP3    H159354   0.610   6.424   3.590  0.9651 -2.1294  0.2740
12621TIP3    H259355   0.700   6.398   3.709 -0.3690  2.2290  2.4575
12622TIP3   OH259356   2.720   4.613  12.024 -0.5445 -0.0677  0.5951
12622TIP3    H159357   2.639   4.577  11.989 -0.1691 -0.7906  0.4443
12622TIP3    H259358   2.775   4.536  12.040  0.4431  0.4745 -0.1484
12623TIP3   OH259359   1.438   0.573   1.204  0.1616  0.7024  0.5484
12623TIP3    H159360   1.356   0.558   1.250  0.2030 -0.0536  0.3865
12623TIP3    H259361   1.413   0.616   1.122 -0.0923  0.2490  0.3899
12624TIP3   OH259362   0.477   6.120  11.604  0.3771 -0.1674 -0.6076
12624TIP3    H159363   0.464   6.072  11.522  1.4873  0.5729 -1.2364
12624TIP3    H259364   0.398   6.100  11.655 -0.5219 -0.3437 -1.9923
12625TIP3   OH259365   1.527   3.901  11.764 -0.4689  0.0043  0.2292
12625TIP3    H159366   1.445   3.882  11.718 -0.1464 -0.6421 -0.0855
12625TIP3    H259367   1.523   3.848  11.844 -1.0314  1.1298  0.9828
12626TIP3   OH259368   6.785   0.030   4.057 -0.4488 -0.2898  0.4735
12626TIP3    H159369   6.767  -0.042   4.118  0.8018  0.1224  1.3572
12626TIP3    H259370   6.714   0.024   3.992 -1.0055 -1.6116  1.1580
12627TIP3   OH259371   6.725   5.240  12.534  0.2398 -0.0977  0.6215
12627TIP3    H159372   6.652   5.196  12.490  0.2215 -0.3896  0.9451
12627TIP3    H259373   6.741   5.188  12.612  0.9180 -0.1316  0.4642
12628TIP3   OH259374   3.331   3.054   1.013 -0.0950  0.7888 -0.0096
12628TIP3    H159375   3.403   3.117   1.006  1.2198 -0.7860 -2.1040
12628TIP3    H259376   3.255   3.107   1.036  0.7013  3.3814 -2.6671
12629TIP3   OH259377   3.394   5.333  12.712  0.1356 -0.0888  0.2434
12629TIP3    H159378   3.426   5.415  12.748 -0.1739  0.0049  0.3121
12629TIP3    H259379   3.472   5.280  12.698  0.3893  0.4390 -0.3599
12630TIP3   OH259380   6.031   1.916  14.672  0.3170 -0.3639 -0.2008
12630TIP3    H159381   5.947   1.896  14.631  0.4864  0.1597 -0.8299
12630TIP3    H259382   6.053   1.837  14.722 -0.7388 -0.3539  0.3084
12631TIP3   OH259383   4.369   3.292  14.511 -0.0440  0.3424 -0.1695
12631TIP3    H159384   4.290   3.242  14.490 -1.2765  1.1418  2.1745
12631TIP3    H259385   4.436   3.256  14.452 -2.0513 -0.5220 -2.0961
12632TIP3   OH259386   6.413   5.381  12.556  0.2242 -0.4043 -0.4117
12632TIP3    H159387   6.486   5.410  12.501 -0.0780  0.5748 -0.3139
12632TIP3    H259388   6.366   5.318  12.502  0.9385 -0.7790 -0.6062
12633TIP3   OH259389   0.398   2.820  16.032  0.0600  0.6972  0.4224
12633TIP3    H159390   0.325   2.827  16.095 -0.0817  1.5933  0.1726
12633TIP3    H259391   0.356   2.795  15.950  0.3959 -1.8629  0.9578
12634TIP3   OH259392   1.673   6.093   3.935 -0.3400 -0.2059  0.0784
12634TIP3    H159393   1.642   6.011   3.974 -0.1727  0.0791  0.8225
12634TIP3    H259394   1.638   6.161   3.991  1.9966  0.1200  1.2387
12635TIP3   OH259395   1.917   3.022  11.620 -0.2401  0.3217 -0.0409
12635TIP3    H159396   1.929   3.117  11.619  0.2064  0.2672  0.0194
12635TIP3    H259397   1.822   3.010  11.627 -0.2082  0.7615  1.4413
12636TIP3   OH259398   0.368   6.523  15.081 -1.0459  0.3762 -0.3136
12636TIP3    H159399   0.420   6.462  15.029 -1.2584 -1.8452  1.9323
12636TIP3    H259400   0.416   6.533  15.162 -0.7504  3.7242 -0.7453
12637TIP3   OH259401   5.926   3.556   3.230 -1.0124 -0.4326  0.1413
12637TIP3    H159402   5.934   3.485   3.294  1.0050  0.2210  0.6652
12637TIP3    H259403   5.974   3.524   3.153 -1.2575 -0.1753 -0.1207
12638TIP3   OH259404   1.520   5.815   3.183 -0.2029 -0.3982  0.7496
12638TIP3    H159405   1.560   5.881   3.128 -1.5651 -0.4842 -0.3899
12638TIP3    H259406   1.588   5.747   3.193 -0.2547 -0.8802 -1.6990
12639TIP3   OH259407   2.079   2.000  14.865 -0.4180  0.1256 -0.0545
12639TIP3    H159408   2.098   1.940  14.937 -1.9034 -0.6986 -0.3059
12639TIP3    H259409   2.153   1.990  14.805  1.0729  1.1782  1.5415
12640TIP3   OH259410   2.100   6.069  13.109 -0.8068  0.0215  0.2332
12640TIP3    H159411   2.124   6.099  13.197 -0.9655 -0.6409  0.5081
12640TIP3    H259412   2.105   6.148  13.055 -1.8358  0.6756  1.0570
12641TIP3   OH259413   2.929   4.997   4.359 -0.5556  0.0458  0.1933
12641TIP3    H159414   2.910   5.080   4.403 -1.3915 -0.6176  1.1202
12641TIP3    H259415   2.850   4.979   4.307  0.3451  0.7298 -1.4926
12642TIP3   OH259416   6.843   3.676   4.316  0.1625 -0.2032 -0.4945
12642TIP3    H159417   6.770   3.709   4.263 -0.6878 -0.1399  0.6766
12642TIP3    H259418   6.878   3.602   4.265 -0.7773 -0.2904 -1.0396
12643TIP3   OH259419   1.869   0.551   4.314  0.1874 -0.4908 -0.0112
12643TIP3    H159420   1.837   0.484   4.255 -0.7912  0.0634 -0.1341
12643TIP3    H259421   1.810   0.548   4.389 -0.4969  0.8863 -0.4625
12644TIP3   OH259422   6.760   2.609  15.884  0.2757 -0.4402 -0.1132
12644TIP3    H159423   6.810   2.679  15.843 -0.3638  0.8598  1.2271
12644TIP3    H259424   6.773   2.533  15.827  1.8929  0.4603 -1.0016
12645TIP3   OH259425   1.218   0.500   5.667  0.0014 -0.2057  0.0980
12645TIP3    H159426   1.247   0.562   5.600  2.3522 -1.4434 -0.1374
12645TIP3    H259427   1.281   0.428   5.661 -0.8441 -1.2152  2.4050
12646TIP3   OH259428   2.070   0.689  13.366 -0.0679 -0.1406 -0.3269
12646TIP3    H159429   2.121   0.727  13.437 -0.0542 -2.7500  1.1889
12646TIP3    H259430   2.117   0.609  13.342 -0.7246  0.0438 -2.4976
12647TIP3   OH259431   0.094   4.579   1.000 -0.7985  0.1246  0.1911
12647TIP3    H159432   0.094   4.533   0.917 -0.2212  0.2331  0.1209
12647TIP3    H259433   0.065   4.514   1.064  2.1728 -1.1295  0.4750
12648TIP3   OH259434   1.421   4.639  12.957  0.2935  0.4832 -0.6153
12648TIP3    H159435   1.377   4.724  12.961 -2.3524 -0.7840 -0.8135
12648TIP3    H259436   1.478   4.646  12.880 -0.6394  1.7501 -1.2306
12649TIP3   OH259437   2.347   0.115   3.562  0.2501 -0.0368  0.5629
12649TIP3    H159438   2.330   0.128   3.469 -0.4891 -0.6323  0.6044
12649TIP3    H259439   2.277   0.164   3.606  1.5027  1.5771  0.8615
12650TIP3   OH259440   3.139   5.595  12.659  0.4112  0.1187  0.4339
12650TIP3    H159441   3.078   5.601  12.732  1.5258 -2.5768  1.6861
12650TIP3    H259442   3.182   5.511  12.670  1.3777  0.0707 -2.7802
12651TIP3   OH259443   6.255   5.367   3.876  0.0507  0.4642  0.2602
12651TIP3    H159444   6.174   5.317   3.890  0.1849  0.1953  0.0786
12651TIP3    H259445   6.259   5.380   3.781 -1.3565  3.1016  0.4679
12652TIP3   OH259446   6.817   0.245   5.755 -0.2083 -0.0619  0.3672
12652TIP3    H159447   6.833   0.281   5.843  0.1948 -1.6791  1.0055
12652TIP3    H259448   6.817   0.321   5.697 -1.3315  1.1456  1.8682
12653TIP3   OH259449   5.609   1.742   0.318 -0.2060  0.4211 -0.6822
12653TIP3    H159450   5.628   1.748   0.224 -1.0056  1.6611 -0.7947
12653TIP3    H259451   5.514   1.751   0.324 -0.1688  0.3229  0.2416
12654TIP3   OH259452   5.411   1.761   1.037 -0.0890  0.0917 -0.2845
12654TIP3    H159453   5.378   1.673   1.016 -1.8215  0.3357  1.1879
12654TIP3    H259454   5.504   1.757   1.017 -0.3054 -1.7996 -1.1197
12655TIP3   OH259455   0.432   5.964   0.026 -0.6305  0.2692  0.5492
12655TIP3    H159456   0.475   6.029   0.082 -0.6757  1.6188 -0.9227
12655TIP3    H259457   0.381   5.911   0.087  0.4996  0.7136  1.9548
12656TIP3   OH259458   3.657   4.832   5.161 -0.3196 -0.6129  0.8580
12656TIP3    H159459   3.589   4.873   5.108 -2.7335 -1.2036  3.3054
12656TIP3    H259460   3.689   4.903   5.217  0.7835 -0.4677  0.0898
12657TIP3   OH259461   6.444   0.030  11.936  0.5636 -0.2512  0.3136
12657TIP3    H159462   6.393   0.098  11.981 -2.6238 -1.3801 -1.3098
12657TIP3    H259463   6.457   0.064  11.848  0.9888 -0.7968  0.1631
12658TIP3   OH259464   1.812   1.579   3.635  0.2864  0.1752 -0.2053
12658TIP3    H159465   1.724   1.616   3.638 -0.9054 -2.4648  0.4246
12658TIP3    H259466   1.839   1.575   3.727  0.3742 -0.4929 -0.2576
12659TIP3   OH259467   2.505   4.110   4.285 -0.1938 -0.0806 -0.3568
12659TIP3    H159468   2.567   4.037   4.274  0.5801  0.1901  1.6554
12659TIP3    H259469   2.466   4.094   4.371 -0.7348  1.3495 -0.3214
12660TIP3   OH259470   2.061   3.417  15.228  0.0098  0.7269  0.2561
12660TIP3    H159471   2.093   3.330  15.204  0.3643  0.7935  0.4913
12660TIP3    H259472   2.030   3.408  15.318  1.2733  1.1576  0.7559
12661TIP3   OH259473   1.463   2.098  13.323 -0.4548 -0.0189 -0.1740
12661TIP3    H159474   1.428   2.092  13.411 -1.4393  0.9933 -0.4772
12661TIP3    H259475   1.467   2.007  13.293  4.5143 -1.0701  2.5609
12662TIP3   OH259476   2.510   5.171   5.668 -0.8190 -0.1196 -0.5298
12662TIP3    H159477   2.437   5.232   5.660  1.3121  2.3844 -2.9569
12662TIP3    H259478   2.571   5.214   5.728 -0.4597 -1.2190 -0.0810
12663TIP3   OH259479   4.093   2.808   1.721 -0.4960 -0.1567 -0.5640
12663TIP3    H159480   4.125   2.893   1.749 -0.6939  0.1575 -1.2745
12663TIP3    H259481   4.026   2.827   1.655 -0.7720 -0.8523 -0.5032
12664TIP3   OH259482   3.119   6.556   4.449 -0.4307 -0.3455 -0.3443
12664TIP3    H159483   3.207   6.539   4.483 -0.9185  1.0807  1.9121
12664TIP3    H259484   3.132   6.579   4.357  1.4813 -0.6748 -0.1931
12665TIP3   OH259485   5.238   3.407  14.578 -0.4525  0.2516  0.0746
12665TIP3    H159486   5.200   3.488  14.612  0.3464  0.4037  0.6487
12665TIP3    H259487   5.224   3.343  14.647  0.4099  0.3393  0.3448
12666TIP3   OH259488   2.198   6.871   1.426 -0.8715 -0.1783  0.0295
12666TIP3    H159489   2.190   6.886   1.332  0.8896 -2.5194 -0.5829
12666TIP3    H259490   2.266   6.933   1.454 -0.2173 -0.5916 -0.5984
12667TIP3   OH259491   6.586   5.534   6.382  0.0527 -0.0884  0.4778
12667TIP3    H159492   6.655   5.488   6.333 -1.2128 -0.9845 -0.5347
12667TIP3    H259493   6.514   5.471   6.387 -1.0916  1.1818  0.6020
12668TIP3   OH259494   3.461   5.610   3.819  0.4396 -0.1656 -0.3437
12668TIP3    H159495   3.389   5.643   3.873  1.2611  1.1035  0.0248
12668TIP3    H259496   3.419   5.549   3.758 -1.2901  1.9748 -1.4384
12669TIP3   OH259497   1.496   0.240  15.957 -0.0710  0.1470 -0.7783
12669TIP3    H159498   1.531   0.166  16.006  0.2913 -0.4044 -1.8416
12669TIP3    H259499   1.404   0.217  15.941 -0.9508  1.4913  1.8132
12670TIP3   OH259500   3.069   5.098  14.301 -0.7175 -0.6306 -0.3717
12670TIP3    H159501   2.980   5.066  14.316 -0.3543 -1.2193  0.6097
12670TIP3    H259502   3.115   5.079  14.383  0.2719 -0.2028 -0.8205
12671TIP3   OH259503   0.443   1.587   1.296  0.1643  0.4433  0.3809
12671TIP3    H159504   0.492   1.578   1.378 -0.3823  0.4615  0.7116
12671TIP3    H259505   0.474   1.669   1.259  1.5409 -0.2996 -0.2017
12672TIP3   OH259506   4.885   1.863  12.896  0.4362  0.5247  0.1545
12672TIP3    H159507   4.973   1.830  12.914 -0.3019 -1.1074  1.0525
12672TIP3    H259508   4.838   1.852  12.978 -1.4153 -1.4835 -1.0625
12673TIP3   OH259509   0.799   1.477  13.818 -0.3245  0.5952  0.0265
12673TIP3    H159510   0.775   1.405  13.876 -0.5455  1.1278  0.5986
12673TIP3    H259511   0.894   1.488  13.830 -0.2614  0.3016 -0.1824
12674TIP3   OH259512   0.071   4.002   3.498  0.0850 -0.2406  0.0671
12674TIP3    H159513   0.081   3.948   3.420  0.8760  0.5817 -0.4064
12674TIP3    H259514   0.076   4.092   3.467  1.0805  0.1034  1.1384
12675TIP3   OH259515   1.049   4.730  12.901  0.5679 -0.4305 -0.0274
12675TIP3    H159516   1.078   4.641  12.926  2.4470  0.3478  0.8010
12675TIP3    H259517   1.103   4.752  12.825  1.5541  0.6886  0.9419
12676TIP3   OH259518   3.802   6.336   6.808  0.2083 -0.2293 -0.2286
12676TIP3    H159519   3.846   6.334   6.722  3.4597  0.4706  1.2490
12676TIP3    H259520   3.865   6.380   6.865 -1.7828 -0.7887  2.5837
12677TIP3   OH259521   2.791   0.509  14.028  0.2628  0.5294  0.5209
12677TIP3    H159522   2.820   0.593  13.991 -1.0356  1.6875  1.9791
12677TIP3    H259523   2.747   0.533  14.109  0.6528 -1.6888  1.4442
12678TIP3   OH259524   0.522   5.134   2.897 -0.3026  0.0616 -0.7031
12678TIP3    H159525   0.490   5.224   2.901 -0.0373  0.1207  1.4193
12678TIP3    H259526   0.617   5.143   2.905 -0.2798 -0.4082 -0.4485
12679TIP3   OH259527   0.435   0.552  15.316 -0.3652 -0.0898 -0.4275
12679TIP3    H159528   0.412   0.572  15.406 -2.4504 -2.1081 -0.3990
12679TIP3    H259529   0.404   0.627  15.265  1.4066  1.3611  0.4996
12680TIP3   OH259530   3.798   2.175  13.991  0.3805  0.4650 -0.3822
12680TIP3    H159531   3.780   2.152  13.899  0.0897 -1.1142  0.0412
12680TIP3    H259532   3.775   2.096  14.040 -3.8478  2.6274  1.6047
12681TIP3   OH259533   1.501   6.735   6.155 -0.1351 -0.2106  0.3685
12681TIP3    H159534   1.471   6.668   6.094 -0.4273  0.5830 -0.3782
12681TIP3    H259535   1.421   6.776   6.189  0.0369  1.0319 -0.6431
12682TIP3   OH259536   1.444   2.797   2.977  0.0865  0.9087 -0.4593
12682TIP3    H159537   1.521   2.831   2.931  1.3740 -0.2408  0.7682
12682TIP3    H259538   1.400   2.742   2.912  2.5096 -1.6356 -0.1025
12683TIP3   OH259539   5.461   6.246   5.156 -0.5064  0.3415 -0.0333
12683TIP3    H159540   5.540   6.273   5.108  0.4236 -2.1556 -0.0637
12683TIP3    H259541   5.444   6.157   5.126 -0.7708 -0.8076  3.1252
12684TIP3   OH259542   6.500   5.919   5.558  0.3205  0.5161 -0.0212
12684TIP3    H159543   6.588   5.898   5.526 -0.6709 -1.6863 -1.5963
12684TIP3    H259544   6.479   5.848   5.618 -0.6306  0.6451 -0.1866
12685TIP3   OH259545   6.656   1.997  11.355 -0.5957 -0.0762 -0.9140
12685TIP3    H159546   6.630   1.910  11.387 -0.2158  0.4093  0.8325
12685TIP3    H259547   6.709   2.033  11.426  2.1891  0.2474 -3.0060
12686TIP3   OH259548   3.845   6.819  11.713 -0.3340 -0.2820  0.3455
12686TIP3    H159549   3.798   6.886  11.663 -0.2937  0.0624  0.7627
12686TIP3    H259550   3.847   6.853  11.802  0.7375 -0.2679  0.3264
12687TIP3   OH259551   5.465   0.538  13.702  0.0412 -0.2277  0.0237
12687TIP3    H159552   5.531   0.477  13.669  0.8989  0.8376 -0.3154
12687TIP3    H259553   5.403   0.484  13.751 -0.5796 -1.7029 -2.2684
12688TIP3   OH259554   3.183   0.340  16.572  0.6558 -0.3395 -0.0558
12688TIP3    H159555   3.153   0.340  16.663 -0.0052  1.6047 -0.2276
12688TIP3    H259556   3.149   0.257  16.536 -0.9186 -0.1686  0.9021
12689TIP3   OH259557   3.907   2.342  13.705 -0.6971  0.5886 -0.0306
12689TIP3    H159558   3.864   2.373  13.785 -0.2827  1.2023 -0.0375
12689TIP3    H259559   3.866   2.258  13.686 -2.0583  1.2581 -0.1666
12690TIP3   OH259560   2.316   3.660  15.851  0.1619  0.1520 -0.0700
12690TIP3    H159561   2.305   3.739  15.799 -1.1860  0.0543  0.0305
12690TIP3    H259562   2.241   3.605  15.827  0.2785 -0.4761  0.9418
12691TIP3   OH259563   4.755   6.784   0.759 -0.3632 -0.0861  0.3801
12691TIP3    H159564   4.792   6.698   0.778 -1.7580 -1.1397 -1.3741
12691TIP3    H259565   4.828   6.832   0.719  0.1312 -0.8269  0.3701
12692TIP3   OH259566   4.337   4.351   2.294 -0.2533 -0.4544  0.0758
12692TIP3    H159567   4.318   4.442   2.269 -2.2679 -0.6360  0.7685
12692TIP3    H259568   4.413   4.327   2.240  0.9444  1.9159  0.5529
12693TIP3   OH259569   3.531   6.871  15.661 -0.2438 -0.1949 -0.2970
12693TIP3    H159570   3.475   6.875  15.738  0.8863  0.7336  0.5215
12693TIP3    H259571   3.551   6.963  15.642  1.7413 -0.5250  0.0220
12694TIP3   OH259572   0.655   1.289  13.218 -0.4316  0.5374 -0.1242
12694TIP3    H159573   0.682   1.381  13.221  0.2901  0.3342 -0.1216
12694TIP3    H259574   0.671   1.263  13.127  2.7779 -0.5493  0.6411
12695TIP3   OH259575   3.516   3.017  14.620  0.2853 -0.1717 -0.0203
12695TIP3    H159576   3.568   3.076  14.673  1.1384 -0.2425 -0.7583
12695TIP3    H259577   3.433   3.064  14.606  1.2733  1.2640 -1.3398
12696TIP3   OH259578   4.986   0.458   0.938 -0.3556 -0.1543  0.4904
12696TIP3    H159579   5.080   0.447   0.924 -0.2187 -1.5263  2.1808
12696TIP3    H259580   4.948   0.375   0.908 -0.8929 -0.0235  0.8055
12697TIP3   OH259581   5.748   0.712  12.563 -0.3304 -0.4281  0.8998
12697TIP3    H159582   5.653   0.707  12.552 -0.1860 -0.8192 -0.3940
12697TIP3    H259583   5.761   0.736  12.654 -1.6423 -1.7519  1.4727
12698TIP3   OH259584   4.864   6.711  13.907 -0.2003 -0.0722 -1.0714
12698TIP3    H159585   4.806   6.687  13.979  0.8786 -0.5165 -0.3403
12698TIP3    H259586   4.843   6.649  13.837 -0.4295 -0.3912 -0.7217
12699TIP3   OH259587   3.868   1.775   2.880  0.2962  0.0202 -0.2124
12699TIP3    H159588   3.923   1.822   2.817  1.7256 -1.8464 -0.4483
12699TIP3    H259589   3.779   1.801   2.857  0.8333  0.2193 -2.3280
12700TIP3   OH259590   6.746   0.707   2.664 -0.2560  0.3550 -0.1811
12700TIP3    H159591   6.681   0.675   2.601 -0.9456  0.2186  0.5743
12700TIP3    H259592   6.830   0.694   2.621 -0.6615 -0.5340 -0.7321
12701TIP3   OH259593   3.092   4.128   4.554  0.7250 -0.5482  0.0394
12701TIP3    H159594   3.009   4.081   4.560  0.1680 -0.1426 -3.0511
12701TIP3    H259595   3.070   4.219   4.575  0.2575 -0.3603 -1.1966
12702TIP3   OH259596   5.617   2.461   2.831  0.1230 -0.8582 -0.0416
12702TIP3    H159597   5.557   2.439   2.903  0.6647 -2.1618  0.0438
12702TIP3    H259598   5.572   2.429   2.753 -1.6117  2.7267 -0.7024
12703TIP3   OH259599   3.325   5.933   5.024  0.4753  0.2079  0.1079
12703TIP3    H159600   3.246   5.988   5.026  0.8480  0.8176 -1.1056
12703TIP3    H259601   3.392   5.990   4.987  1.2446 -0.6260  0.1994
12704TIP3   OH259602   4.430   3.163   2.214 -0.4681  0.0669  0.1774
12704TIP3    H159603   4.404   3.116   2.135 -0.0511  1.7241 -1.0045
12704TIP3    H259604   4.520   3.190   2.197 -0.7282  1.3782  0.7486
12705TIP3   OH259605   0.224   0.342   4.306 -0.3352 -0.3806 -0.2843
12705TIP3    H159606   0.154   0.402   4.332 -1.0033  0.0563 -2.8302
12705TIP3    H259607   0.178   0.267   4.268  0.5063 -2.3295  2.2101
12706TIP3   OH259608   1.375   0.671   3.673 -0.2105 -0.2685 -0.4530
12706TIP3    H159609   1.424   0.681   3.754  0.2598 -2.1202 -0.4468
12706TIP3    H259610   1.437   0.633   3.612 -0.4199  1.5399 -1.8790
12707TIP3   OH259611   3.242   2.017  10.629  0.0365  0.1498  0.0709
12707TIP3    H159612   3.276   2.099  10.665  0.3387  0.4005 -0.7645
12707TIP3    H259613   3.299   1.998  10.555  0.3486 -1.1460  0.6287
12708TIP3   OH259614   6.333   5.270  12.985 -0.5969 -0.0824 -0.1979
12708TIP3    H159615   6.345   5.257  13.079  0.0845  1.2562 -0.0676
12708TIP3    H259616   6.350   5.185  12.946  1.0926 -0.2126  0.7368
12709TIP3   OH259617   2.660   4.325   0.492 -0.5321  0.1726  0.4758
12709TIP3    H159618   2.727   4.272   0.536  1.8041  3.4534  1.2538
12709TIP3    H259619   2.584   4.321   0.551  1.3243  1.6302  3.1966
12710TIP3   OH259620   3.900   4.970   1.565  0.0865  0.1702 -0.3138
12710TIP3    H159621   3.934   5.022   1.492  0.2753  0.8616  0.2584
12710TIP3    H259622   3.807   4.992   1.570 -0.7438 -2.3346 -2.4027
12711TIP3   OH259623   2.385   6.819   1.689  0.3640  0.1661 -0.2325
12711TIP3    H159624   2.366   6.726   1.677  0.4066  0.2922 -1.3643
12711TIP3    H259625   2.424   6.824   1.776 -0.6568 -0.7164  0.3008
12712TIP3   OH259626   6.814   4.674  13.859  0.0928 -0.4975  0.0987
12712TIP3    H159627   6.816   4.723  13.777 -1.0522  1.7151  1.3137
12712TIP3    H259628   6.722   4.678  13.886  0.8645  1.0111  2.7297
12713TIP3   OH259629   1.952   6.620  15.237 -0.2333 -0.2914  0.2851
12713TIP3    H159630   1.884   6.685  15.256 -1.0769 -0.0661 -2.9118
12713TIP3    H259631   1.906   6.536  15.243 -1.9817 -0.0534 -4.9092
12714TIP3   OH259632   1.044   3.956   2.236  0.3845 -0.0151 -0.2102
12714TIP3    H159633   1.085   4.002   2.309  0.3687 -0.8958  0.3741
12714TIP3    H259634   0.960   3.927   2.270 -0.6804  1.5861 -1.3303
12715TIP3   OH259635   2.694   0.773  11.774 -0.3070  0.1060 -0.6833
12715TIP3    H159636   2.659   0.861  11.789  2.9389  1.2002  1.8618
12715TIP3    H259637   2.662   0.721  11.848 -2.2014 -0.9346 -2.1704
12716TIP3   OH259638   6.872   6.611  15.643 -0.5719  0.3950 -0.1801
12716TIP3    H159639   6.919   6.558  15.579 -0.9474 -0.1746  0.0062
12716TIP3    H259640   6.870   6.699  15.605 -2.0484 -0.2147 -1.6393
12717TIP3   OH259641   3.150   6.480  13.277 -0.0803 -0.4414  0.0412
12717TIP3    H159642   3.138   6.564  13.321 -0.5501 -0.4792 -0.0143
12717TIP3    H259643   3.076   6.426  13.306  1.4113 -1.6282  1.9011
12718TIP3   OH259644   3.052   5.703   2.394 -0.4607  0.1912 -0.2867
12718TIP3    H159645   3.134   5.672   2.358  0.6976  1.2584  1.2559
12718TIP3    H259646   3.001   5.624   2.412  1.3144 -0.6933  1.1409
12719TIP3   OH259647   2.285   3.972  12.261 -0.2731  0.2348 -0.4365
12719TIP3    H159648   2.244   4.040  12.314  0.6239  0.1185  0.4429
12719TIP3    H259649   2.280   3.893  12.315 -0.8307 -0.2847 -1.2234
12720TIP3   OH259650   6.446   3.190  11.823 -0.2441 -0.3871 -0.2396
12720TIP3    H159651   6.436   3.265  11.764  2.6436 -0.3237 -0.8051
12720TIP3    H259652   6.486   3.122  11.768  0.4923 -1.0781  1.1021
12721TIP3   OH259653   5.514   0.711  10.585  0.2078 -0.4699 -0.2058
12721TIP3    H159654   5.557   0.792  10.614 -2.2591  0.2926  1.6423
12721TIP3    H259655   5.424   0.737  10.566  0.3246 -2.0553 -3.6569
12722TIP3   OH259656   3.593   1.413  15.312 -0.1464  0.3285 -0.0826
12722TIP3    H159657   3.619   1.420  15.221 -2.8798 -0.2518 -1.0051
12722TIP3    H259658   3.499   1.431  15.312 -0.8447 -2.4772  2.1765
12723TIP3   OH259659   1.446   4.130  14.797 -0.5265  0.2011  0.2958
12723TIP3    H159660   1.452   4.173  14.712  1.8225  0.7660  0.6889
12723TIP3    H259661   1.396   4.050  14.780 -0.7410  0.6712 -1.4351
12724TIP3   OH259662   6.885   0.021  14.534  0.2995  0.0130 -0.5940
12724TIP3    H159663   6.862  -0.041  14.603 -0.9153  1.0192 -0.0441
12724TIP3    H259664   6.951   0.078  14.574  0.4248 -0.0995 -0.6413
12725TIP3   OH259665   0.823   2.551   5.232 -0.0544  0.0508  0.0329
12725TIP3    H159666   0.900   2.537   5.177 -0.2754 -0.1262 -0.2352
12725TIP3    H259667   0.801   2.463   5.265 -1.0768 -0.1688 -1.1596
12726TIP3   OH259668   4.044   2.110   2.521  0.1519  0.2608 -0.3026
12726TIP3    H159669   4.111   2.150   2.465  0.6943 -0.3674 -0.1190
12726TIP3    H259670   4.077   2.121   2.610 -0.8342  1.4892 -0.0567
12727TIP3   OH259671   0.409   4.301   0.424  0.2138  0.3286  0.3117
12727TIP3    H159672   0.467   4.374   0.403  1.6516 -1.2924 -1.7715
12727TIP3    H259673   0.324   4.342   0.442  1.3869  2.5962  1.0818
12728TIP3   OH259674   6.280   4.224  12.168  0.6164 -0.0500  0.2198
12728TIP3    H159675   6.269   4.198  12.259  1.1763 -1.4215 -0.0840
12728TIP3    H259676   6.372   4.206  12.149  0.2991 -0.6104 -0.8647
12729TIP3   OH259677   5.232   1.880  13.309  0.1946  0.4538  0.2823
12729TIP3    H159678   5.203   1.949  13.250 -0.4208  0.2421  0.3386
12729TIP3    H259679   5.203   1.798  13.268  0.3542  0.2620  0.5417
12730TIP3   OH259680   0.019   6.519  16.560  0.1803 -0.2466 -0.0758
12730TIP3    H159681   0.090   6.572  16.523  0.1603 -0.8527 -1.0293
12730TIP3    H259682  -0.057   6.541  16.505 -0.3086  0.1899  0.7619
12731TIP3   OH259683   0.116   5.000   5.380  0.4112 -0.2138 -0.0637
12731TIP3    H159684   0.152   4.967   5.463 -0.2752 -0.2367  0.2347
12731TIP3    H259685   0.181   4.976   5.314  0.3425 -1.3817  0.2761
12732TIP3   OH259686   0.941   4.183  14.556  0.5280 -0.6498 -0.4828
12732TIP3    H159687   1.034   4.172  14.574  0.8043  0.3910 -1.1813
12732TIP3    H259688   0.919   4.269  14.592 -0.0463 -0.6831 -0.7362
12733TIP3   OH259689   4.815   3.892  16.164  0.5350 -0.2094 -0.1108
12733TIP3    H159690   4.879   3.954  16.129  0.2149  0.7548  0.9383
12733TIP3    H259691   4.730   3.926  16.135  0.4422 -1.0348 -0.8290
12734TIP3   OH259692   0.852   5.513  16.949 -0.1918 -0.2963  0.0895
12734TIP3    H159693   0.921   5.567  16.910  0.2036  0.2828  1.5273
12734TIP3    H259694   0.843   5.547  17.038 -1.1199 -1.5185  0.4810
12735TIP3   OH259695   1.680   5.887   6.621 -0.0203 -0.2860  0.1915
12735TIP3    H159696   1.606   5.828   6.606 -0.6268  0.6588 -0.7593
12735TIP3    H259697   1.640   5.974   6.626  1.0466  0.2734 -0.6114
12736TIP3   OH259698   6.441   4.240  16.413 -0.8792  0.3984  0.6386
12736TIP3    H159699   6.516   4.184  16.431 -0.8910  0.8994  2.4399
12736TIP3    H259700   6.404   4.259  16.500 -2.1838  1.3891 -0.0972
12737TIP3   OH259701   1.019   0.616  12.147  0.1468  0.3228 -0.4928
12737TIP3    H159702   0.938   0.570  12.168  0.0399  1.1108  0.9250
12737TIP3    H259703   0.991   0.694  12.099  0.2749 -0.6248 -2.1946
12738TIP3   OH259704   3.504   3.786  12.006  0.4385  0.7087 -0.7087
12738TIP3    H159705   3.469   3.713  11.955  1.5763 -0.4171  0.0605
12738TIP3    H259706   3.427   3.832  12.038 -0.2996  0.0496 -1.4768
12739TIP3   OH259707   0.945   0.241  10.817 -1.0360 -0.4611  0.3334
12739TIP3    H159708   1.021   0.219  10.763 -0.4672 -1.6271  1.5529
12739TIP3    H259709   0.941   0.337  10.815  0.0783 -0.4124 -0.2674
12740TIP3   OH259710   0.062   4.029  12.821  0.1190 -0.3034  0.3964
12740TIP3    H159711   0.153   4.024  12.792 -0.0987 -1.9476 -0.0849
12740TIP3    H259712   0.019   3.955  12.778 -1.0669 -0.5487  1.9315
12741TIP3   OH259713   3.510   3.035   4.668 -0.3633  0.0885  0.4874
12741TIP3    H159714   3.485   2.998   4.583 -2.2109 -1.6674  1.6995
12741TIP3    H259715   3.432   3.023   4.722  1.4742 -0.8979  3.0815
12742TIP3   OH259716   1.201   1.730   4.341 -0.2392  0.5338  0.0694
12742TIP3    H159717   1.189   1.636   4.354 -0.1536  0.5773  0.4487
12742TIP3    H259718   1.134   1.754   4.276 -0.3711  0.2454  0.0988
12743TIP3   OH259719   2.325   2.139  15.881 -0.1960 -0.5785 -0.3864
12743TIP3    H159720   2.327   2.143  15.976 -0.4665 -0.6817 -0.3754
12743TIP3    H259721   2.411   2.171  15.853 -1.1537  2.5001 -0.2270
12744TIP3   OH259722   2.692   5.825   4.586 -0.5195  0.2551  0.1423
12744TIP3    H159723   2.618   5.788   4.537  0.9917  1.0442 -2.9469
12744TIP3    H259724   2.756   5.754   4.590  0.1932  0.8164 -0.9302
12745TIP3   OH259725   2.679   6.851   5.794  0.5080 -0.3118 -0.3193
12745TIP3    H159726   2.596   6.826   5.834  0.2264  0.9109 -0.1045
12745TIP3    H259727   2.655   6.896   5.714  1.0674 -4.0052 -2.8384
12746TIP3   OH259728   0.164   3.873   2.184 -0.3275  0.9013 -0.2348
12746TIP3    H159729   0.086   3.863   2.239  0.4803  1.7467  1.1327
12746TIP3    H259730   0.235   3.892   2.246  1.1584 -0.6823 -1.3652
12747TIP3   OH259731   4.069   3.316  15.544  0.3526  0.3437  0.0177
12747TIP3    H159732   4.079   3.231  15.502  1.9373 -0.2138  1.4182
12747TIP3    H259733   4.146   3.366  15.516 -0.8021  1.5398 -1.1826
12748TIP3   OH259734   0.835   0.770   5.305  0.1422 -0.4881  0.2586
12748TIP3    H159735   0.784   0.834   5.255 -0.4198 -0.2469  1.1195
12748TIP3    H259736   0.898   0.823   5.354  1.8752 -0.8385 -1.4726
12749TIP3   OH259737   5.721   2.951  10.547  0.0845 -0.3725 -0.1211
12749TIP3    H159738   5.718   3.045  10.531 -2.0954 -0.3311  0.2601
12749TIP3    H259739   5.738   2.943  10.641 -0.7032 -0.3170  0.0336
12750TIP3   OH259740   4.628   4.698   2.838 -0.9014 -0.1205  0.1113
12750TIP3    H159741   4.683   4.759   2.887  1.2653 -1.1121 -0.9296
12750TIP3    H259742   4.564   4.667   2.902  0.5028  0.2176  1.7454
12751TIP3   OH259743   5.027   3.458  16.222  0.1219  0.1137  0.4211
12751TIP3    H159744   5.008   3.535  16.169 -0.0296  0.5528  1.1054
12751TIP3    H259745   5.031   3.386  16.159 -0.3914  0.5696 -0.1456
12752TIP3   OH259746   6.131   1.149  12.442 -0.5032 -0.2725  0.8068
12752TIP3    H159747   6.198   1.140  12.510  0.7397 -2.4028 -0.5485
12752TIP3    H259748   6.049   1.126  12.485 -0.5363  2.6113  2.5724
12753TIP3   OH259749   6.425   0.836   2.228 -0.7932 -0.0387  0.3619
12753TIP3    H159750   6.478   0.916   2.233 -2.9214  1.4570  0.2958
12753TIP3    H259751   6.335   0.866   2.236 -1.6785 -2.4857  0.5598
12754TIP3   OH259752   3.744   3.363  15.579 -0.3067  0.7655  0.2029
12754TIP3    H159753   3.713   3.435  15.524  0.7106  2.9080  2.3037
12754TIP3    H259754   3.814   3.322  15.527 -0.7248  1.4351 -0.9203
12755TIP3   OH259755   3.485   1.476   0.537 -0.4454 -0.2001 -0.2776
12755TIP3    H159756   3.497   1.382   0.554 -2.5533 -0.3865  0.4832
12755TIP3    H259757   3.478   1.483   0.442  0.5561 -0.6799 -0.3983
12756TIP3   OH259758   5.256   0.818   1.502  0.5585  0.1728 -0.4349
12756TIP3    H159759   5.242   0.804   1.408 -1.3527  0.1184 -0.1786
12756TIP3    H259760   5.169   0.810   1.541  1.3669 -0.2064  1.4077
12757TIP3   OH259761   3.227   3.324  10.640 -0.0207  0.1398 -0.1216
12757TIP3    H159762   3.313   3.324  10.597  0.7789  0.8094  1.4191
12757TIP3    H259763   3.211   3.415  10.663 -0.5498 -0.1684  0.7804
12758TIP3   OH259764   2.989   6.832  16.094  0.1281  0.5163  0.6327
12758TIP3    H159765   2.988   6.927  16.109 -2.0292  0.3585  1.8287
12758TIP3    H259766   2.926   6.797  16.157  1.6098 -1.8567  0.9010
12759TIP3   OH259767   2.815   1.195  15.854  0.2869  0.6175 -0.2696
12759TIP3    H159768   2.851   1.115  15.814 -1.2121 -1.2908  1.8954
12759TIP3    H259769   2.774   1.242  15.781  1.0655 -0.6731 -1.5942
12760TIP3   OH259770   4.412   1.762  15.598 -0.0211  0.7341  0.4243
12760TIP3    H159771   4.504   1.763  15.570 -0.3419  1.2891 -0.6375
12760TIP3    H259772   4.417   1.758  15.694  1.0974 -0.1590  0.3479
12761TIP3   OH259773   4.544   2.047  11.433 -0.5683  0.3209 -0.0764
12761TIP3    H159774   4.548   2.079  11.523 -1.6434 -0.6544  0.3386
12761TIP3    H259775   4.456   2.068  11.403  0.5257  2.8993 -1.8225
12762TIP3   OH259776   3.355   0.789  12.122 -0.2386 -0.3955 -0.1819
12762TIP3    H159777   3.432   0.846  12.122 -1.3825  1.2760 -1.2677
12762TIP3    H259778   3.338   0.771  12.215  1.2162 -0.4950  0.0843
12763TIP3   OH259779   6.637   5.568  14.706 -0.2731  0.0314 -0.0123
12763TIP3    H159780   6.637   5.545  14.799  1.6414  1.4256  0.3875
12763TIP3    H259781   6.642   5.483  14.661  1.4950 -0.5774  1.2425
12764TIP3   OH259782   1.673   6.788   1.364 -0.1324 -0.5181 -0.8558
12764TIP3    H159783   1.720   6.824   1.439 -0.8561 -1.0651 -0.1323
12764TIP3    H259784   1.638   6.704   1.394 -3.9173  1.0198 -0.3993
12765TIP3   OH259785   4.804   4.875  12.483  0.1453 -0.2794 -0.4227
12765TIP3    H159786   4.727   4.884  12.428 -1.2633  0.8229  1.6280
12765TIP3    H259787   4.770   4.871  12.572  2.5270  3.3458  0.8509
12766TIP3   OH259788   6.042   5.822  12.370 -0.2888  0.5316  0.4674
12766TIP3    H159789   5.961   5.831  12.320 -0.7609 -0.1031  1.0813
12766TIP3    H259790   6.112   5.834  12.306 -0.8726 -0.0611 -0.3056
12767TIP3   OH259791   4.794   0.454  16.778  0.0313 -0.2254  0.3836
12767TIP3    H159792   4.872   0.410  16.812  1.3048  1.7683  0.1842
12767TIP3    H259793   4.822   0.544  16.761 -1.7042 -0.0112 -1.8700
12768TIP3   OH259794   5.915   1.524   0.706  0.0008 -0.0587 -0.7452
12768TIP3    H159795   5.907   1.512   0.611 -0.3255 -2.8035 -0.4503
12768TIP3    H259796   5.832   1.491   0.741  0.2696  0.5661  0.5383
12769TIP3   OH259797   5.468   6.248  10.306  0.1616  0.1503 -0.0569
12769TIP3    H159798   5.535   6.204  10.254 -1.4801  0.0704 -2.2787
12769TIP3    H259799   5.448   6.327  10.256 -3.3529 -1.2245 -1.1620
12770TIP3   OH259800   6.005   4.262  11.480 -0.1471  0.4582 -0.3738
12770TIP3    H159801   5.966   4.262  11.568 -0.8280 -0.9102 -0.6387
12770TIP3    H259802   5.941   4.307  11.425 -1.4759 -1.7633 -0.8030
12771TIP3   OH259803   1.239   0.157  12.927 -0.3905  0.2131  0.0047
12771TIP3    H159804   1.250   0.195  12.840  0.7598 -1.2609 -0.5493
12771TIP3    H259805   1.285   0.073  12.922  0.0121  0.2456  2.1479
12772TIP3   OH259806   2.959   3.635  13.680 -0.1506  0.3820  0.2125
12772TIP3    H159807   2.875   3.598  13.708 -0.4325  0.4748 -0.4863
12772TIP3    H259808   2.995   3.569  13.621  0.2406  0.3751  0.4561
12773TIP3   OH259809   5.237   4.145   6.359  0.6677 -0.9290  0.1367
12773TIP3    H159810   5.153   4.132   6.403  1.1819 -0.8487  1.1622
12773TIP3    H259811   5.240   4.077   6.292 -0.2834 -0.8338 -0.0122
12774TIP3   OH259812   6.753   1.532   1.212  0.0704  0.2685 -0.2064
12774TIP3    H159813   6.734   1.487   1.295  2.3637 -0.0952  0.1754
12774TIP3    H259814   6.819   1.477   1.170 -2.2416 -0.4901 -3.1760
12775TIP3   OH259815   5.202   2.010   2.661  0.1688  0.1912  0.5376
12775TIP3    H159816   5.260   2.077   2.626  0.3887  0.2220  0.9504
12775TIP3    H259817   5.245   1.927   2.640  0.2245  0.2036  0.6047
12776TIP3   OH259818   5.079   5.945  14.599  0.1045  0.2325  0.0478
12776TIP3    H159819   5.028   5.960  14.678 -0.0008  1.2340 -0.1978
12776TIP3    H259820   5.159   5.901  14.629 -0.2858 -0.1026  0.6036
12777TIP3   OH259821   2.386   6.442  11.003  0.9101 -0.7916 -0.4165
12777TIP3    H159822   2.340   6.526  11.003  0.6849 -0.8153  2.1664
12777TIP3    H259823   2.407   6.425  10.912 -0.5008  1.2690 -1.1845
12778TIP3   OH259824   1.025   3.353   0.293 -0.0634 -0.2396  0.2322
12778TIP3    H159825   1.009   3.327   0.384 -0.8104 -0.2876  0.0904
12778TIP3    H259826   0.938   3.360   0.254  0.2781 -1.5119 -0.8501
12779TIP3   OH259827   0.031   0.596  15.899 -0.0286 -0.0573  0.0250
12779TIP3    H159828  -0.016   0.675  15.874 -0.6754  0.7176  3.2391
12779TIP3    H259829   0.003   0.579  15.988  1.4448 -2.9481  0.0375
12780TIP3   OH259830   4.216   6.818   2.851 -0.7351  0.3428  0.1797
12780TIP3    H159831   4.278   6.745   2.854  1.8360  2.3411 -1.0468
12780TIP3    H259832   4.186   6.827   2.941  1.8058  0.0955  1.1269
12781TIP3   OH259833   2.380   4.744  16.468 -0.1100 -0.1250 -0.3483
12781TIP3    H159834   2.386   4.654  16.500  0.5483  0.7565  2.2727
12781TIP3    H259835   2.467   4.764  16.434  0.0337 -0.1766 -0.0151
12782TIP3   OH259836   4.796   5.957  15.488  0.0338  0.6725 -0.0996
12782TIP3    H159837   4.809   6.020  15.416 -0.5686 -0.6985 -1.4730
12782TIP3    H259838   4.819   6.006  15.567  0.8336  2.2182 -1.2235
12783TIP3   OH259839   0.013   5.583   1.374  0.1381 -0.2675  0.3821
12783TIP3    H159840   0.050   5.496   1.387  0.4632 -0.0551  0.9021
12783TIP3    H259841  -0.042   5.598   1.451  1.1553  0.5285  0.9875
12784TIP3   OH259842   0.432   6.526   5.826 -0.2852 -0.2418 -0.2519
12784TIP3    H159843   0.501   6.470   5.790 -0.6208 -0.4130 -0.6389
12784TIP3    H259844   0.353   6.499   5.780 -0.3303  1.0727 -0.9902
12785TIP3   OH259845   0.060   2.785  14.266 -0.7509 -0.5464 -0.3143
12785TIP3    H159846   0.006   2.706  14.271 -0.0618 -1.0408 -0.5019
12785TIP3    H259847   0.003   2.849  14.223 -1.4431 -0.8221  0.1594
12786TIP3   OH259848   4.538   4.668  14.756  0.2640 -0.5642  0.2965
12786TIP3    H159849   4.508   4.634  14.672 -1.8956  0.2721  0.6552
12786TIP3    H259850   4.585   4.749  14.734 -1.8045  0.6028 -0.0615
12787TIP3   OH259851   0.070   2.668   3.769  0.0078  0.3422 -0.0893
12787TIP3    H159852   0.150   2.709   3.799  0.3530 -0.3074 -0.0982
12787TIP3    H259853   0.025   2.640   3.849 -0.4713  1.1732 -0.0593
12788TIP3   OH259854   5.463   1.568  16.933  0.5149 -0.0481  0.3072
12788TIP3    H159855   5.419   1.642  16.977 -0.3715 -1.1304  1.2932
12788TIP3    H259856   5.507   1.608  16.858  0.3599  1.5473  1.0208
12789TIP3   OH259857   1.524   1.509   2.468  0.2339 -0.3489 -0.2713
12789TIP3    H159858   1.546   1.472   2.553 -1.4395  0.2479  0.4693
12789TIP3    H259859   1.488   1.596   2.488  0.1748 -0.0350 -1.6156
12790TIP3   OH259860   0.697   3.393   1.401  0.0865  0.5448 -0.0579
12790TIP3    H159861   0.771   3.333   1.407 -0.3256  0.1339  3.6158
12790TIP3    H259862   0.622   3.338   1.380  0.1928  0.2796  0.2538
12791TIP3   OH259863   1.464   5.359   1.140  0.6851  0.0918 -0.3778
12791TIP3    H159864   1.411   5.435   1.165  0.0346 -0.6742  0.6753
12791TIP3    H259865   1.551   5.395   1.122  0.4654  1.0477  0.3974
12792TIP3   OH259866   0.363   3.453   4.646 -0.2905  0.0250 -0.2751
12792TIP3    H159867   0.434   3.516   4.654  0.9806 -1.5678  2.0052
12792TIP3    H259868   0.315   3.460   4.729 -0.8205 -1.1984 -0.4582
12793TIP3   OH259869   3.238   6.825   5.118  0.2314  0.1469  0.1083
12793TIP3    H159870   3.203   6.789   5.200  1.1779  1.2506  1.0155
12793TIP3    H259871   3.206   6.764   5.050 -0.5638 -0.7845  1.2768
12794TIP3   OH259872   0.419   0.683   0.061  0.4013 -0.0401 -0.0533
12794TIP3    H159873   0.360   0.754   0.036 -0.3496  0.0553  1.8586
12794TIP3    H259874   0.431   0.634  -0.020 -1.9475  0.1910 -0.6322
12795TIP3   OH259875   2.231   3.499   1.925  0.0757  1.0027 -0.3176
12795TIP3    H159876   2.188   3.484   2.010 -0.7728  0.1393 -0.8714
12795TIP3    H259877   2.159   3.496   1.861  0.8401  0.5066 -1.1795
12796TIP3   OH259878   0.220   1.799  13.154  0.2536 -0.2275 -0.0186
12796TIP3    H159879   0.213   1.875  13.211  0.7736  2.0088 -2.7329
12796TIP3    H259880   0.160   1.817  13.081  1.6318 -1.6032 -1.5821
12797TIP3   OH259881   1.285   3.038   1.459  0.3890  0.0371 -0.1286
12797TIP3    H159882   1.298   3.001   1.547 -0.9838 -0.4632 -0.1187
12797TIP3    H259883   1.235   3.119   1.475  0.7990  0.3502 -0.4020
12798TIP3   OH259884   4.934   0.267  14.377  0.0083  0.3278  0.4961
12798TIP3    H159885   4.976   0.351  14.359 -0.6836  0.0205 -3.3894
12798TIP3    H259886   4.848   0.289  14.412  0.4825  1.1172  1.2110
12799TIP3   OH259887   5.446   2.563  13.432  0.1287  0.3600  0.3941
12799TIP3    H159888   5.466   2.635  13.372  1.4713 -0.3647 -0.0671
12799TIP3    H259889   5.531   2.524  13.453 -0.5291 -0.8701  0.9217
12800TIP3   OH259890   2.909   0.998  12.391 -0.0631 -0.1740 -0.5229
12800TIP3    H159891   2.982   1.006  12.330 -0.2937 -0.4641 -0.8380
12800TIP3    H259892   2.866   0.916  12.368  1.3557 -1.6361  1.6732
12801TIP3   OH259893   1.852   0.157  14.146  0.3718 -0.6077  0.1089
12801TIP3    H159894   1.767   0.163  14.189  0.1742  2.0989 -0.4786
12801TIP3    H259895   1.833   0.113  14.063 -0.5552  0.2990 -0.1828
12802TIP3   OH259896   1.605   0.323  11.129  0.9569  0.1542  0.3223
12802TIP3    H159897   1.675   0.370  11.085 -0.0794  0.5878 -0.9424
12802TIP3    H259898   1.646   0.286  11.207  2.9841 -0.9832 -1.1853
12803TIP3   OH259899   3.196   2.595  16.554  0.1581 -0.1278 -0.3977
12803TIP3    H159900   3.148   2.514  16.538 -2.4245  1.5440 -1.8848
12803TIP3    H259901   3.274   2.588  16.499 -0.1586 -1.4593 -0.7142
12804TIP3   OH259902   4.794   6.398  13.994 -0.1705  0.0257 -0.2056
12804TIP3    H159903   4.709   6.354  13.999 -0.7015  0.9632 -0.5635
12804TIP3    H259904   4.780   6.482  14.037  0.8971 -0.2487  0.7229
12805TIP3   OH259905   6.729   3.425  14.532  0.0625 -0.3583  0.0312
12805TIP3    H159906   6.751   3.357  14.597  2.2402 -1.0515 -1.2815
12805TIP3    H259907   6.804   3.484  14.534  0.2059 -0.4089 -1.7966
12806TIP3   OH259908   1.355   3.431   5.261  0.0871 -0.0784  0.5718
12806TIP3    H159909   1.380   3.506   5.206 -0.4227 -1.4420 -1.6219
12806TIP3    H259910   1.276   3.460   5.307 -0.8719  0.3183 -1.2536
12807TIP3   OH259911   4.678   3.593  12.170  0.1224  0.0514  0.0780
12807TIP3    H159912   4.668   3.681  12.135  0.0158  0.2550  0.6173
12807TIP3    H259913   4.593   3.552  12.155 -0.1238  0.3405  0.6517
12808TIP3   OH259914   1.830   3.012  12.530 -0.3291  0.3594 -0.4211
12808TIP3    H159915   1.792   3.044  12.448  0.1242 -0.6461 -1.0565
12808TIP3    H259916   1.803   3.075  12.596 -1.1418  0.9122 -1.2587
12809TIP3   OH259917   2.852   4.156   4.088  0.2129  0.5482  0.2402
12809TIP3    H159918   2.876   4.097   4.017  2.4521  1.9132 -0.1929
12809TIP3    H259919   2.782   4.211   4.052 -0.1571 -0.1623 -0.1505
12810TIP3   OH259920   1.512   5.020   6.121 -0.6796 -0.1313  0.0030
12810TIP3    H159921   1.447   4.955   6.097 -0.2180 -0.1649 -1.1944
12810TIP3    H259922   1.529   5.003   6.214 -1.3440 -1.0165 -0.0245
12811TIP3   OH259923   4.751   0.882   2.525 -0.9251 -0.2328  0.5252
12811TIP3    H159924   4.799   0.920   2.452 -0.8613 -0.2902  0.5374
12811TIP3    H259925   4.752   0.950   2.593 -1.9057  0.2450  0.0885
12812TIP3   OH259926   3.165   2.964  12.342  0.0563  0.2751  0.1946
12812TIP3    H159927   3.161   3.058  12.356 -1.1781  0.2378  0.2441
12812TIP3    H259928   3.077   2.933  12.366  0.2030 -0.7702 -0.5516
12813TIP3   OH259929   4.132   5.826  14.182  0.2465 -0.1010  0.0167
12813TIP3    H159930   4.227   5.827  14.190  0.8409 -0.0453 -4.3963
12813TIP3    H259931   4.107   5.918  14.186  0.3267 -0.1170  1.2167
12814TIP3   OH259932   3.620   3.223  16.900  0.3496 -0.1392 -0.3927
12814TIP3    H159933   3.649   3.157  16.836  2.7716  1.1861 -0.7868
12814TIP3    H259934   3.550   3.179  16.949  0.9918 -2.5502 -1.4518
12815TIP3   OH259935   5.288   2.143   3.913 -0.4322  0.1406 -0.0785
12815TIP3    H159936   5.371   2.188   3.931 -1.0217  1.0122  0.5043
12815TIP3    H259937   5.310   2.079   3.845  1.0661 -0.7686  1.1986
12816TIP3   OH259938   3.279   0.835  11.441  0.4445  0.2306  0.4839
12816TIP3    H159939   3.361   0.878  11.463  1.9118 -1.6029 -1.0606
12816TIP3    H259940   3.304   0.745  11.421 -1.7593 -0.0842 -1.2292
12817TIP3   OH259941   2.966   4.902  14.821  0.2849  0.0575 -0.1440
12817TIP3    H159942   2.965   4.988  14.863  0.6957 -0.4180  0.8723
12817TIP3    H259943   2.986   4.921  14.729 -2.7055  1.2912 -0.6408
12818TIP3   OH259944   4.736   4.354  12.183 -0.4368  0.4800 -0.6422
12818TIP3    H159945   4.663   4.302  12.216 -1.7579  1.6968 -1.5560
12818TIP3    H259946   4.753   4.418  12.253  1.0961 -0.9949  0.4188
12819TIP3   OH259947   5.684   4.730  11.209  0.1104  0.1175  0.0998
12819TIP3    H159948   5.634   4.780  11.273 -1.7084 -0.5355 -0.7376
12819TIP3    H259949   5.717   4.796  11.147  2.0099  0.7672  1.7165
12820TIP3   OH259950   1.933   5.372   0.761  0.4272  0.5369 -0.0322
12820TIP3    H159951   1.982   5.383   0.843  0.7824  0.8479 -0.2819
12820TIP3    H259952   1.925   5.278   0.751  2.3328  0.3982 -0.7629
12821TIP3   OH259953   4.375   2.897   3.187  0.4182 -0.4496  0.2516
12821TIP3    H159954   4.365   2.955   3.263 -0.8150  0.4709 -0.5764
12821TIP3    H259955   4.443   2.939   3.134 -0.2508  0.0835 -0.1938
12822TIP3   OH259956   1.857   3.513   1.434 -0.1814 -0.4704 -0.2119
12822TIP3    H159957   1.949   3.487   1.435  0.3490  1.2448 -0.0328
12822TIP3    H259958   1.810   3.435   1.408  1.4538 -1.0230 -1.7071
12823TIP3   OH259959   3.470   5.640  16.340  0.3660  0.0221 -1.0349
12823TIP3    H159960   3.519   5.632  16.422 -1.8359 -1.5611  0.2362
12823TIP3    H259961   3.482   5.556  16.296  1.7824  0.9559 -2.5965
12824TIP3   OH259962   1.501   2.891   1.202 -0.1970 -0.4581  0.0581
12824TIP3    H159963   1.470   2.924   1.286 -0.3298 -0.7380  0.1208
12824TIP3    H259964   1.585   2.849   1.223  2.0484  3.2131 -0.6161
12825TIP3   OH259965   0.055   0.300   3.409  0.2678 -0.6461 -0.0813
12825TIP3    H159966   0.019   0.366   3.349 -0.0182  2.2665  2.9764
12825TIP3    H259967   0.149   0.302   3.395  0.3294  0.9860  0.3966
12826TIP3   OH259968   2.273   5.995   3.207  0.1187  0.1794 -0.1502
12826TIP3    H159969   2.339   5.957   3.149 -0.2264 -0.4834 -0.1177
12826TIP3    H259970   2.320   6.063   3.256  1.2529 -1.5071  1.2204
12827TIP3   OH259971   0.566   4.740   6.080  0.0188  0.4065 -0.2204
12827TIP3    H159972   0.570   4.708   6.170 -0.7037  1.0286  0.0432
12827TIP3    H259973   0.588   4.832   6.086 -1.2678  0.7552 -0.4938
12828TIP3   OH259974   6.835   3.594   3.762 -0.0749 -0.4110  0.3070
12828TIP3    H159975   6.829   3.499   3.753  0.4789 -0.3523 -0.8632
12828TIP3    H259976   6.748   3.621   3.793 -0.2742 -1.2844  0.5240
12829TIP3   OH259977   6.273   6.434  13.888 -0.3030 -0.5816  0.3267
12829TIP3    H159978   6.205   6.403  13.829 -0.5540  0.2314  0.1858
12829TIP3    H259979   6.346   6.373  13.875 -0.6780 -0.9224 -0.1739
12830TIP3   OH259980   5.541   5.640   3.357 -0.1605  0.1194  0.2416
12830TIP3    H159981   5.549   5.545   3.369  0.4555  0.0104 -0.8918
12830TIP3    H259982   5.447   5.657   3.363 -0.4373 -0.7935 -1.0015
12831TIP3   OH259983   6.775   0.315   4.129 -0.2576 -0.4483 -0.2218
12831TIP3    H159984   6.754   0.373   4.055  0.9190 -0.9504 -0.9874
12831TIP3    H259985   6.739   0.230   4.103 -0.0067 -0.5811 -0.1363
12832TIP3   OH259986   4.172   6.453   0.182 -0.2886 -0.3277  0.2973
12832TIP3    H159987   4.127   6.379   0.140  0.1197  0.0653 -0.8546
12832TIP3    H259988   4.105   6.492   0.239 -0.7689 -1.0386  0.2330
12833TIP3   OH259989   1.635   1.494  15.455 -0.1675  0.3379  0.4871
12833TIP3    H159990   1.718   1.488  15.502  0.4635 -1.1449 -0.7093
12833TIP3    H259991   1.616   1.588  15.451  1.4738  0.7138  0.7553
12834TIP3   OH259992   1.617   1.341   1.418 -0.1808 -0.2061  0.2101
12834TIP3    H159993   1.645   1.319   1.508  1.0449 -0.9236 -0.3133
12834TIP3    H259994   1.622   1.437   1.415  1.0530 -0.2318  0.5430
12835TIP3   OH259995   3.967   3.545  11.541 -0.0852 -0.2030 -0.0101
12835TIP3    H159996   3.973   3.469  11.484  1.2586 -0.1062 -0.0358
12835TIP3    H259997   3.922   3.611  11.489  1.9764  0.2210 -1.3930
12836TIP3   OH259998   1.977   6.482  15.745  0.0211 -0.2739  0.4403
12836TIP3    H159999   1.992   6.404  15.799 -0.4769 -1.4431 -1.0327
12836TIP3    H260000   1.881   6.488  15.737  0.0310  0.8394  1.0065
12837TIP3   OH260001   6.812   3.694  11.097  0.5729 -0.2741  0.5920
12837TIP3    H160002   6.813   3.691  11.002 -0.2738  0.0692  0.5589
12837TIP3    H260003   6.902   3.716  11.122  0.4180  1.4471 -0.2134
12838TIP3   OH260004   6.011   3.858   1.168 -0.3931  0.5614 -0.0786
12838TIP3    H160005   6.061   3.893   1.242  0.6807  2.9217 -1.7951
12838TIP3    H260006   6.076   3.813   1.115 -0.5972  1.2956 -0.9637
12839TIP3   OH260007   6.877   4.649   1.853 -0.1671  0.3992  0.1593
12839TIP3    H160008   6.867   4.640   1.947 -2.3442  0.9862  0.0251
12839TIP3    H260009   6.899   4.742   1.840  0.9290  0.1477  0.1170
12840TIP3   OH260010   6.696   2.432   5.338 -0.0281 -0.0667 -0.0383
12840TIP3    H160011   6.601   2.439   5.329 -0.4106 -2.1464  1.5337
12840TIP3    H260012   6.724   2.386   5.259 -0.1852  1.3450 -0.9342
12841TIP3   OH260013   0.970   4.012   4.853 -0.5132 -0.5979 -0.2466
12841TIP3    H160014   1.005   3.985   4.768 -0.8865 -1.7720 -0.0567
12841TIP3    H260015   1.043   3.997   4.914 -0.9969 -2.1270  0.0003
12842TIP3   OH260016   3.829   1.029  14.675  0.4573  0.2777  0.2056
12842TIP3    H160017   3.815   0.986  14.760 -0.2746 -0.5027 -0.2912
12842TIP3    H260018   3.817   0.960  14.611  0.8699  0.8921 -0.5500
12843TIP3   OH260019   4.196   4.886   2.355 -0.1424  0.1531  0.4635
12843TIP3    H160020   4.221   4.956   2.416 -1.3939  1.4248 -0.4144
12843TIP3    H260021   4.113   4.853   2.390 -0.4015  0.2631 -0.0451
12844TIP3   OH260022   4.917   4.625   2.905 -0.0077 -0.8544  0.2169
12844TIP3    H160023   4.863   4.653   2.831  1.2473 -2.0921 -1.2304
12844TIP3    H260024   5.004   4.610   2.868  1.2887  0.6399  2.3852
12845TIP3   OH260025   6.150   6.651   1.731 -0.0141 -0.5120  0.1223
12845TIP3    H160026   6.240   6.686   1.736  0.9372 -2.8931  0.9584
12845TIP3    H260027   6.123   6.643   1.823 -0.6040 -0.9763 -0.0902
12846TIP3   OH260028   4.669   6.682   2.939  0.4812 -0.6686  0.1795
12846TIP3    H160029   4.593   6.652   2.889 -1.2320  1.3706  1.3437
12846TIP3    H260030   4.744   6.643   2.896 -1.1316 -1.6177 -1.9430
12847TIP3   OH260031   0.226   6.535   1.685 -0.0951  0.6138  0.7152
12847TIP3    H160032   0.262   6.571   1.766 -1.1918 -0.7375  1.8521
12847TIP3    H260033   0.131   6.550   1.693 -0.2167  0.4898 -0.3450
12848TIP3   OH260034   6.620   2.899   1.129 -0.0076 -0.2418  0.4005
12848TIP3    H160035   6.705   2.860   1.113  0.5167  1.2366 -0.6755
12848TIP3    H260036   6.565   2.827   1.159  1.6933 -1.1626  1.4510
12849TIP3   OH260037   5.545   4.123   2.601  0.1851  0.0989  0.5266
12849TIP3    H160038   5.607   4.182   2.645  0.8560 -0.1676 -0.0423
12849TIP3    H260039   5.509   4.175   2.529 -1.4833  0.7883  1.7932
12850TIP3   OH260040   1.500   1.357  16.281  0.2297  0.2573  0.0544
12850TIP3    H160041   1.440   1.425  16.251 -0.7474 -1.1011 -1.2418
12850TIP3    H260042   1.587   1.390  16.259 -0.0896  1.7303  0.8662
12851TIP3   OH260043   0.139   2.353   4.299 -0.3930  0.3460  0.1449
12851TIP3    H160044   0.138   2.296   4.376  0.4303 -0.7068 -0.5957
12851TIP3    H260045   0.135   2.293   4.224  2.3365  1.0820 -0.7223
12852TIP3   OH260046   1.100   5.392  11.425  0.0376 -0.0097  0.3770
12852TIP3    H160047   1.183   5.384  11.376  0.0102 -0.1431  0.3519
12852TIP3    H260048   1.034   5.357  11.365 -0.4550  2.5538 -0.7027
12853TIP3   OH260049   4.010   2.368   5.018 -0.0861  0.2537  0.4705
12853TIP3    H160050   3.949   2.319   5.074 -2.1133 -0.7136 -2.3903
12853TIP3    H260051   3.988   2.460   5.035 -2.2421 -0.0600 -0.2670
12854TIP3   OH260052   5.390   5.897   4.619 -0.4835 -0.3397  0.2741
12854TIP3    H160053   5.341   5.965   4.665  1.2251  0.5970  0.7620
12854TIP3    H260054   5.400   5.930   4.530  0.4424  0.1152  0.5402
12855TIP3   OH260055   4.023   1.450   4.049 -0.0134 -0.2096  0.1091
12855TIP3    H160056   4.062   1.370   4.015 -1.0218 -0.0911 -1.4300
12855TIP3    H260057   4.095   1.513   4.052  1.0174 -1.4138  2.3206
12856TIP3   OH260058   5.141   1.643  12.669 -0.1479  0.1181 -0.4186
12856TIP3    H160059   5.092   1.613  12.592 -0.0479  0.3137 -0.5618
12856TIP3    H260060   5.232   1.621  12.649 -0.0878  0.4082 -0.4756
12857TIP3   OH260061   6.693   5.612  10.906 -0.3092 -0.2741 -0.4428
12857TIP3    H160062   6.656   5.552  10.842 -1.1566  0.4729 -0.6635
12857TIP3    H260063   6.735   5.680  10.854 -0.3323 -0.0693 -0.1922
12858TIP3   OH260064   4.750   6.100  12.651 -0.3855  0.0966 -0.0570
12858TIP3    H160065   4.781   6.191  12.646 -0.3639  0.1361  0.7987
12858TIP3    H260066   4.654   6.108  12.649 -0.4947 -0.0889 -4.0791
12859TIP3   OH260067   1.567   1.559  13.984  0.1503 -0.1846  0.4369
12859TIP3    H160068   1.589   1.616  14.058  0.6833 -0.2174  0.3102
12859TIP3    H260069   1.629   1.486  13.991  0.0318 -0.3183  0.1030
12860TIP3   OH260070   1.528   1.756  13.686 -0.2289 -0.0978 -0.5134
12860TIP3    H160071   1.536   1.685  13.750  1.0942 -0.8649 -1.4681
12860TIP3    H260072   1.445   1.740  13.642  0.8904 -2.2647 -2.0279
12861TIP3   OH260073   1.518   4.798  11.806 -0.3532  0.1900 -0.0810
12861TIP3    H160074   1.535   4.775  11.897  2.8651  0.2105 -0.5534
12861TIP3    H260075   1.551   4.887  11.797 -1.1246  0.3833 -1.1476
12862TIP3   OH260076   5.165   2.980  15.311 -0.0090 -0.1401  0.7678
12862TIP3    H160077   5.180   2.960  15.219 -0.6079  0.3850  0.5464
12862TIP3    H260078   5.124   3.067  15.311  1.6243  0.6958  1.6273
12863TIP3   OH260079   5.757   5.779  10.168  0.2925  0.0733  0.0969
12863TIP3    H160080   5.769   5.837  10.243 -0.0993  0.4413 -0.1175
12863TIP3    H260081   5.685   5.721  10.194  1.3825 -1.0269  0.7276
12864TIP3   OH260082   6.264   0.602   0.330 -0.1261 -0.1301 -0.6997
12864TIP3    H160083   6.293   0.524   0.285  0.3566  0.1468 -0.8749
12864TIP3    H260084   6.317   0.673   0.293  1.4811 -0.1127  1.4260
12865TIP3   OH260085   1.958   4.298  12.764 -0.1446  0.3758  0.6376
12865TIP3    H160086   1.965   4.237  12.838 -0.2344 -0.5885 -0.1388
12865TIP3    H260087   1.865   4.296  12.741 -0.0968  0.6032  0.4279
12866TIP3   OH260088   5.361   1.253  13.482 -0.6013  0.6266 -0.1619
12866TIP3    H160089   5.286   1.226  13.430 -1.1663 -1.3333  1.5234
12866TIP3    H260090   5.421   1.294  13.419 -1.3188 -1.4004 -2.3001
12867TIP3   OH260091   2.389   2.976   0.162 -0.2098 -0.4786  0.0542
12867TIP3    H160092   2.457   2.910   0.151  2.6211  2.2943 -0.6237
12867TIP3    H260093   2.357   2.994   0.074  0.6277  0.5357 -0.0625
12868TIP3   OH260094   2.749   2.405   0.195  0.2582  0.1094 -0.3136
12868TIP3    H160095   2.659   2.383   0.216  0.9579 -0.7744  2.1594
12868TIP3    H260096   2.779   2.333   0.139 -0.5975  0.5174 -1.3237
12869TIP3   OH260097   1.991   4.604   0.056  0.3636  0.0509 -0.5402
12869TIP3    H160098   1.949   4.646  -0.019  0.1765  3.9682  1.5156
12869TIP3    H260099   1.920   4.558   0.101  0.3112 -1.5583 -2.1418
12870TIP3   OH260100   4.164   2.705   5.033  0.4368 -0.1192  0.2609
12870TIP3    H160101   4.158   2.782   4.977 -2.5692 -0.2165  0.2610
12870TIP3    H260102   4.073   2.678   5.046  1.3379 -3.3340  0.7530
12871TIP3   OH260103   6.270   6.137   0.455 -0.4388  0.4540 -0.1033
12871TIP3    H160104   6.230   6.162   0.538  2.4584  0.2784  1.4612
12871TIP3    H260105   6.336   6.204   0.439 -0.1058 -0.1931 -1.6502
12872TIP3   OH260106   3.957   4.354  16.180 -0.1626 -0.3881  0.2392
12872TIP3    H160107   4.028   4.416  16.163 -1.1938  0.8070  0.1242
12872TIP3    H260108   3.907   4.353  16.098 -0.1832 -1.3624  0.2549
12873TIP3   OH260109   4.385   5.130   0.526 -0.1781  0.6426  0.0630
12873TIP3    H160110   4.383   5.151   0.620  0.1352 -1.0735  0.4960
12873TIP3    H260111   4.304   5.081   0.510 -0.8316  1.9714 -0.8675
12874TIP3   OH260112   4.191   3.971  15.238 -0.2709 -0.4558  0.6438
12874TIP3    H160113   4.252   4.045  15.242 -1.6378  0.7797 -0.2088
12874TIP3    H260114   4.155   3.973  15.150 -0.3609 -2.1666  0.6029
12875TIP3   OH260115   1.595   0.256   2.216  0.1147  0.3669 -0.0042
12875TIP3    H160116   1.648   0.308   2.277  1.2971 -1.2406  0.3978
12875TIP3    H260117   1.636   0.272   2.130 -0.7418  1.6023 -0.2028
12876TIP3   OH260118   6.651   4.992   1.164  0.4758 -0.3398 -0.0426
12876TIP3    H160119   6.573   5.012   1.111 -0.7567  2.1963  2.4777
12876TIP3    H260120   6.628   4.913   1.212 -1.3776  1.3086  1.9552
12877TIP3   OH260121   2.074   0.189  10.899  0.6770 -0.1513  0.6969
12877TIP3    H160122   1.988   0.231  10.894  0.5677 -0.5039 -0.7300
12877TIP3    H260123   2.112   0.200  10.812  1.7146 -0.7711  1.0497
12878TIP3   OH260124   3.074   3.505   5.550 -0.1892 -0.1591 -0.0729
12878TIP3    H160125   3.083   3.509   5.455  0.3541  0.6485 -0.0032
12878TIP3    H260126   3.084   3.413   5.571 -0.9262 -0.4334 -0.8483
12879TIP3   OH260127   1.856   5.349   3.312  0.1405  0.3365  0.0735
12879TIP3    H160128   1.910   5.388   3.243  0.7777  2.3371  1.5980
12879TIP3    H260129   1.906   5.272   3.340  0.6665  0.4115 -0.6259
12880TIP3   OH260130   1.744   5.249   1.223 -0.3502 -0.0343 -0.2935
12880TIP3    H160131   1.783   5.333   1.200  2.1082 -0.6502  1.1503
12880TIP3    H260132   1.814   5.203   1.270 -1.9995 -2.4169  0.0076
12881TIP3   OH260133   1.210   0.856   6.418  0.0634 -0.0325 -0.0523
12881TIP3    H160134   1.274   0.788   6.399  0.1285  0.4590 -1.8127
12881TIP3    H260135   1.142   0.812   6.469 -0.1000 -1.5627 -1.5015
12882TIP3   OH260136   3.970   0.277  12.265  0.3592 -0.4562  0.3926
12882TIP3    H160137   3.903   0.320  12.211  1.1192 -0.8145 -0.8597
12882TIP3    H260138   3.932   0.276  12.353 -1.9990 -2.0999 -0.5489
12883TIP3   OH260139   4.185   1.879   2.123  0.1800 -0.4736  0.3114
12883TIP3    H160140   4.213   1.878   2.215 -0.9260 -0.9253  0.6506
12883TIP3    H260141   4.125   1.954   2.117 -0.3229 -0.8851  0.1361
12884TIP3   OH260142   3.314   0.928   1.428 -0.0110  0.6051 -0.2310
12884TIP3    H160143   3.255   0.899   1.497 -1.2776  0.0323 -1.5153
12884TIP3    H260144   3.354   0.848   1.395  0.1487  0.8157 -0.5596
12885TIP3   OH260145   0.303   2.629  10.942 -0.0132  0.4866 -0.3595
12885TIP3    H160146   0.360   2.607  10.869 -0.3689  2.0705 -1.1647
12885TIP3    H260147   0.217   2.594  10.917  0.0864  0.1606 -0.2426
12886TIP3   OH260148   3.571   3.077  14.275 -0.1384  0.0949 -0.5284
12886TIP3    H160149   3.489   3.028  14.267  0.3025 -0.9634  0.8919
12886TIP3    H260150   3.627   3.020  14.328  0.7493  1.7326  0.3720
12887TIP3   OH260151   3.438   2.465  12.533  0.1738  0.3646 -0.0772
12887TIP3    H160152   3.476   2.378  12.547  0.4899  0.4457 -0.3876
12887TIP3    H260153   3.486   2.521  12.594  1.3929  0.6772 -1.2617
12888TIP3   OH260154   0.595   0.204   2.592 -0.1080  0.0758 -0.3667
12888TIP3    H160155   0.528   0.259   2.632  0.4806  0.4429  0.1495
12888TIP3    H260156   0.558   0.116   2.594 -1.4606  0.5531 -2.0693
12889TIP3   OH260157   5.394   5.477  14.132 -0.3735 -0.3399  0.7831
12889TIP3    H160158   5.369   5.511  14.046  0.1769 -0.8772  0.4033
12889TIP3    H260159   5.348   5.394  14.139  1.8973 -1.8021 -0.3153
12890TIP3   OH260160   4.176   1.081  11.310 -0.2572  0.2488 -0.2834
12890TIP3    H160161   4.223   1.138  11.371  0.1602 -2.0134  1.6795
12890TIP3    H260162   4.116   1.139  11.264  0.7339  2.3819  0.9449
12891TIP3   OH260163   1.124   6.493  13.865 -0.1740  0.4539  0.8208
12891TIP3    H160164   1.095   6.566  13.920  2.2829  1.2894  1.1188
12891TIP3    H260165   1.177   6.439  13.923  0.2458 -0.0965 -0.0626
12892TIP3   OH260166   2.322   3.186  11.176 -0.2149 -0.8217 -0.0257
12892TIP3    H160167   2.360   3.123  11.237 -0.3556 -1.0129 -0.1331
12892TIP3    H260168   2.288   3.132  11.104  1.3138 -0.4979 -1.0303
12893TIP3   OH260169   2.930   2.654  15.079  0.0866  0.6424  0.6269
12893TIP3    H160170   2.908   2.631  14.988 -0.5497 -0.6793  1.0831
12893TIP3    H260171   2.851   2.632  15.129  0.3278  1.6315  1.4719
12894TIP3   OH260172   5.627   3.953   0.324  0.6662  0.1307  0.2933
12894TIP3    H160173   5.572   4.013   0.375  2.4706  1.5947  0.6175
12894TIP3    H260174   5.656   4.006   0.249  3.2570  0.1107  1.1899
12895TIP3   OH260175   2.497   6.882   5.273 -0.0256  0.4527 -0.0173
12895TIP3    H160176   2.570   6.823   5.288 -0.4754 -0.2116 -0.3485
12895TIP3    H260177   2.433   6.859   5.340  0.0110  0.9348  0.1866
12896TIP3   OH260178   5.623   0.308  14.735 -0.0798 -0.2060 -0.2334
12896TIP3    H160179   5.708   0.349  14.719 -0.1250 -0.4221 -1.0956
12896TIP3    H260180   5.615   0.307  14.831  0.1347  1.3146 -0.1785
12897TIP3   OH260181   2.692   5.468   0.758  0.2840 -0.2338 -0.5735
12897TIP3    H160182   2.774   5.501   0.721 -0.1794  2.3726  0.5201
12897TIP3    H260183   2.720   5.406   0.826  1.5023  1.9659  1.0576
12898TIP3   OH260184   4.359   2.155  12.583 -0.6945 -0.0298  0.2834
12898TIP3    H160185   4.420   2.088  12.614 -1.0889  0.5843  2.5462
12898TIP3    H260186   4.275   2.110  12.577 -0.2602 -0.6617 -2.0222
12899TIP3   OH260187   0.483   3.102   0.484  0.4729 -0.4971  0.1183
12899TIP3    H160188   0.576   3.113   0.463  0.4865  0.7893  0.7908
12899TIP3    H260189   0.479   3.099   0.579 -0.2276 -0.0279  0.1120
12900TIP3   OH260190   0.489   6.100  11.172 -0.1644 -0.2345 -0.2841
12900TIP3    H160191   0.467   6.088  11.080  0.7671 -0.3849 -0.4966
12900TIP3    H260192   0.568   6.049  11.185 -0.5216 -0.5635  0.7129
12901TIP3   OH260193   0.174   6.814  11.634  0.2039  0.3019 -0.6433
12901TIP3    H160194   0.133   6.900  11.629  0.7770  0.6113 -0.1423
12901TIP3    H260195   0.268   6.831  11.620  0.1462 -0.4231 -2.0695
12902TIP3   OH260196   4.270   5.338   0.380  0.0377 -0.1822  0.1283
12902TIP3    H160197   4.219   5.409   0.418  1.7131  0.5098  1.2452
12902TIP3    H260198   4.287   5.278   0.453  2.3278  0.5734  0.3214
12903TIP3   OH260199   2.626   6.018  11.426  0.2584 -0.4925 -0.6508
12903TIP3    H160200   2.680   5.942  11.406  0.7281 -1.2703  2.9004
12903TIP3    H260201   2.608   6.011  11.520 -2.4094  2.0848 -0.8182
12904TIP3   OH260202   3.561   3.318   1.457  0.6620 -0.2696  0.2966
12904TIP3    H160203   3.537   3.328   1.549 -0.5497  0.2415 -0.0511
12904TIP3    H260204   3.536   3.229   1.435 -0.1745 -0.0063  0.1561
12905TIP3   OH260205   2.446   5.725  15.811 -0.6151 -0.2023  0.7453
12905TIP3    H160206   2.406   5.798  15.858 -1.4539 -0.5761  0.6318
12905TIP3    H260207   2.390   5.650  15.831  0.3810 -0.8678  1.0588
12906TIP3   OH260208   4.601   4.538  13.977  0.4840  0.0356  0.6578
12906TIP3    H160209   4.508   4.550  13.994  0.4481  3.5968 -1.2035
12906TIP3    H260210   4.607   4.525  13.882  1.7871 -3.0442  1.0328
12907TIP3   OH260211   3.289   1.897  13.915  0.1460 -0.1835 -0.1418
12907TIP3    H160212   3.307   1.804  13.930  0.3932 -0.3667 -1.4595
12907TIP3    H260213   3.304   1.910  13.822 -1.4501  0.8311 -0.3103
12908TIP3   OH260214   0.741   0.158  13.246  0.2214 -0.6123  0.2484
12908TIP3    H160215   0.712   0.067  13.249 -2.0680  0.0782  0.9040
12908TIP3    H260216   0.683   0.204  13.307  0.3617  1.5332 -1.1367
12909TIP3   OH260217   1.807   6.667  14.562  0.0674  0.3712  0.5817
12909TIP3    H160218   1.894   6.649  14.597  0.0206 -2.3043 -0.4263
12909TIP3    H260219   1.808   6.761  14.542  2.5258  0.5081  1.0649
12910TIP3   OH260220   3.192   4.398   0.134  0.4034  0.1118  0.7293
12910TIP3    H160221   3.182   4.332   0.065 -1.2187 -0.6979  1.6697
12910TIP3    H260222   3.285   4.398   0.154  1.2559  1.5539 -2.5295
12911TIP3   OH260223   3.410   6.467   5.045  0.3900 -0.3058  0.1107
12911TIP3    H160224   3.349   6.531   5.009  0.1441 -0.0305  0.9862
12911TIP3    H260225   3.447   6.422   4.969  2.0395  2.1862 -0.6701
12912TIP3   OH260226   4.446   6.342  11.518  0.0124 -0.3997  0.2891
12912TIP3    H160227   4.536   6.339  11.549  0.4163  2.7107 -0.2607
12912TIP3    H260228   4.413   6.426  11.549 -3.2089 -1.9708  1.6066
12913TIP3   OH260229   2.948   4.304   3.685 -0.1641 -0.5060 -0.3134
12913TIP3    H160230   2.882   4.334   3.748  0.1296 -1.1069  0.2841
12913TIP3    H260231   2.902   4.307   3.601 -0.5298  0.4041 -0.1058
12914TIP3   OH260232   0.861   4.894   2.297  0.2673 -0.6003  0.4412
12914TIP3    H160233   0.776   4.915   2.335  0.1996  0.4268 -0.2417
12914TIP3    H260234   0.844   4.890   2.203  0.7454 -1.5576  0.3866
12915TIP3   OH260235   6.886   3.954  16.467 -0.0259 -0.1876  0.5956
12915TIP3    H160236   6.793   3.953  16.443 -0.1163  1.1558  0.7890
12915TIP3    H260237   6.886   3.949  16.563  0.0548  0.5873  0.6419
12916TIP3   OH260238   4.439   6.452  14.219 -0.5103 -0.0995 -0.1182
12916TIP3    H160239   4.511   6.389  14.218 -1.7041 -1.6826  2.1150
12916TIP3    H260240   4.404   6.450  14.130  2.1025  0.7004 -1.2523
12917TIP3   OH260241   6.045   5.600  12.184  0.1201  0.1532 -0.0764
12917TIP3    H160242   6.122   5.566  12.139 -0.4128 -1.9611  0.4899
12917TIP3    H260243   6.075   5.623  12.271  0.2226 -0.1897 -0.0206
12918TIP3   OH260244   1.531   0.941  13.416  0.1948 -0.0687  0.2147
12918TIP3    H160245   1.517   0.875  13.483 -0.3010 -0.8907 -0.6663
12918TIP3    H260246   1.468   0.919  13.347  1.1217  0.3506 -0.8023
12919TIP3   OH260247   5.724   3.107   6.740 -0.2668  0.6311 -0.2570
12919TIP3    H160248   5.723   3.164   6.817 -1.4737  0.7956 -0.3742
12919TIP3    H260249   5.633   3.080   6.729  0.0060  0.0515 -1.2181
12920TIP3   OH260250   4.834   2.424  11.539 -0.2228 -0.0890  0.1316
12920TIP3    H160251   4.912   2.455  11.584  0.6246 -3.0685  0.9489
12920TIP3    H260252   4.762   2.447  11.598  0.0613  1.9614 -0.2518
12921TIP3   OH260253   0.644   4.555   0.250 -0.6700 -0.3153  0.2519
12921TIP3    H160254   0.645   4.601   0.334 -1.9631 -0.9054  0.6269
12921TIP3    H260255   0.700   4.479   0.263  0.3190  0.3789  0.0943
12922TIP3   OH260256   3.053   3.153   0.123  0.6337  0.6237 -0.2048
12922TIP3    H160257   3.023   3.227   0.070  1.2577  0.2580 -1.0848
12922TIP3    H260258   3.079   3.087   0.059  0.7443 -0.0924  0.5705
12923TIP3   OH260259   2.214   5.116   0.083  0.0501 -0.5104  0.1431
12923TIP3    H160260   2.250   5.033   0.053  0.3677 -0.5149  0.5154
12923TIP3    H260261   2.121   5.112   0.061  0.1393 -0.8015 -0.1878
12924TIP3   OH260262   1.043   0.755   0.209  0.3505  0.6023 -0.2824
12924TIP3    H160263   1.108   0.803   0.261 -0.4307  0.9826  0.3781
12924TIP3    H260264   1.071   0.663   0.215  0.3297  0.6478  0.7499
12925TIP3   OH260265   1.941   6.051  11.757 -0.1303  0.2235  0.4772
12925TIP3    H160266   1.857   6.061  11.711  0.3637  0.8430 -0.3119
12925TIP3    H260267   1.952   6.133  11.804  1.1492  1.1595 -1.3341
12926TIP3   OH260268   4.671   0.111  12.862  0.1732  0.6968  0.3548
12926TIP3    H160269   4.711   0.079  12.943 -0.6152  1.6820  1.1508
12926TIP3    H260270   4.730   0.079  12.792  1.0253  0.0972  1.3197
12927TIP3   OH260271   6.273   1.079  14.998 -0.7594  0.1513  0.2903
12927TIP3    H160272   6.287   1.164  15.039  0.4072  0.0627  0.0944
12927TIP3    H260273   6.328   1.081  14.919  0.5228 -1.3678  1.1029
12928TIP3   OH260274   0.500   3.874  14.566  0.1088 -0.2271 -0.1578
12928TIP3    H160275   0.527   3.902  14.479  2.9235 -2.4898 -0.1694
12928TIP3    H260276   0.538   3.939  14.625  0.7056 -0.2461 -0.5096
12929TIP3   OH260277   5.734   3.743   4.444  0.2606 -0.3499 -0.1986
12929TIP3    H160278   5.650   3.788   4.437  0.2220 -0.5608 -1.3215
12929TIP3    H260279   5.712   3.650   4.445  0.4657 -0.4018 -0.3173
12930TIP3   OH260280   0.165   4.660   3.133  0.3133 -0.3115 -0.2181
12930TIP3    H160281   0.106   4.726   3.096 -0.1663 -0.0918  0.9176
12930TIP3    H260282   0.195   4.610   3.057 -1.9819 -0.9685 -0.7783
12931TIP3   OH260283   5.892   1.199   2.920 -0.5230  0.1163  0.3232
12931TIP3    H160284   5.939   1.280   2.936  1.4773 -1.0209  0.5290
12931TIP3    H260285   5.954   1.130   2.944 -1.9159 -1.4872 -0.4750
12932TIP3   OH260286   6.356   2.580   2.404  0.0409  0.0480  0.4017
12932TIP3    H160287   6.368   2.673   2.387  2.2127 -0.2762 -0.1925
12932TIP3    H260288   6.422   2.558   2.470  1.2801 -1.4843 -1.2280
12933TIP3   OH260289   0.019   5.021  14.486  0.2761  0.4180  0.3362
12933TIP3    H160290   0.048   5.020  14.577 -2.3281  0.9595  1.2734
12933TIP3    H260291  -0.076   5.005  14.491 -0.0331  0.9623 -2.2400
12934TIP3   OH260292   2.612   1.220  13.570  0.2228  0.2632 -0.6881
12934TIP3    H160293   2.624   1.233  13.476  0.3952  0.0998 -0.6889
12934TIP3    H260294   2.601   1.126  13.581  1.3517  0.1458 -0.4250
12935TIP3   OH260295   6.613   4.341   5.168 -0.0188 -0.5036  0.2303
12935TIP3    H160296   6.609   4.295   5.084  2.1343  1.2624 -0.9438
12935TIP3    H260297   6.583   4.430   5.148 -0.5736 -0.3524  1.6197
12936TIP3   OH260298   1.303   1.646  11.562  0.0619  0.0331  0.3181
12936TIP3    H160299   1.339   1.638  11.651 -1.4473  0.3221  0.9838
12936TIP3    H260300   1.215   1.610  11.569 -0.5201  1.1812 -0.7720
12937TIP3   OH260301   1.200   1.438   2.734  0.3079 -0.0164  0.0772
12937TIP3    H160302   1.270   1.498   2.760  1.2539 -0.4397 -1.3852
12937TIP3    H260303   1.172   1.469   2.648  0.0303 -0.9902 -0.1965
12938TIP3   OH260304   5.006   5.869   4.675 -0.0209 -0.0145 -0.3359
12938TIP3    H160305   4.984   5.851   4.583 -0.3409  0.1908 -0.3018
12938TIP3    H260306   5.045   5.956   4.674 -0.1412  0.0412 -0.2624
12939TIP3   OH260307   3.374   1.829   1.794 -0.1847 -0.1912  0.1754
12939TIP3    H160308   3.343   1.916   1.767 -1.4812 -0.5938  0.2621
12939TIP3    H260309   3.458   1.818   1.751 -0.0109  1.1006  0.1448
12940TIP3   OH260310   4.331   2.703  11.888 -0.1081 -0.3632 -0.6924
12940TIP3    H160311   4.302   2.660  11.969  2.8855  0.0241  0.7137
12940TIP3    H260312   4.342   2.632  11.826 -0.0250 -0.9868  0.0217
12941TIP3   OH260313   3.188   0.420   4.719  0.1044 -0.2009 -0.9532
12941TIP3    H160314   3.235   0.474   4.655 -1.2561 -1.1577 -2.8849
12941TIP3    H260315   3.142   0.483   4.775  0.9693  0.6669 -1.1959
12942TIP3   OH260316   6.697   6.290   6.437 -0.0832 -0.0009  0.2630
12942TIP3    H160317   6.658   6.267   6.521  1.1374  1.4648  1.2881
12942TIP3    H260318   6.663   6.377   6.417 -1.5944 -0.9540 -1.5977
12943TIP3   OH260319   6.768   6.124  14.261 -0.7648 -0.3306  0.1164
12943TIP3    H160320   6.790   6.058  14.327 -1.0091 -0.9784 -0.4376
12943TIP3    H260321   6.695   6.086  14.213 -0.3334 -0.0482 -0.7890
12944TIP3   OH260322   6.434   5.777  13.387  0.0444  0.4410 -0.0739
12944TIP3    H160323   6.380   5.777  13.309 -0.7015  0.5909  0.4329
12944TIP3    H260324   6.429   5.866  13.420 -2.0375 -0.2437  1.7338
12945TIP3   OH260325   2.349   6.651  12.668 -0.1862  0.7670 -0.0060
12945TIP3    H160326   2.264   6.607  12.669  0.1015  0.0878 -1.5764
12945TIP3    H260327   2.389   6.623  12.586  1.7901  0.6550  0.9533
12946TIP3   OH260328   1.031   0.464   2.306  0.4642  0.2159 -0.3137
12946TIP3    H160329   0.979   0.542   2.288 -1.1343 -1.1201 -1.9127
12946TIP3    H260330   1.054   0.430   2.219 -0.8344 -2.2913  0.2266
12947TIP3   OH260331   4.926   1.641   5.877 -0.5764  0.2086  0.1764
12947TIP3    H160332   5.012   1.634   5.836 -0.8352  1.4472 -0.6102
12947TIP3    H260333   4.931   1.583   5.953  1.1162  0.6645  0.4394
12948TIP3   OH260334   6.789   5.754   0.386  0.0586 -0.7994 -0.0351
12948TIP3    H160335   6.753   5.828   0.339 -0.6769  0.4721  2.3674
12948TIP3    H260336   6.716   5.694   0.397  0.0529 -0.7685  0.0975
12949TIP3   OH260337   3.232   3.944   4.240 -0.5755  0.3408 -0.2434
12949TIP3    H160338   3.265   3.935   4.329 -1.1896  0.3651 -0.0082
12949TIP3    H260339   3.178   4.023   4.242  0.8649  1.3797 -1.0898
12950TIP3   OH260340   3.029   3.262  13.947 -0.3624  0.0106  0.5855
12950TIP3    H160341   2.944   3.284  13.909 -0.7055 -0.7242  0.9097
12950TIP3    H260342   3.036   3.167  13.937  1.1897  0.2363 -1.0050
12951TIP3   OH260343   2.292   0.419   4.838 -0.2114 -0.5233 -0.2431
12951TIP3    H160344   2.349   0.426   4.761  2.0473 -0.4708  1.3512
12951TIP3    H260345   2.310   0.499   4.888 -2.1198 -0.2527  0.0609
12952TIP3   OH260346   3.488   2.173   1.252  0.0588 -0.1537  0.1642
12952TIP3    H160347   3.435   2.248   1.224 -0.3900 -0.1442  0.9997
12952TIP3    H260348   3.424   2.103   1.266  0.1550  0.0457  1.8274
12953TIP3   OH260349   3.210   3.017  14.635  0.0411  0.8400  0.0286
12953TIP3    H160350   3.231   2.930  14.668  0.6369  0.5117 -1.1636
12953TIP3    H260351   3.115   3.024  14.644 -0.3747 -0.9290 -2.0854
12954TIP3   OH260352   4.727   1.308  14.039 -0.3196  0.0860  0.1508
12954TIP3    H160353   4.768   1.319  14.125  0.8767  1.7706 -0.5587
12954TIP3    H260354   4.664   1.380  14.033  0.4866  0.7557 -0.8051
12955TIP3   OH260355   5.834   2.573  11.853  0.0648  0.3962 -0.0715
12955TIP3    H160356   5.765   2.568  11.787 -0.6920 -1.3748  0.8019
12955TIP3    H260357   5.911   2.603  11.804  0.0385 -2.5768 -2.2431
12956TIP3   OH260358   6.307   1.594  15.125  0.1785  0.2807  0.1415
12956TIP3    H160359   6.240   1.629  15.184  0.4284  0.6244  0.2195
12956TIP3    H260360   6.341   1.670  15.079 -1.0026 -0.1108 -1.4986
12957TIP3   OH260361   0.550   2.440   5.059 -0.1446 -0.2970 -0.3212
12957TIP3    H160362   0.461   2.470   5.074 -0.2733 -0.6349 -0.3927
12957TIP3    H260363   0.541   2.346   5.043 -0.0038 -0.0217 -2.2502
12958TIP3   OH260364   0.195   5.487  13.892  0.8206 -0.5655 -0.3143
12958TIP3    H160365   0.134   5.414  13.903  1.1561 -0.5904  1.6757
12958TIP3    H260366   0.261   5.474  13.960  0.2016  2.2654  0.9441
12959TIP3   OH260367   5.716   2.560  11.294 -0.2104  0.0465 -0.1431
12959TIP3    H160368   5.754   2.646  11.313 -0.2398  0.2521 -0.9803
12959TIP3    H260369   5.790   2.507  11.265 -0.2266 -0.1590  0.1826
12960TIP3   OH260370   6.175   4.986   5.351  0.2414  0.1638  0.1307
12960TIP3    H160371   6.085   4.991   5.384  0.0397 -1.0561 -0.1941
12960TIP3    H260372   6.216   5.067   5.382 -0.5552  0.0669  1.5029
12961TIP3   OH260373   5.185   2.599  11.328 -0.1290 -0.3285  0.4751
12961TIP3    H160374   5.136   2.607  11.410 -0.7894 -2.1600  0.2961
12961TIP3    H260375   5.127   2.550  11.270  0.0682  1.4454 -1.3419
12962TIP3   OH260376   6.538   6.405   3.520 -0.3404 -0.3512  0.5874
12962TIP3    H160377   6.508   6.376   3.434 -0.6939  0.0773  0.5665
12962TIP3    H260378   6.605   6.471   3.502 -0.9480  0.2789  0.6459
12963TIP3   OH260379   0.090   3.561  14.451  0.5205 -0.1958  0.4015
12963TIP3    H160380   0.103   3.655  14.463  0.7246 -0.2794  0.8349
12963TIP3    H260381   0.169   3.532  14.404  0.1288 -0.0279 -0.3796
12964TIP3   OH260382   5.764   0.590   4.335  0.0835 -0.1776 -0.0362
12964TIP3    H160383   5.715   0.544   4.403 -0.9938  1.4184  0.3132
12964TIP3    H260384   5.698   0.618   4.272  0.5614  1.6376  0.2106
12965TIP3   OH260385   5.859   3.049  11.324 -0.0372  0.0651  0.3442
12965TIP3    H160386   5.870   2.965  11.278  1.1674  0.0740  0.5909
12965TIP3    H260387   5.784   3.090  11.281  1.3997  0.3535 -2.0833
12966TIP3   OH260388   5.977   6.240  14.871 -0.7118  0.2636 -0.3374
12966TIP3    H160389   5.916   6.210  14.939 -1.3856  0.7367 -0.7169
12966TIP3    H260390   6.028   6.163  14.848 -2.1866 -0.5453 -1.0636
12967TIP3   OH260391   0.576   1.868  14.083  0.4024 -0.1820  0.1594
12967TIP3    H160392   0.566   1.944  14.026  0.8464  0.3643  0.8082
12967TIP3    H260393   0.522   1.800  14.041  1.7171 -0.2143 -1.6316
12968TIP3   OH260394   3.589   3.543  12.771 -0.7686  0.5874  0.7635
12968TIP3    H160395   3.672   3.590  12.763 -1.0498  0.9054 -0.4148
12968TIP3    H260396   3.537   3.595  12.832 -0.7709  1.3599  0.1087
12969TIP3   OH260397   4.158   5.185  14.706  0.0402  0.2888 -0.4436
12969TIP3    H160398   4.190   5.174  14.796  0.3235 -0.7937 -0.6672
12969TIP3    H260399   4.197   5.112  14.658 -0.4051  0.6551 -1.3707
12970TIP3   OH260400   3.882   3.782  15.062  1.2766 -0.2629  0.0212
12970TIP3    H160401   3.835   3.859  15.093 -1.6828 -2.2057  0.7928
12970TIP3    H260402   3.844   3.763  14.976  1.0326 -1.5429  0.3820
12971TIP3   OH260403   6.758   3.662   5.484 -0.2692 -0.1677  0.2025
12971TIP3    H160404   6.717   3.611   5.554  0.5086 -2.3859 -0.8764
12971TIP3    H260405   6.723   3.751   5.495 -1.4380 -0.8374  2.3537
12972TIP3   OH260406   6.170   0.027   1.341  0.1662  0.6298 -0.2097
12972TIP3    H160407   6.119  -0.023   1.277 -0.7104  1.6700 -0.3566
12972TIP3    H260408   6.122   0.018   1.423  1.5231 -1.0648  0.4679
12973TIP3   OH260409   3.356   5.338   5.426  0.0904 -0.0771  0.4610
12973TIP3    H160410   3.283   5.329   5.366 -0.9667 -0.2177  1.7151
12973TIP3    H260411   3.370   5.433   5.434  1.0853 -0.0835 -0.9585
12974TIP3   OH260412   2.097   5.203   4.285 -0.4668  0.0568  0.0777
12974TIP3    H160413   2.108   5.296   4.267 -0.6350 -0.0510 -0.6264
12974TIP3    H260414   2.183   5.173   4.314 -0.2269  0.2819 -0.4013
12975TIP3   OH260415   0.410   2.867  12.199 -0.7344 -0.2132  0.1928
12975TIP3    H160416   0.381   2.831  12.115 -0.4923 -2.1548  0.8719
12975TIP3    H260417   0.367   2.812  12.264  0.1027  0.4238  1.3193
12976TIP3   OH260418   2.705   2.233   5.371 -0.2904 -0.8381 -0.0241
12976TIP3    H160419   2.746   2.240   5.458  0.0151 -0.9000 -0.1608
12976TIP3    H260420   2.629   2.177   5.385 -1.8216  1.3262  0.7576
12977TIP3   OH260421   3.462   5.738  13.129  0.0435  0.0645 -0.1139
12977TIP3    H160422   3.382   5.705  13.087 -0.0036 -0.6391  0.5042
12977TIP3    H260423   3.471   5.827  13.096 -0.5822 -0.1064 -0.7798
12978TIP3   OH260424   6.212   1.815  15.986  0.8515  0.0625 -0.1701
12978TIP3    H160425   6.242   1.809  16.077  0.0404 -1.1405  0.0257
12978TIP3    H260426   6.210   1.725  15.955 -0.0337  0.3607 -1.0068
12979TIP3   OH260427   5.609   3.398  15.401 -0.3259 -0.0962 -0.4695
12979TIP3    H160428   5.675   3.356  15.346 -0.0759 -2.0633  1.1814
12979TIP3    H260429   5.529   3.396  15.349  0.7743  2.0936 -2.4104
12980TIP3   OH260430   0.177   4.103   3.111 -0.0777  0.2652  0.7628
12980TIP3    H160431   0.232   4.039   3.065 -0.0012 -0.7092  2.1505
12980TIP3    H260432   0.151   4.165   3.043  0.5991 -0.7255 -0.4504
12981TIP3   OH260433   0.557   2.197   3.978 -0.0549 -0.2115  0.9187
12981TIP3    H160434   0.608   2.245   4.043  3.4989 -0.7654 -1.1709
12981TIP3    H260435   0.479   2.250   3.964  1.8735  3.0028  1.4145
12982TIP3   OH260436   0.395   5.078  11.934  0.0730  0.1041 -0.0204
12982TIP3    H160437   0.467   5.080  11.871  1.9658 -1.9233  1.8929
12982TIP3    H260438   0.370   4.985  11.938  0.0786  0.1516  2.1971
12983TIP3   OH260439   3.321   4.948  16.730  0.7046  0.6517  0.7635
12983TIP3    H160440   3.401   4.896  16.722  0.4824  0.5377 -1.1637
12983TIP3    H260441   3.264   4.915  16.661 -0.6511  1.3873  1.4894
12984TIP3   OH260442   5.340   4.714  12.951 -0.1437 -0.2524 -0.6382
12984TIP3    H160443   5.283   4.763  12.892  1.2375  2.6330  0.2600
12984TIP3    H260444   5.428   4.745  12.931  0.3597  1.5567  3.3471
12985TIP3   OH260445   4.006   0.236   1.105 -0.3733  0.1628  0.5439
12985TIP3    H160446   3.950   0.220   1.181 -1.6482  0.2260 -0.3395
12985TIP3    H260447   3.972   0.318   1.068 -0.2925 -0.2720 -0.5263
12986TIP3   OH260448   0.225   5.999  15.713 -0.3670  0.4165  0.2921
12986TIP3    H160449   0.316   6.022  15.692 -0.7461  1.4959 -0.2205
12986TIP3    H260450   0.230   5.907  15.740  0.6226 -0.0983 -1.4705
12987TIP3   OH260451   3.546   4.293  14.757 -0.5083  0.3674  0.5612
12987TIP3    H160452   3.536   4.201  14.779  2.5192  0.0760  1.2308
12987TIP3    H260453   3.500   4.340  14.826 -2.6545 -0.5910 -0.1584
12988TIP3   OH260454   4.439   2.577   6.323  0.5469 -0.4591 -0.1333
12988TIP3    H160455   4.520   2.624   6.339  0.0656 -0.2067  1.7463
12988TIP3    H260456   4.457   2.487   6.348 -0.2322 -0.0464  2.1457
12989TIP3   OH260457   0.330   5.520  10.589  0.2241 -0.3604 -0.2105
12989TIP3    H160458   0.420   5.514  10.557  0.5097 -1.3323  0.7138
12989TIP3    H260459   0.330   5.472  10.671 -1.0565 -0.0310  0.0116
12990TIP3   OH260460   1.608   0.401  16.628 -0.5366  0.2165 -0.4083
12990TIP3    H160461   1.517   0.377  16.609 -0.0421 -1.5525 -0.7432
12990TIP3    H260462   1.652   0.317  16.640  1.4277  0.9672 -1.9254
12991TIP3   OH260463   3.989   2.168   4.707  0.6775  0.4565  0.1240
12991TIP3    H160464   4.084   2.165   4.698  0.8528  1.2322  1.4426
12991TIP3    H260465   3.965   2.256   4.677  0.3862  0.3157 -0.0587
12992TIP3   OH260466   1.828   5.938   0.819  0.5160  0.4342  0.1005
12992TIP3    H160467   1.837   5.962   0.911 -1.8244 -1.3820  0.9333
12992TIP3    H260468   1.749   5.884   0.817 -0.0444  1.1779 -3.1468
12993TIP3   OH260469   4.589   5.261   5.230  0.0866  0.0550 -0.3131
12993TIP3    H160470   4.668   5.315   5.239 -0.1951  0.6338 -1.2300
12993TIP3    H260471   4.582   5.216   5.314  0.0890  1.7715  0.6661
12994TIP3   OH260472   6.310   1.823  16.247 -0.5300 -0.4677  0.0007
12994TIP3    H160473   6.255   1.887  16.293 -1.5887 -1.7608  0.5865
12994TIP3    H260474   6.393   1.825  16.295 -0.8511 -0.1564  0.5533
12995TIP3   OH260475   5.881   6.273  14.608  0.0389 -0.2925 -0.1452
12995TIP3    H160476   5.930   6.342  14.564  1.6354 -0.9158  0.5882
12995TIP3    H260477   5.912   6.276  14.699 -1.7024 -0.3623  0.4841
12996TIP3   OH260478   1.139   4.516   3.658  0.8528 -0.4768 -0.7169
12996TIP3    H160479   1.196   4.441   3.676 -0.7583 -1.5808 -0.0515
12996TIP3    H260480   1.070   4.481   3.602 -0.1750  0.3882 -0.0343
12997TIP3   OH260481   5.922   6.148   2.343  0.3814  0.4878 -0.7161
12997TIP3    H160482   5.843   6.175   2.296  0.5117 -1.3535 -2.1170
12997TIP3    H260483   5.928   6.208   2.417 -2.6003  0.3775 -0.2723
12998TIP3   OH260484   5.090   3.733  11.596  0.0948 -0.4544  0.0982
12998TIP3    H160485   5.002   3.770  11.586  0.7803  1.2924  0.2158
12998TIP3    H260486   5.075   3.643  11.627 -1.6338  0.4562  2.1759
12999TIP3   OH260487   1.991   5.271  13.742 -0.0724  0.4398  0.2001
12999TIP3    H160488   2.053   5.319  13.686 -0.7820 -0.7662 -1.7340
12999TIP3    H260489   1.905   5.305  13.718 -0.3384  0.6034  1.3182
13000TIP3   OH260490   2.696   4.166   0.968  0.4607 -0.0327 -0.8267
13000TIP3    H160491   2.648   4.246   0.946 -0.3029 -0.4399 -0.6785
13000TIP3    H260492   2.684   4.109   0.893 -1.6185 -1.1789  0.2812
13001TIP3   OH260493   3.412   6.127  10.857  0.5563 -1.0305  0.8315
13001TIP3    H160494   3.489   6.072  10.848  1.8362  0.9815 -3.6545
13001TIP3    H260495   3.447   6.216  10.863 -1.4056 -0.2044  0.7488
13002TIP3   OH260496   2.141   0.092  11.600 -0.4511 -0.2910 -0.5768
13002TIP3    H160497   2.090   0.019  11.564 -0.5546 -0.7224  0.4046
13002TIP3    H260498   2.155   0.068  11.692 -0.0939  0.7144 -0.3568
13003TIP3   OH260499   3.798   0.617   3.728  0.2229  0.0493 -0.1516
13003TIP3    H160500   3.806   0.698   3.779 -0.7138  0.4888 -0.6769
13003TIP3    H260501   3.876   0.566   3.752  1.4402  1.5870 -0.6706
13004TIP3   OH260502   6.405   4.981   1.057  0.6513  0.2794  0.1364
13004TIP3    H160503   6.341   4.973   1.128  0.0097  0.3545 -0.4286
13004TIP3    H260504   6.357   5.021   0.985  0.1329 -3.2831 -1.7647
13005TIP3   OH260505   1.691   2.382  12.715 -0.2185 -0.1040 -0.2569
13005TIP3    H160506   1.662   2.411  12.628  0.8094 -0.5181 -0.7540
13005TIP3    H260507   1.652   2.294  12.724  0.9200 -0.7061 -0.9713
13006TIP3   OH260508   3.312   5.665   2.918 -0.6702  0.7950 -0.0565
13006TIP3    H160509   3.224   5.646   2.886 -1.1880  0.7649  1.3415
13006TIP3    H260510   3.300   5.687   3.010  0.6890  1.6453 -0.0615
13007TIP3   OH260511   3.647   5.482  12.521 -0.1368 -0.2944  0.4231
13007TIP3    H160512   3.736   5.486  12.486 -0.3019 -2.0152 -0.2957
13007TIP3    H260513   3.612   5.570  12.509  0.8888 -0.0366 -0.8905
13008TIP3   OH260514   2.107   5.486   3.742  0.1290  0.5949  0.1296
13008TIP3    H160515   2.040   5.533   3.792 -1.6949  0.8372 -2.3683
13008TIP3    H260516   2.154   5.554   3.694  0.1215  0.1923 -0.4584
13009TIP3   OH260517   6.701   6.850   2.832  0.0660 -0.0946 -0.1434
13009TIP3    H160518   6.648   6.919   2.872 -0.7170 -0.8802  0.2064
13009TIP3    H260519   6.676   6.851   2.740 -0.7005 -0.5671  0.0477
13010TIP3   OH260520   2.757   0.279  12.019 -0.3956 -0.7758  0.4312
13010TIP3    H160521   2.820   0.291  11.949 -0.6208  0.8301  0.4743
13010TIP3    H260522   2.801   0.310  12.098 -2.0498  3.1190  0.0538
13011TIP3   OH260523   1.859   6.534   4.404  0.7316 -0.2718 -0.4661
13011TIP3    H160524   1.942   6.515   4.449  0.2770 -0.0747  0.4826
13011TIP3    H260525   1.885   6.569   4.319  1.6561  1.6155  0.5403
13012TIP3   OH260526   6.516   4.622  16.617  0.5863  0.9740  0.3698
13012TIP3    H160527   6.519   4.705  16.665  1.2346  0.4344  1.3025
13012TIP3    H260528   6.423   4.609  16.598  0.4049  1.5959  0.7726
13013TIP3   OH260529   1.070   3.092  14.323 -0.1100 -0.1576 -0.0808
13013TIP3    H160530   1.009   3.018  14.325  3.5701 -3.6401 -2.0890
13013TIP3    H260531   1.040   3.146  14.250 -1.2125 -1.3366 -0.5442
13014TIP3   OH260532   5.247   0.314  16.513 -0.3385  0.0293 -0.1702
13014TIP3    H160533   5.306   0.246  16.545 -0.3327  0.0202 -0.1997
13014TIP3    H260534   5.160   0.275  16.519 -0.2286 -0.5153 -1.5147
13015TIP3   OH260535   0.295   3.177   5.686 -0.7525  0.0623  0.4532
13015TIP3    H160536   0.248   3.257   5.663  1.0084  1.6704  2.0733
13015TIP3    H260537   0.381   3.188   5.645 -0.6898 -1.3068  0.1948
13016TIP3   OH260538   1.236   5.390  12.879 -0.5228  0.7350  0.0835
13016TIP3    H160539   1.153   5.431  12.906 -0.5725  0.3685  0.5056
13016TIP3    H260540   1.291   5.463  12.852 -0.6498  1.0756  0.7144
13017TIP3   OH260541   1.299   6.073  10.598 -0.3724  0.1498 -0.4642
13017TIP3    H160542   1.363   6.110  10.659 -0.3422 -1.5732  0.6198
13017TIP3    H260543   1.214   6.095  10.636 -0.3845  0.3548 -0.6080
13018TIP3   OH260544   0.297   2.962  11.319  0.1036 -0.2724  0.2219
13018TIP3    H160545   0.315   2.933  11.229 -0.2259 -1.6469  0.5745
13018TIP3    H260546   0.281   3.056  11.310  2.5434  0.1168 -0.7780
13019TIP3   OH260547   3.702   6.125   0.242 -0.9648 -0.6457 -0.0964
13019TIP3    H160548   3.707   6.200   0.184 -0.8260 -0.7483 -0.2168
13019TIP3    H260549   3.645   6.063   0.197  0.6262 -1.4991 -0.9983
13020TIP3   OH260550   3.612   5.696   0.948 -0.2594  0.0711 -0.3831
13020TIP3    H160551   3.518   5.682   0.937  0.1474 -1.1540 -3.0912
13020TIP3    H260552   3.629   5.779   0.904  0.0784 -0.1910 -0.7460
13021TIP3   OH260553   5.603   1.539  12.109  0.2203 -0.0122 -0.0834
13021TIP3    H160554   5.514   1.539  12.075  0.6496 -0.8099 -1.2668
13021TIP3    H260555   5.639   1.624  12.082 -0.3819  0.6166  1.0191
13022TIP3   OH260556   2.960   3.863  15.848  0.1883 -0.3899  0.4473
13022TIP3    H160557   3.038   3.818  15.881 -0.7289 -0.4645  2.6460
13022TIP3    H260558   2.932   3.919  15.920 -1.6968 -0.2443 -0.3558
13023TIP3   OH260559   2.735   2.279   6.080  0.1619  0.8998  0.1472
13023TIP3    H160560   2.763   2.336   6.009  1.0360 -1.8130 -1.8696
13023TIP3    H260561   2.800   2.292   6.149 -0.5309  3.3582  0.4293
13024TIP3   OH260562   4.392   6.480  12.673 -0.3525 -0.1951  0.5847
13024TIP3    H160563   4.341   6.546  12.626 -0.5350 -0.9391 -0.2888
13024TIP3    H260564   4.483   6.503  12.654 -0.3479 -2.4797 -3.2124
13025TIP3   OH260565   2.446   0.253  15.654  0.0285  0.1066  0.4842
13025TIP3    H160566   2.448   0.337  15.699 -2.6694  0.9076 -0.6815
13025TIP3    H260567   2.359   0.217  15.675 -0.1522 -0.8575 -1.6211
13026TIP3   OH260568   1.744   6.621  12.887 -0.4808 -0.0652 -0.3337
13026TIP3    H160569   1.780   6.709  12.906  1.6262 -1.1818  1.3858
13026TIP3    H260570   1.679   6.607  12.956 -0.2045 -0.1667 -0.0903
13027TIP3   OH260571   1.164   3.364  13.040 -0.4652  0.0207 -0.2527
13027TIP3    H160572   1.163   3.452  13.003  1.3396  0.1577 -0.0536
13027TIP3    H260573   1.079   3.355  13.083 -0.2893  2.0642  0.6352
13028TIP3   OH260574   0.419   4.759  15.747  0.0601  0.0456  0.1369
13028TIP3    H160575   0.385   4.803  15.825  2.4269 -1.0763  1.9187
13028TIP3    H260576   0.488   4.816  15.715  2.0668 -1.4549  1.5353
13029TIP3   OH260577   0.121   6.559  10.864 -0.7331  0.3700  0.4021
13029TIP3    H160578   0.154   6.620  10.930 -1.0642 -0.9780  1.8689
13029TIP3    H260579   0.084   6.486  10.914 -0.1345 -1.1704 -1.2735
13030TIP3   OH260580   2.351   6.591   3.971  0.1074  0.2402 -0.0997
13030TIP3    H160581   2.348   6.674   3.924 -1.0080 -0.0170 -0.5186
13030TIP3    H260582   2.264   6.554   3.959  0.8297 -1.3712 -0.5997
13031TIP3   OH260583   0.283   4.472   2.948  0.2919  0.0914  0.0572
13031TIP3    H160584   0.323   4.430   3.025 -0.1381  2.0975  1.4532
13031TIP3    H260585   0.198   4.430   2.939  1.4046 -2.1106 -1.1103
13032TIP3   OH260586   3.676   3.945   2.986  0.0789 -0.0466  0.6879
13032TIP3    H160587   3.679   3.994   3.069 -0.8534 -0.6206  1.0750
13032TIP3    H260588   3.666   3.854   3.013 -0.3946 -0.2216 -0.0646
13033TIP3   OH260589   2.339   5.632  11.786 -0.2326  0.2965 -0.0553
13033TIP3    H160590   2.316   5.539  11.791 -1.7302  0.6231 -0.3289
13033TIP3    H260591   2.336   5.662  11.877 -1.3067  0.4094 -0.1179
13034TIP3   OH260592   1.245   5.487   0.042 -0.3308 -0.1728 -0.1636
13034TIP3    H160593   1.327   5.514   0.082 -0.5780  0.2516  0.0643
13034TIP3    H260594   1.256   5.393   0.024 -0.9379 -0.8855  2.7287
13035TIP3   OH260595   4.324   3.478   1.263  0.1153  0.3241 -0.2267
13035TIP3    H160596   4.399   3.524   1.226 -1.7360  2.1028 -1.9885
13035TIP3    H260597   4.301   3.529   1.341  1.2451 -0.7781  0.8727
13036TIP3   OH260598   4.647   4.437   3.374 -0.0550  0.0226 -0.0968
13036TIP3    H160599   4.635   4.421   3.468 -1.0784  1.2461  0.0165
13036TIP3    H260600   4.712   4.507   3.370  1.7393 -1.6151 -0.4223
13037TIP3   OH260601   3.556   4.420  11.263 -0.8304 -0.1183 -0.3339
13037TIP3    H160602   3.636   4.403  11.214 -1.0990 -2.2041 -0.1575
13037TIP3    H260603   3.514   4.492  11.217  1.1372  1.0467 -0.4096
13038TIP3   OH260604   0.675   1.292   3.845  0.2316 -0.4317 -0.0781
13038TIP3    H160605   0.714   1.370   3.885  0.8784 -0.2658 -0.9944
13038TIP3    H260606   0.600   1.272   3.900  1.4617 -0.6008  1.6003
13039TIP3   OH260607   4.021   1.160  16.411 -0.0451 -0.5125  0.1093
13039TIP3    H160608   4.065   1.136  16.329  0.1124  0.4766 -0.1088
13039TIP3    H260609   3.988   1.249  16.395  0.3799 -0.1333  1.2743
13040TIP3   OH260610   4.476   3.010  12.988 -0.2001  0.2289 -0.2803
13040TIP3    H160611   4.399   3.033  13.039 -1.2684  1.4076 -2.2920
13040TIP3    H260612   4.549   3.016  13.049 -1.6466 -0.8891  1.6817
13041TIP3   OH260613   5.284   3.363  16.335  0.3880 -0.4548 -0.0680
13041TIP3    H160614   5.294   3.268  16.327  2.0657 -0.2162 -1.3706
13041TIP3    H260615   5.210   3.384  16.279 -1.1200 -1.1559  1.5860
13042TIP3   OH260616   5.575   3.597  14.992  0.3889  0.1634  0.0309
13042TIP3    H160617   5.662   3.634  14.978 -0.1977  1.7884  0.3637
13042TIP3    H260618   5.536   3.593  14.905  0.1806  1.1497  0.0605
13043TIP3   OH260619   3.413   5.431  14.727  0.5123 -0.2226  0.2207
13043TIP3    H160620   3.350   5.477  14.671 -0.3429 -0.5675  0.8812
13043TIP3    H260621   3.366   5.416  14.809  0.7776 -2.2170  0.0649
13044TIP3   OH260622   4.155   4.317   2.712 -0.1813  0.1356 -0.0800
13044TIP3    H160623   4.169   4.301   2.619  0.5229  0.0919  0.0267
13044TIP3    H260624   4.194   4.240   2.755 -0.0651  0.3874  0.2666
13045TIP3   OH260625   0.974   1.990  14.716 -0.9206  0.5720  0.0948
13045TIP3    H160626   1.006   2.073  14.751 -1.3721  0.4262  0.8759
13045TIP3    H260627   0.999   1.925  14.782 -0.6445  0.0996 -0.4707
13046TIP3   OH260628   3.878   0.700  12.139  0.5131  0.0902 -0.1676
13046TIP3    H160629   3.967   0.666  12.151 -0.0072 -0.8725  1.2473
13046TIP3    H260630   3.860   0.687  12.046  0.9896 -1.9848 -0.0386
13047TIP3   OH260631   2.247   2.112   1.964 -0.5184  0.5570  0.0193
13047TIP3    H160632   2.303   2.123   2.041 -0.9789  0.3691  0.3824
13047TIP3    H260633   2.211   2.024   1.973 -2.5309  1.4215  0.8992
13048TIP3   OH260634   1.481   1.079  11.698  0.0144 -0.3011 -0.0050
13048TIP3    H160635   1.552   1.054  11.757 -0.5643 -0.9064  0.4417
13048TIP3    H260636   1.424   1.134  11.752 -0.0892 -0.1777 -0.2404
13049TIP3   OH260637   0.234   6.440  10.663 -0.8840 -0.0627  0.0203
13049TIP3    H160638   0.221   6.348  10.688  0.1740 -0.0893  0.5448
13049TIP3    H260639   0.201   6.490  10.738  1.6999 -0.1297  1.3369
13050TIP3   OH260640   2.051   2.935   0.786  0.1932  1.0646  0.1220
13050TIP3    H160641   2.129   2.960   0.835  0.5841  1.0285 -0.4692
13050TIP3    H260642   2.085   2.899   0.704 -0.4217  0.2957  0.1963
13051TIP3   OH260643   5.139   6.721   3.141 -0.0443 -0.6246  0.2331
13051TIP3    H160644   5.156   6.787   3.207 -0.3274 -0.1131 -0.2023
13051TIP3    H260645   5.213   6.661   3.148 -0.6629 -1.2608  1.8207
13052TIP3   OH260646   1.532   6.562   1.683  0.4118  0.5060 -0.2294
13052TIP3    H160647   1.481   6.589   1.607  0.8243 -1.4614 -1.2820
13052TIP3    H260648   1.499   6.474   1.704  3.0261 -0.6920 -0.7017
13053TIP3   OH260649   4.232   5.875  14.906 -0.4341  0.3074  0.7815
13053TIP3    H160650   4.247   5.829  14.824 -1.8554 -0.0321  0.6857
13053TIP3    H260651   4.139   5.862  14.924  0.1151 -0.8768  3.1833
13054TIP3   OH260652   2.866   4.086  11.224  0.8777 -0.3437 -0.2250
13054TIP3    H160653   2.796   4.138  11.185  0.1265 -0.7591  0.5478
13054TIP3    H260654   2.939   4.094  11.162  0.6436  1.2559 -0.3403
13055TIP3   OH260655   5.940   4.224  12.382 -0.6462 -0.8890 -0.5810
13055TIP3    H160656   5.881   4.297  12.405 -1.1778 -0.2870 -3.4975
13055TIP3    H260657   5.883   4.147  12.384 -1.1399 -0.5717 -1.6095
13056TIP3   OH260658   2.721   6.433  15.114 -0.3847  0.9332 -0.9037
13056TIP3    H160659   2.691   6.368  15.177 -4.5088  2.9791 -0.4599
13056TIP3    H260660   2.668   6.416  15.036  0.6957  1.8921 -1.8793
13057TIP3   OH260661   1.258   6.519   1.765 -1.1151  0.4632 -0.2783
13057TIP3    H160662   1.205   6.443   1.789 -0.7713  0.3852  0.2451
13057TIP3    H260663   1.325   6.524   1.833 -1.3976  1.4976 -0.0617
13058TIP3   OH260664   4.557   0.169  15.124 -0.0307 -0.2310 -0.6403
13058TIP3    H160665   4.560   0.234  15.194 -0.7603  2.7277 -3.1501
13058TIP3    H260666   4.464   0.156  15.107  0.0914 -2.2816  0.0150
13059TIP3   OH260667   3.436   4.649   4.778 -0.2007 -0.1369  0.0917
13059TIP3    H160668   3.400   4.644   4.690 -1.5004 -1.9834  0.6601
13059TIP3    H260669   3.388   4.720   4.820 -0.1189  0.2460 -0.4607
13060TIP3   OH260670   3.480   0.409   2.363  0.4089  0.3516 -0.2692
13060TIP3    H160671   3.522   0.416   2.449 -1.5945 -0.0478  0.8025
13060TIP3    H260672   3.495   0.318   2.337  0.5153  0.3058 -0.0596
13061TIP3   OH260673   4.937   0.383  11.839 -0.7213  0.0771  0.0143
13061TIP3    H160674   4.887   0.320  11.890 -0.0191  0.2048  0.8793
13061TIP3    H260675   5.020   0.392  11.886 -1.1780  2.4016  0.5142
13062TIP3   OH260676   3.614   5.256   1.393 -0.0294  0.0003  0.0282
13062TIP3    H160677   3.547   5.320   1.417 -0.3546 -0.3911  0.1753
13062TIP3    H260678   3.694   5.308   1.382 -0.0059  0.2792  1.3523
13063TIP3   OH260679   2.195   6.539   5.072 -0.2479 -0.5428  0.1331
13063TIP3    H160680   2.231   6.625   5.051 -0.4081 -0.1126  1.5647
13063TIP3    H260681   2.180   6.499   4.986 -0.6602  1.0446 -0.5818
13064TIP3   OH260682   1.386   1.989  11.046  0.2009  0.2234  0.2639
13064TIP3    H160683   1.342   1.991  11.131 -0.0275 -0.7536  0.1788
13064TIP3    H260684   1.315   1.987  10.982  0.3226 -1.5031  0.1287
13065TIP3   OH260685   3.484   3.401  11.974  0.0551  0.7243  0.0791
13065TIP3    H160686   3.547   3.421  11.904  0.5390  0.6998  0.5019
13065TIP3    H260687   3.430   3.480  11.980  0.9367  1.3038  0.6564
13066TIP3   OH260688   4.048   2.802   1.099 -0.2668  0.0112  0.1406
13066TIP3    H160689   4.030   2.884   1.053  0.2842  0.2185  0.2781
13066TIP3    H260690   3.964   2.774   1.134 -0.1415  1.5768  1.8373
13067TIP3   OH260691   0.536   3.668   4.477 -0.0457 -0.2025  0.0784
13067TIP3    H160692   0.488   3.675   4.395  0.8538 -0.7813 -0.5150
13067TIP3    H260693   0.608   3.730   4.468  0.2260 -0.4832  0.3055
13068TIP3   OH260694   4.602   1.001   4.420  0.1355 -0.0649  0.0639
13068TIP3    H160695   4.541   1.026   4.490 -0.1242  0.4202 -0.3341
13068TIP3    H260696   4.548   0.996   4.341  0.2755 -1.4388  0.0455
13069TIP3   OH260697   6.836   1.961   3.945  0.0524  0.2358 -0.4273
13069TIP3    H160698   6.839   2.028   3.876  0.3966  1.5662  0.8211
13069TIP3    H260699   6.781   1.999   4.013 -0.7323 -1.2847 -0.1712
13070TIP3   OH260700   5.092   3.510  14.986 -0.3609 -0.5242 -0.4188
13070TIP3    H160701   5.136   3.437  15.029 -0.9379 -0.6722 -0.0671
13070TIP3    H260702   4.999   3.496  15.004 -0.4485  0.5819  0.0815
13071TIP3   OH260703   5.244   5.492  16.075  0.5051 -0.1790  0.1310
13071TIP3    H160704   5.277   5.576  16.107 -2.2804  1.0246  0.0773
13071TIP3    H260705   5.252   5.499  15.980  1.3710 -0.4914  0.1722
13072TIP3   OH260706   2.095   4.554  12.925  0.2528 -0.3112 -0.1652
13072TIP3    H160707   2.019   4.600  12.962  0.9021 -0.2032  1.0834
13072TIP3    H260708   2.092   4.468  12.966  0.0328 -0.7991 -1.1739
13073TIP3   OH260709   6.574   1.574  13.563 -0.4297 -0.0999  0.5736
13073TIP3    H160710   6.554   1.656  13.517 -2.6111 -0.4755  0.7153
13073TIP3    H260711   6.659   1.589  13.603 -0.6400  2.0156  0.3605
13074TIP3   OH260712   5.129   4.137  11.779 -0.6188  0.0598 -0.1511
13074TIP3    H160713   5.107   4.076  11.849  1.0524  0.3512  0.6876
13074TIP3    H260714   5.212   4.103  11.744 -1.0686  0.3217 -1.5202
13075TIP3   OH260715   0.098   4.646   2.383 -0.1538 -0.2911  0.1133
13075TIP3    H160716   0.149   4.674   2.459  0.6350  1.0385 -0.8628
13075TIP3    H260717   0.153   4.582   2.338  0.0212  0.0374 -0.1410
13076TIP3   OH260718   1.043   3.629   6.499  0.7457  0.1335  0.2936
13076TIP3    H160719   1.085   3.543   6.504 -0.6766 -0.6202 -0.1552
13076TIP3    H260720   1.107   3.690   6.535  1.5372 -1.2016  1.1970
13077TIP3   OH260721   3.749   3.817  14.277  0.1351  0.0975  0.5177
13077TIP3    H160722   3.747   3.913  14.278 -3.2680  0.1394  0.6571
13077TIP3    H260723   3.727   3.793  14.187 -1.1925 -0.4637  0.9567
13078TIP3   OH260724   6.503   4.141   4.055 -0.0776  0.4780  0.3374
13078TIP3    H160725   6.468   4.052   4.049  0.3777  0.3705 -1.0687
13078TIP3    H260726   6.434   4.197   4.020  0.9251  0.2966 -2.1333
13079TIP3   OH260727   4.838   3.405   1.406  0.1693 -0.5707 -0.2462
13079TIP3    H160728   4.810   3.486   1.448 -0.5970 -0.5204 -0.8270
13079TIP3    H260729   4.913   3.376   1.457 -0.8283 -0.6085  1.2539
13080TIP3   OH260730   2.129   0.674  11.025 -0.0053 -0.1735 -0.2489
13080TIP3    H160731   2.172   0.751  10.988 -0.2169 -0.1315 -0.4085
13080TIP3    H260732   2.040   0.677  10.990 -0.5487  0.4654  1.1006
13081TIP3   OH260733   1.005   0.230   5.800  0.2984  0.1542  0.8721
13081TIP3    H160734   1.046   0.173   5.734  1.2324  1.6505  0.1064
13081TIP3    H260735   1.061   0.223   5.877  1.1426  0.9875  0.3511
13082TIP3   OH260736   1.953   2.962   0.058 -0.6048 -0.0434 -0.4196
13082TIP3    H160737   2.002   3.037   0.025  1.5749 -0.4966  1.4934
13082TIP3    H260738   1.897   2.999   0.127  0.6130 -0.1241  0.6598
13083TIP3   OH260739   5.311   0.734  14.845  0.1661  0.2030 -0.6384
13083TIP3    H160740   5.342   0.662  14.790  0.9819 -0.3149  0.4580
13083TIP3    H260741   5.319   0.811  14.790  0.7459 -0.3320 -1.3218
13084TIP3   OH260742   1.237   4.076   2.390  0.0778 -0.0514 -0.0298
13084TIP3    H160743   1.189   4.155   2.417  0.0159 -0.6283  1.6291
13084TIP3    H260744   1.319   4.080   2.439 -0.7302 -1.9606  1.6191
13085TIP3   OH260745   5.069   3.166   0.667 -0.8935 -0.5386 -0.1083
13085TIP3    H160746   5.153   3.211   0.665 -0.8920 -0.3518  1.9357
13085TIP3    H260747   5.087   3.079   0.630  0.2017 -0.5110  0.3435
13086TIP3   OH260748   3.018   6.522   0.951 -0.2281 -0.0987 -0.4920
13086TIP3    H160749   3.072   6.500   0.876 -1.0352  1.4478 -1.6001
13086TIP3    H260750   2.937   6.558   0.913 -0.7946  0.4305  1.0982
13087TIP3   OH260751   1.035   2.314  14.106 -0.5387  0.2957 -0.1630
13087TIP3    H160752   1.026   2.285  14.197  0.2850  0.3774 -0.0442
13087TIP3    H260753   1.036   2.410  14.112  0.4275  0.2935 -0.1514
13088TIP3   OH260754   5.358   5.701  16.195 -0.5365 -0.3376 -0.1876
13088TIP3    H160755   5.392   5.705  16.284  0.4369 -0.9680 -0.5178
13088TIP3    H260756   5.386   5.783  16.155  1.0803 -1.0355 -0.5951
13089TIP3   OH260757   5.954   2.852  10.365 -0.3797 -0.2558 -0.1714
13089TIP3    H160758   6.005   2.828  10.443 -0.9128  1.7296  0.8614
13089TIP3    H260759   5.863   2.840  10.391 -0.5558 -2.4130 -1.5345
13090TIP3   OH260760   3.976   2.165   5.835  0.3818 -0.6443  0.3552
13090TIP3    H160761   4.061   2.206   5.825  0.2167 -0.7280 -2.2933
13090TIP3    H260762   3.990   2.074   5.808 -0.3033 -0.9814  1.0876
13091TIP3   OH260763   0.224   1.324  14.019  0.3821  0.0050 -0.0059
13091TIP3    H160764   0.277   1.332  14.098  0.1041 -0.1987  0.2035
13091TIP3    H260765   0.235   1.233  13.991  0.1771 -0.0267  0.0148
13092TIP3   OH260766   5.963   0.336   3.654 -0.3328 -0.2772 -0.2138
13092TIP3    H160767   5.895   0.268   3.654 -2.1959  1.3349  3.0568
13092TIP3    H260768   5.915   0.419   3.656  1.6076  0.9532  2.2467
13093TIP3   OH260769   6.458   0.380   2.483 -0.1694  0.2523  0.4828
13093TIP3    H160770   6.440   0.374   2.390  2.0393 -0.0105  0.0263
13093TIP3    H260771   6.464   0.289   2.513  1.8666  0.2707  0.2545
13094TIP3   OH260772   0.660   3.479  10.996  0.3006  0.0207  0.3729
13094TIP3    H160773   0.682   3.562  10.954  0.3519 -0.0661  0.2290
13094TIP3    H260774   0.699   3.485  11.083 -0.5846  0.5762  0.7441
13095TIP3   OH260775   2.569   5.583   1.113  0.5866  0.6634  0.5658
13095TIP3    H160776   2.600   5.495   1.131 -0.0978 -0.0991 -1.7240
13095TIP3    H260777   2.473   5.577   1.118  0.5067  1.1238 -0.1703
13096TIP3   OH260778   6.776   4.831  12.932 -0.7949 -0.2397  0.5547
13096TIP3    H160779   6.860   4.873  12.910 -1.4721  0.3067 -1.1991
13096TIP3    H260780   6.797   4.739  12.942 -0.1721 -0.3671 -1.4252
13097TIP3   OH260781   4.841   1.783   2.842  0.7228 -0.6405  0.2357
13097TIP3    H160782   4.920   1.836   2.846  0.6491 -0.5676  0.7484
13097TIP3    H260783   4.799   1.809   2.760  0.8261 -0.1051  0.3477
13098TIP3   OH260784   2.720   6.757   5.401 -0.3559  0.6141 -0.5284
13098TIP3    H160785   2.792   6.784   5.344  0.5492 -0.7994 -0.0941
13098TIP3    H260786   2.709   6.830   5.462  1.8847  0.1492  0.5030
13099TIP3   OH260787   5.289   2.078   3.066  0.1224  0.7047  0.2587
13099TIP3    H160788   5.199   2.071   3.034  0.6099  0.1357 -1.0739
13099TIP3    H260789   5.280   2.091   3.160 -1.3933  2.6289 -0.0757
13100TIP3   OH260790   2.589   3.142  14.810  0.5291 -0.2889 -0.4312
13100TIP3    H160791   2.613   3.192  14.732 -0.5104 -0.3607 -0.8070
13100TIP3    H260792   2.598   3.204  14.882 -1.8289  0.8398 -1.0054
13101TIP3   OH260793   6.199   6.397  14.534 -0.5095  0.2571 -0.5447
13101TIP3    H160794   6.115   6.429  14.501 -0.2705  1.4801 -0.0213
13101TIP3    H260795   6.224   6.459  14.602  0.7560 -0.1670 -0.5819
13102TIP3   OH260796   4.694   2.567  13.551 -0.3656 -0.4066 -0.0747
13102TIP3    H160797   4.787   2.550  13.535 -1.2176 -2.9775 -3.8208
13102TIP3    H260798   4.679   2.654  13.515  0.4672 -0.3062 -0.1984
13103TIP3   OH260799   3.333   6.725   1.309 -0.0616 -0.2405  0.2940
13103TIP3    H160800   3.250   6.698   1.269 -0.7533  0.4719  1.1979
13103TIP3    H260801   3.372   6.784   1.244  0.0662 -1.0799 -0.4164
13104TIP3   OH260802   1.960   5.409  15.000 -0.4580  0.4105 -0.3809
13104TIP3    H160803   1.997   5.494  14.975 -0.2554  0.2610 -0.5938
13104TIP3    H260804   1.920   5.425  15.085 -0.3253  0.6944 -0.3694
13105TIP3   OH260805   4.614   3.996   2.818  0.4928 -0.1664  0.4712
13105TIP3    H160806   4.631   3.921   2.762 -1.8732  0.7170 -1.6253
13105TIP3    H260807   4.663   4.068   2.777 -1.6054  0.5850 -0.8795
13106TIP3   OH260808   3.386   4.870  11.778  0.5544 -0.4770  0.0197
13106TIP3    H160809   3.461   4.810  11.784  1.5383  0.7418  0.5028
13106TIP3    H260810   3.397   4.913  11.693  1.0727  0.4991  0.5539
13107TIP3   OH260811   6.037   2.742  16.498 -0.1560 -0.8064  0.2286
13107TIP3    H160812   6.099   2.792  16.445  0.8545  0.3247  2.3431
13107TIP3    H260813   6.091   2.675  16.540 -0.7215 -0.9993  0.6527
13108TIP3   OH260814   4.954   2.377   0.261 -0.6893 -0.0436  0.1377
13108TIP3    H160815   4.983   2.404   0.173 -0.3448 -1.8653 -0.3499
13108TIP3    H260816   4.933   2.284   0.252  1.4383 -0.8623  2.4669
13109TIP3   OH260817   5.410   0.507  14.693 -0.2126  0.3315 -0.2954
13109TIP3    H160818   5.335   0.447  14.693 -0.1743  0.2845  0.0825
13109TIP3    H260819   5.485   0.451  14.715  0.0264  0.2629 -1.2419
13110TIP3   OH260820   0.633   1.309   3.065 -0.6811  0.4747 -0.0620
13110TIP3    H160821   0.722   1.274   3.058  0.0959  2.3294  0.0990
13110TIP3    H260822   0.576   1.233   3.052  0.9119 -1.4752  3.1878
13111TIP3   OH260823   3.924   2.327   6.219 -0.3145  0.3454  0.2603
13111TIP3    H160824   3.829   2.321   6.211 -0.3215  1.4128 -0.8329
13111TIP3    H260825   3.958   2.268   6.152 -0.2087  0.1506  0.4847
13112TIP3   OH260826   0.645   2.675   1.421  0.5686 -0.0231 -0.4517
13112TIP3    H160827   0.616   2.584   1.431 -0.9387  0.4409 -0.3462
13112TIP3    H260828   0.599   2.706   1.343  0.2809  0.9537  0.1009
13113TIP3   OH260829   5.021   5.668  14.114  0.3947  0.0756  0.7972
13113TIP3    H160830   4.972   5.595  14.152 -1.0535  1.2316  1.2464
13113TIP3    H260831   5.003   5.662  14.020 -1.5294  1.0834  1.0577
13114TIP3   OH260832   5.365   0.139  10.836 -0.7810 -0.0024 -0.6301
13114TIP3    H160833   5.346   0.231  10.853 -0.0267 -0.0103  0.3090
13114TIP3    H260834   5.337   0.126  10.745 -0.1599  1.3522 -1.0461
13115TIP3   OH260835   6.578   6.460  15.639  0.3253 -0.1843 -0.0874
13115TIP3    H160836   6.664   6.469  15.596  0.4484 -0.4580  0.0925
13115TIP3    H260837   6.560   6.366  15.635  1.3422 -0.5537  2.3456
13116TIP3   OH260838   3.298   0.850  15.878 -0.0943  0.5086 -0.3897
13116TIP3    H160839   3.380   0.826  15.834 -0.0338 -0.6195  0.3014
13116TIP3    H260840   3.284   0.941  15.853  1.1008  0.5704 -0.9411
13117TIP3   OH260841   5.048   4.706  15.812 -0.1812 -0.5334 -0.1979
13117TIP3    H160842   5.008   4.675  15.731  1.4808  0.5877 -1.5440
13117TIP3    H260843   4.988   4.774  15.844 -1.0377 -1.2434 -0.2800
13118TIP3   OH260844   4.844   3.462   3.216 -0.0073  0.1767 -0.2393
13118TIP3    H160845   4.896   3.511   3.152  0.2381 -0.7353 -0.7511
13118TIP3    H260846   4.768   3.518   3.233 -1.0111 -0.3178 -2.6947
13119TIP3   OH260847   1.822   1.396   4.486  0.2584  0.2710 -0.5595
13119TIP3    H160848   1.787   1.436   4.406 -3.3306  0.3329  0.8619
13119TIP3    H260849   1.829   1.468   4.548 -1.6967 -0.4221  0.5734
13120TIP3   OH260850   0.695   6.012  12.385 -0.2019  0.5985 -0.3966
13120TIP3    H160851   0.693   6.102  12.352 -1.2510  1.1009  0.9108
13120TIP3    H260852   0.605   5.982  12.376  0.3048 -0.6492 -1.5915
13121TIP3   OH260853   5.911   0.572   1.707 -0.4212 -0.3482  0.2866
13121TIP3    H160854   5.977   0.537   1.648  0.0443  0.4981  0.2940
13121TIP3    H260855   5.833   0.520   1.689  0.7256 -2.7252  1.6522
13122TIP3   OH260856   4.112   6.506  13.332  0.2984 -0.2014  0.4046
13122TIP3    H160857   4.176   6.531  13.265 -0.4660  1.2835  0.1799
13122TIP3    H260858   4.032   6.488  13.283 -0.1586  0.5011  0.8699
13123TIP3   OH260859   4.670   2.537   0.751  0.0178 -0.8088 -0.4472
13123TIP3    H160860   4.655   2.443   0.762 -1.7836 -0.7072 -1.6292
13123TIP3    H260861   4.600   2.579   0.801 -0.0812 -0.1422 -1.1155
13124TIP3   OH260862   5.339   3.165   5.732 -0.0271  0.1988  0.4039
13124TIP3    H160863   5.314   3.132   5.818  0.9650 -0.8792  0.3036
13124TIP3    H260864   5.378   3.251   5.748 -1.1142  0.6299  0.8546
13125TIP3   OH260865   3.298   0.579  16.863 -0.3395 -0.3054  0.2499
13125TIP3    H160866   3.220   0.552  16.911 -0.0205  0.7161  1.4062
13125TIP3    H260867   3.333   0.499  16.826 -0.3736 -1.2246  2.0955
13126TIP3   OH260868   6.225   4.210  12.436  0.1501 -0.2977  0.2630
13126TIP3    H160869   6.233   4.299  12.469 -0.3772 -0.0800 -0.1640
13126TIP3    H260870   6.131   4.198  12.422 -0.0574 -1.6965  2.3734
13127TIP3   OH260871   4.962   6.422   4.075 -0.1267  0.0526  0.0590
13127TIP3    H160872   4.925   6.508   4.097  0.4279  0.2787  0.1079
13127TIP3    H260873   5.051   6.425   4.108  0.0503 -0.3693 -0.3728
13128TIP3   OH260874   5.738   5.412   0.278  0.0262  0.4241  0.0289
13128TIP3    H160875   5.676   5.339   0.278 -0.4899  0.8582 -0.1192
13128TIP3    H260876   5.802   5.389   0.345  1.5576 -1.5722 -1.9748
13129TIP3   OH260877   4.251   5.480  11.936  0.0058  0.0565 -0.2281
13129TIP3    H160878   4.259   5.394  11.895 -0.2577 -0.3096  0.4650
13129TIP3    H260879   4.164   5.480  11.976  0.4165  0.2279  0.6973
13130TIP3   OH260880   4.867   5.813  10.709 -0.3125  0.0972  0.1358
13130TIP3    H160881   4.863   5.730  10.662 -2.1622  0.4818 -0.4733
13130TIP3    H260882   4.819   5.874  10.653 -2.9239  0.4962  2.6190
13131TIP3   OH260883   2.180   1.190   6.447 -0.4114 -0.1050 -0.4144
13131TIP3    H160884   2.251   1.251   6.468 -0.9126  0.1031  0.7644
13131TIP3    H260885   2.225   1.112   6.415  0.4198 -0.3208  1.1757
13132TIP3   OH260886   4.797   4.724  14.663 -0.7602 -0.3086 -0.1347
13132TIP3    H160887   4.780   4.648  14.608 -0.1969  0.2580 -1.1144
13132TIP3    H260888   4.889   4.716  14.688 -0.1871  0.9143 -1.6763
13133TIP3   OH260889   0.264   0.784  15.738  0.1114 -0.5658  0.0392
13133TIP3    H160890   0.191   0.846  15.737  0.2581 -0.3921  0.2909
13133TIP3    H260891   0.316   0.808  15.814  0.0078 -1.1794  0.3175
13134TIP3   OH260892   0.879   4.917   1.922 -0.0789 -0.4662  0.4935
13134TIP3    H160893   0.870   4.838   1.974 -1.0008 -0.7264 -0.0349
13134TIP3    H260894   0.789   4.951   1.914 -0.0180 -0.5779 -1.1055
13135TIP3   OH260895   6.060   6.460   2.844 -0.1191  0.0389 -0.1525
13135TIP3    H160896   6.137   6.457   2.902 -0.0235  0.7990 -0.2228
13135TIP3    H260897   6.003   6.391   2.877  0.0014  0.3539  0.7619
13136TIP3   OH260898   3.669   6.781  11.279  0.4363 -0.0308 -0.0395
13136TIP3    H160899   3.738   6.847  11.286  0.1439  0.6135 -2.3381
13136TIP3    H260900   3.610   6.815  11.212 -2.5552 -0.2237  2.2682
13137TIP3   OH260901   6.694   1.248   4.482 -0.0786 -1.2218  0.8846
13137TIP3    H160902   6.650   1.235   4.566  0.9342 -1.2960  1.4244
13137TIP3    H260903   6.787   1.257   4.505  0.0121  0.5658 -0.0623
13138TIP3   OH260904   5.147   3.303  10.946 -0.3344  0.1255  0.6448
13138TIP3    H160905   5.131   3.209  10.939 -1.8830  0.4146 -0.2703
13138TIP3    H260906   5.186   3.328  10.862 -1.8910  0.6133  0.0291
13139TIP3   OH260907   4.312   3.270  16.226  0.1962  0.4504  0.1032
13139TIP3    H160908   4.343   3.243  16.312  0.2653  1.4169  0.3973
13139TIP3    H260909   4.337   3.199  16.167  0.9468  0.1962  0.7214
13140TIP3   OH260910   3.854   1.264  13.531  0.1662 -0.1936  0.3453
13140TIP3    H160911   3.849   1.179  13.487 -5.0966 -0.1810  0.2101
13140TIP3    H260912   3.856   1.243  13.624  2.0008 -0.3380  0.3024
13141TIP3   OH260913   3.501   2.789   3.905  0.5437  0.0953 -0.0092
13141TIP3    H160914   3.442   2.749   3.969  1.4568 -0.6072  0.4072
13141TIP3    H260915   3.560   2.719   3.879 -0.0281  0.2664 -1.9218
13142TIP3   OH260916   3.475   0.851   5.075  0.6695  0.3501  0.3875
13142TIP3    H160917   3.465   0.768   5.027  0.2292  1.0371 -0.7617
13142TIP3    H260918   3.558   0.842   5.121  1.4611 -0.1163 -1.0583
13143TIP3   OH260919   6.008   1.268  14.798 -0.3013  0.3155  0.0176
13143TIP3    H160920   5.960   1.220  14.866  0.2090  1.3253  1.1299
13143TIP3    H260921   5.960   1.350  14.790 -0.4925  0.1136 -1.0383
13144TIP3   OH260922   5.247   4.070   3.467 -0.2238  0.2451  0.0548
13144TIP3    H160923   5.179   4.057   3.532 -2.2632  2.1783 -1.5288
13144TIP3    H260924   5.206   4.045   3.384  0.6053  2.4029 -1.0799
13145TIP3   OH260925   1.215   5.843  12.493  0.4303  0.1075 -0.5651
13145TIP3    H160926   1.161   5.872  12.420  0.5312  1.6008 -0.0900
13145TIP3    H260927   1.305   5.855  12.463  0.4834  1.6220  0.0792
13146TIP3   OH260928   4.937   2.465  10.740  0.2089  0.1178  0.5592
13146TIP3    H160929   5.031   2.469  10.724  0.0398 -1.3417 -1.0293
13146TIP3    H260930   4.899   2.440  10.656 -1.4617 -0.7256  1.5110
13147TIP3   OH260931   1.175   3.861   1.739  0.3616  0.4531 -0.0081
13147TIP3    H160932   1.140   3.904   1.817 -1.0354 -1.6602  0.6032
13147TIP3    H260933   1.256   3.818   1.769 -0.8687 -1.4861  0.6911
13148TIP3   OH260934   5.872   5.712  12.671  0.2634 -0.4123 -0.1584
13148TIP3    H160935   5.822   5.721  12.590 -1.0430  2.0575  0.8056
13148TIP3    H260936   5.833   5.637  12.716  1.6248 -2.4178 -2.1419
13149TIP3   OH260937   2.566   5.088   0.283 -0.0826  0.5136  0.5822
13149TIP3    H160938   2.563   5.145   0.360 -1.6617  2.1916 -0.6403
13149TIP3    H260939   2.581   5.147   0.209 -0.6529 -0.7824 -0.6288
13150TIP3   OH260940   2.902   5.690  13.498 -0.6057  0.1048 -0.3105
13150TIP3    H160941   2.912   5.711  13.591  1.9859  0.7965 -0.6632
13150TIP3    H260942   2.895   5.595  13.495  0.8366 -0.0580  0.5453
13151TIP3   OH260943   0.907   6.136   5.960  0.4450  0.0241  0.2885
13151TIP3    H160944   0.977   6.074   5.982 -0.8776 -1.2283  1.1886
13151TIP3    H260945   0.950   6.203   5.907  2.3007 -0.7280  0.7497
13152TIP3   OH260946   3.908   5.268  14.696  0.4234 -0.1418  0.2681
13152TIP3    H160947   3.865   5.205  14.754  0.7979 -0.8433 -0.2010
13152TIP3    H260948   4.001   5.249  14.704  0.5538  0.4483  0.2181
13153TIP3   OH260949   4.060   1.573  13.170  0.3746  0.5041  0.3306
13153TIP3    H160950   4.053   1.517  13.247 -0.9802 -0.4165 -0.4211
13153TIP3    H260951   3.978   1.623  13.169  0.0958  0.0564 -0.8345
13154TIP3   OH260952   1.054   6.269  14.288  0.1879 -0.0093  0.0146
13154TIP3    H160953   1.029   6.306  14.373  0.8544 -0.1721  0.2949
13154TIP3    H260954   0.972   6.242  14.248 -0.1871  0.5782  0.3718
13155TIP3   OH260955   1.635   5.418  10.864  0.1747 -0.4859 -0.6973
13155TIP3    H160956   1.686   5.499  10.867 -1.3152  0.4618  0.8057
13155TIP3    H260957   1.600   5.415  10.776 -2.0910  2.1027 -0.0050
13156TIP3   OH260958   4.501   0.845   3.269 -0.3889  0.1536  0.0359
13156TIP3    H160959   4.528   0.917   3.213  2.6542 -0.1367  0.9188
13156TIP3    H260960   4.466   0.887   3.347  0.5825  0.7166  0.1884
13157TIP3   OH260961   1.214   5.411  14.753 -0.4151 -0.6324  0.0801
13157TIP3    H160962   1.300   5.380  14.727 -0.0255 -1.3498  2.0073
13157TIP3    H260963   1.154   5.341  14.726  0.0781 -1.7288  1.6587
13158TIP3   OH260964   5.125   3.729  11.052  0.7237 -0.0859 -0.2439
13158TIP3    H160965   5.111   3.775  10.969 -0.8021 -0.6009 -0.3026
13158TIP3    H260966   5.183   3.786  11.102 -1.0028  1.8746 -0.3605
13159TIP3   OH260967   6.757   6.085   6.288  0.6725 -0.5916 -0.4775
13159TIP3    H160968   6.723   6.018   6.347  0.5588 -0.5099 -0.4517
13159TIP3    H260969   6.755   6.166   6.340 -0.8998 -0.2041 -1.0970
13160TIP3   OH260970   2.862   0.270  10.941 -0.8631 -0.6335 -0.0511
13160TIP3    H160971   2.829   0.181  10.960 -1.7074  0.0062  1.7518
13160TIP3    H260972   2.799   0.328  10.984  0.5732  0.7884  0.2231
13161TIP3   OH260973   2.902   1.500   4.757  0.2770  0.4885  0.5178
13161TIP3    H160974   2.949   1.426   4.796  1.1495  1.7652  1.9550
13161TIP3    H260975   2.809   1.478   4.769  0.5301  0.2309  2.1239
13162TIP3   OH260976   6.371   3.668   3.065 -0.7501  0.4687  0.3658
13162TIP3    H160977   6.455   3.690   3.104 -0.8072  1.9765 -0.3165
13162TIP3    H260978   6.307   3.685   3.134 -0.5824  0.2433  0.5769
13163TIP3   OH260979   5.388   3.891  14.394 -0.2547  0.8418 -0.1554
13163TIP3    H160980   5.310   3.924  14.440  0.3764  0.6363  1.1205
13163TIP3    H260981   5.366   3.801  14.372 -0.6967  1.0472 -0.5812
13164TIP3   OH260982   5.527   5.812  13.791  0.0852 -0.4690  0.1907
13164TIP3    H160983   5.461   5.880  13.773  0.4330 -0.0376  0.5106
13164TIP3    H260984   5.571   5.843  13.870 -0.0802 -1.3206  0.6277
13165TIP3   OH260985   3.129   1.133   4.079  0.0829 -0.6846  0.5608
13165TIP3    H160986   3.205   1.086   4.113  1.0431 -0.1030 -0.7257
13165TIP3    H260987   3.087   1.070   4.020 -0.2899 -0.9023  1.0463
13166TIP3   OH260988   0.937   5.965   1.605 -0.2446 -0.5326  0.0841
13166TIP3    H160989   0.978   5.879   1.595 -1.6977 -1.2293 -0.2087
13166TIP3    H260990   0.970   6.017   1.532 -2.4254 -2.1611 -2.2669
13167TIP3   OH260991   6.230   6.660   4.954  0.4729 -0.8993 -0.0203
13167TIP3    H160992   6.229   6.614   4.870  0.1628 -0.5681 -0.2003
13167TIP3    H260993   6.288   6.608   5.009 -0.1628 -1.7125 -0.1032
13168TIP3   OH260994   5.798   2.790  12.547  0.4940 -0.9757 -0.0766
13168TIP3    H160995   5.731   2.732  12.510 -0.3986  0.2307 -0.4222
13168TIP3    H260996   5.812   2.757  12.636 -2.0341 -0.1279  0.7221
13169TIP3   OH260997   4.873   0.381  15.759  0.1000 -0.1643  0.5493
13169TIP3    H160998   4.891   0.365  15.852 -1.5959  0.1759  0.9571
13169TIP3    H260999   4.784   0.414  15.757 -0.2159 -1.0290 -1.3001
13170TIP3   OH261000   4.008   1.976  11.184  0.0696 -0.5578  0.1231
13170TIP3    H161001   3.934   1.944  11.236 -0.4937 -0.4290 -0.5927
13170TIP3    H261002   4.034   2.057  11.229 -1.4425  0.4279 -0.6563
13171TIP3   OH261003   5.312   4.697  16.492 -0.5387 -0.4860 -0.4156
13171TIP3    H161004   5.383   4.709  16.555 -1.9486  0.1383  1.1189
13171TIP3    H261005   5.279   4.785  16.475  0.4875 -0.5116 -2.9195
13172TIP3   OH261006   6.849   5.445   2.256 -0.3981  0.7603  0.0928
13172TIP3    H161007   6.795   5.449   2.176 -0.2503 -0.9196 -0.1217
13172TIP3    H261008   6.927   5.396   2.229  0.3336  1.4551  0.9128
13173TIP3   OH261009   0.997   6.606   5.204  0.0184  0.1017  0.0376
13173TIP3    H161010   0.903   6.618   5.220 -0.8055 -0.1371 -3.6674
13173TIP3    H261011   1.037   6.688   5.235 -1.1590 -0.2154  2.6618
13174TIP3   OH261012   1.236   3.479  16.890 -0.7037 -0.4579 -0.0306
13174TIP3    H161013   1.169   3.543  16.867 -0.3147  0.4284  1.1667
13174TIP3    H261014   1.305   3.492  16.825 -0.8750 -0.0312 -0.1338
13175TIP3   OH261015   1.310   2.072   4.816  0.1746 -0.2271  0.2272
13175TIP3    H161016   1.289   1.988   4.775 -1.0355 -0.3244  0.9873
13175TIP3    H261017   1.284   2.061   4.907 -0.3490  1.0833  0.2533
13176TIP3   OH261018   5.596   2.897  15.881 -0.0649  0.2225  0.0829
13176TIP3    H161019   5.573   2.950  15.957  2.5010  0.4511  0.7714
13176TIP3    H261020   5.679   2.932  15.851 -0.1675 -0.9942 -1.7991
13177TIP3   OH261021   4.342   1.064  14.709  0.4991  0.0010  0.4586
13177TIP3    H161022   4.296   1.058  14.626  0.1327 -1.4727  0.7390
13177TIP3    H261023   4.313   1.147  14.747 -0.6471 -0.1241 -0.1194
13178TIP3   OH261024   2.993   4.623  16.666  0.3886  0.0870  0.2954
13178TIP3    H161025   2.942   4.690  16.711  0.1758 -0.6797  1.2319
13178TIP3    H261026   2.988   4.546  16.724  1.7351 -0.3223 -0.0937
13179TIP3   OH261027   6.211   0.261   5.045 -0.1689  0.6303  0.2170
13179TIP3    H161028   6.176   0.345   5.016 -0.7593  0.0597 -0.7763
13179TIP3    H261029   6.295   0.282   5.086  1.3320  1.3688 -2.9750
13180TIP3   OH261030   1.970   0.210  16.124 -0.4042 -0.2615 -0.3820
13180TIP3    H161031   1.973   0.276  16.194 -0.3873 -1.3330  0.6485
13180TIP3    H261032   2.023   0.248  16.054  1.9228 -0.3183  1.2354
13181TIP3   OH261033   4.110   3.199   3.267  0.5028 -0.2821 -0.0949
13181TIP3    H161034   4.046   3.193   3.196 -1.4847 -0.2346  1.5817
13181TIP3    H261035   4.057   3.219   3.345  2.5689 -0.3600  1.4063
13182TIP3   OH261036   3.919   0.721   3.448  0.6191 -0.0432  0.6985
13182TIP3    H161037   3.891   0.753   3.362  1.0971  1.4361  1.0681
13182TIP3    H261038   3.874   0.779   3.510  2.2025  0.4972  1.3716
13183TIP3   OH261039   4.598   4.826   1.383  0.3659 -0.5250 -0.0795
13183TIP3    H161040   4.674   4.807   1.328  0.9298  0.6351  0.2589
13183TIP3    H261041   4.635   4.856   1.466 -0.4506  0.3143 -0.0037
13184TIP3   OH261042   2.881   0.035  12.372  0.2475  0.2667  0.4834
13184TIP3    H161043   2.939   0.062  12.442  1.6343 -1.9120  0.2628
13184TIP3    H261044   2.878  -0.060  12.378  0.8933 -0.0876 -2.7352
13185TIP3   OH261045   1.427   1.119  12.989  0.0751  0.0197  0.0112
13185TIP3    H161046   1.399   1.050  12.930  1.9014 -1.8815  1.2426
13185TIP3    H261047   1.516   1.140  12.961  0.8678 -0.7046  1.8417
13186TIP3   OH261048   2.124   1.402  12.479  0.0446  0.0423 -0.1940
13186TIP3    H161049   2.159   1.469  12.421  0.1855  1.1350  1.1349
13186TIP3    H261050   2.185   1.396  12.552 -0.3451 -1.0177  0.0800
13187TIP3   OH261051   1.280   2.684   1.766 -0.5208 -0.3572  0.5309
13187TIP3    H161052   1.335   2.690   1.844 -1.9450  1.7095  1.4479
13187TIP3    H261053   1.229   2.604   1.779  1.6601 -1.9309 -0.0150
13188TIP3   OH261054   0.579   1.383  12.679 -0.6170 -0.1413 -0.3863
13188TIP3    H161055   0.581   1.468  12.724 -2.8570 -0.5426  0.5920
13188TIP3    H261056   0.645   1.392  12.610 -0.5882  2.3026 -0.1566
13189TIP3   OH261057   0.851   1.005  13.915  0.4055  0.2149  0.3779
13189TIP3    H161058   0.916   1.069  13.885 -1.0434  0.8062 -1.7508
13189TIP3    H261059   0.878   0.923  13.875  0.3668  0.2547  0.2691
13190TIP3   OH261060   0.907   3.003  14.989  0.3806 -0.3412  0.1450
13190TIP3    H161061   1.002   2.996  14.996  0.3634 -1.6355 -0.4944
13190TIP3    H261062   0.876   2.990  15.079  0.8400  1.4823  0.5959
13191TIP3   OH261063   0.775   3.380   1.955 -0.1269  0.3939  0.4069
13191TIP3    H161064   0.840   3.450   1.955 -0.2250  0.4847  0.2534
13191TIP3    H261065   0.691   3.425   1.959 -0.1790  0.2725  0.7148
13192TIP3   OH261066   2.579   3.160  14.421 -0.0173 -0.2330  0.0988
13192TIP3    H161067   2.629   3.224  14.471  2.1789 -0.4656 -1.6805
13192TIP3    H261068   2.611   3.075  14.451 -0.3559 -0.4238 -0.0680
13193TIP3   OH261069   1.176   2.719  16.651  0.4282  0.2444 -0.2335
13193TIP3    H161070   1.114   2.687  16.716  0.8179 -3.3945 -1.3861
13193TIP3    H261071   1.159   2.813  16.644 -3.0695 -0.1353  1.3972
13194TIP3   OH261072   6.830   0.399   4.405  0.0182  0.1340 -0.0730
13194TIP3    H161073   6.788   0.342   4.469 -0.3110 -0.1489 -0.5361
13194TIP3    H261074   6.814   0.357   4.321 -0.1565  0.8669 -0.4166
13195TIP3   OH261075   5.284   2.648   3.704 -0.4616 -0.5263 -0.4444
13195TIP3    H161076   5.370   2.654   3.743 -0.7486 -1.1325  0.2924
13195TIP3    H261077   5.300   2.652   3.609  0.4686 -1.7369 -0.3604
13196TIP3   OH261078   5.711   3.878   5.227  0.5351 -0.2349  0.1070
13196TIP3    H161079   5.646   3.904   5.293 -0.8650 -0.0963 -1.2641
13196TIP3    H261080   5.796   3.890   5.271 -0.2728  1.3565  1.3536
13197TIP3   OH261081   3.968   2.811   5.557  0.0097  0.3802 -0.7773
13197TIP3    H161082   3.933   2.896   5.587  0.4651  0.1815  0.3615
13197TIP3    H261083   3.918   2.746   5.607  1.1720  0.0593  0.0102
13198TIP3   OH261084   1.267   0.243   2.859 -0.3412 -0.3195  0.1422
13198TIP3    H161085   1.352   0.204   2.836  0.3135  0.5452  0.9920
13198TIP3    H261086   1.251   0.308   2.790 -0.7505 -1.0676 -0.4917
13199TIP3   OH261087   0.978   4.836   1.314 -0.1338 -0.1122  0.0011
13199TIP3    H161088   0.941   4.813   1.400 -2.9860  0.8064 -0.8523
13199TIP3    H261089   0.914   4.802   1.251 -0.7742  3.4398 -1.5255
13200TIP3   OH261090   5.488   1.329   1.373 -0.3473  0.0036  0.0832
13200TIP3    H161091   5.483   1.281   1.291  0.5165  0.5530 -0.3099
13200TIP3    H261092   5.579   1.360   1.377 -0.4602  0.2420  1.0958
13201TIP3   OH261093   3.078   4.374   5.459 -0.3935  0.4559  0.3815
13201TIP3    H161094   3.011   4.364   5.526 -0.2755 -2.1733  0.2051
13201TIP3    H261095   3.068   4.297   5.403  3.1278 -0.4353  0.7260
13202TIP3   OH261096   4.400   4.205  13.952 -0.0682 -0.0909  0.1343
13202TIP3    H161097   4.492   4.227  13.965  1.1443 -3.2897 -1.7077
13202TIP3    H261098   4.399   4.109  13.944 -3.5199 -0.1620 -0.2824
13203TIP3   OH261099   1.965   6.797  11.525  0.3632  0.6384 -0.2297
13203TIP3    H161100   1.906   6.792  11.449 -0.0957 -0.0698  0.1593
13203TIP3    H261101   1.919   6.750  11.594  0.0479  2.6378  0.9895
13204TIP3   OH261102   5.633   5.744   2.200  0.1581  0.1071 -0.0561
13204TIP3    H161103   5.718   5.763   2.240 -0.3608  0.4979  0.8930
13204TIP3    H261104   5.608   5.660   2.236 -0.6198  0.7679  1.0004
13205TIP3   OH261105   6.863   2.762  12.496  0.0708  0.3920 -0.1953
13205TIP3    H161106   6.950   2.752  12.534 -0.1035 -0.5686 -0.0222
13205TIP3    H261107   6.803   2.729  12.563 -0.3678  0.3581 -0.5980
13206TIP3   OH261108   4.208   6.177   0.336  0.3969  0.6150  0.0941
13206TIP3    H161109   4.172   6.234   0.404 -1.0661 -0.5703  0.3687
13206TIP3    H261110   4.136   6.164   0.275  0.7998 -0.6504 -0.1465
13207TIP3   OH261111   5.605   1.532   3.073 -0.5286  0.0470 -0.8229
13207TIP3    H161112   5.612   1.470   3.146 -1.4105  0.1921 -0.6100
13207TIP3    H261113   5.583   1.478   2.998 -2.1256  0.1761 -0.4747
13208TIP3   OH261114   4.740   5.718  11.781  0.2811  0.2454  0.6685
13208TIP3    H161115   4.803   5.721  11.853  0.3918  1.9342  0.5282
13208TIP3    H261116   4.674   5.783  11.803 -0.8034 -0.6842  0.2340
13209TIP3   OH261117   0.100   6.056   2.931  0.3569 -0.1985  0.4261
13209TIP3    H161118   0.025   6.031   2.878 -0.0500  0.7755  0.5305
13209TIP3    H261119   0.173   6.007   2.893 -0.1316 -0.3640 -0.3264
13210TIP3   OH261120   0.223   6.319  11.925  0.0417 -0.5615  0.0410
13210TIP3    H161121   0.200   6.334  12.017  2.1967  0.1211  0.5274
13210TIP3    H261122   0.318   6.312  11.926  0.0558 -1.1074 -2.0871
13211TIP3   OH261123   1.069   0.722   0.750 -0.8067  0.8670  0.1071
13211TIP3    H161124   1.129   0.796   0.763 -0.3831  0.7947 -1.3337
13211TIP3    H261125   1.055   0.688   0.839  0.7737  1.2795  0.5479
13212TIP3   OH261126   2.589   5.632   2.884  0.0366  0.6492 -0.7117
13212TIP3    H161127   2.520   5.570   2.858 -1.6868  1.9553  0.5594
13212TIP3    H261128   2.593   5.695   2.812  0.1060  0.4151 -0.9146
13213TIP3   OH261129   0.324   3.901  12.310  0.2051  0.5319  0.4400
13213TIP3    H161130   0.376   3.962  12.257 -0.9517  0.3300 -0.9777
13213TIP3    H261131   0.279   3.847  12.246  0.2025 -0.9751  1.6725
13214TIP3   OH261132   0.124   5.812   1.783  0.0909 -0.0075 -0.4441
13214TIP3    H161133   0.197   5.777   1.833 -0.0945  0.8398  0.4477
13214TIP3    H261134   0.163   5.847   1.704  0.8162  1.3765  0.4884
13215TIP3   OH261135   2.740   1.241   5.614 -0.0650 -0.1485 -0.0873
13215TIP3    H161136   2.663   1.195   5.647 -0.3984 -0.3498 -1.1257
13215TIP3    H261137   2.709   1.285   5.535  0.9356 -0.3727 -0.6085
13216TIP3   OH261138   1.827   4.546   2.297  0.1901  0.0005  0.4093
13216TIP3    H161139   1.868   4.459   2.293 -0.6322 -0.4330  1.0863
13216TIP3    H261140   1.738   4.531   2.264  0.7764  1.0807 -1.7990
13217TIP3   OH261141   2.511   4.786   7.056 -0.1496 -0.4540 -0.0992
13217TIP3    H161142   2.495   4.713   6.996 -2.9543 -1.5677  1.8057
13217TIP3    H261143   2.551   4.853   7.001  0.0484 -2.4115 -2.5377
13218TIP3   OH261144   6.717   0.030  12.370  0.0478  0.0112 -0.3429
13218TIP3    H161145   6.812   0.033  12.375  0.0957  1.1862 -1.3674
13218TIP3    H261146   6.697  -0.061  12.346  0.9150 -0.2206 -0.2024
13219TIP3   OH261147   1.198   2.168  16.213 -0.1354  0.3095  0.0498
13219TIP3    H161148   1.215   2.245  16.267 -3.3729 -0.1478  1.9752
13219TIP3    H261149   1.130   2.119  16.260  1.1325 -3.3267 -1.5142
13220TIP3   OH261150   4.203   2.308   0.484 -0.3338 -0.4812  0.3109
13220TIP3    H161151   4.222   2.225   0.442  0.5605  0.2184 -0.7185
13220TIP3    H261152   4.249   2.373   0.431  1.2038  0.4188  2.6019
13221TIP3   OH261153   5.763   6.076  13.924 -0.2874  0.1138  0.0101
13221TIP3    H161154   5.817   6.000  13.899  0.1260  0.8466 -1.3974
13221TIP3    H261155   5.681   6.037  13.954 -0.7446 -0.8687 -2.3212
13222TIP3   OH261156   6.701   2.738   4.589 -0.6702  0.3633 -0.4603
13222TIP3    H161157   6.627   2.704   4.639 -1.3024  1.2177 -0.7731
13222TIP3    H261158   6.665   2.815   4.544  0.3317  0.6059 -0.8658
13223TIP3   OH261159   2.033   0.492   0.080 -0.1803  0.1260  0.1793
13223TIP3    H161160   2.075   0.539   0.152 -0.7012  0.3109  0.3655
13223TIP3    H261161   1.947   0.467   0.114  0.2685 -1.4184  0.2561
13224TIP3   OH261162   0.434   4.339   1.838  0.0222  0.0205 -0.1315
13224TIP3    H161163   0.377   4.397   1.787  0.2512 -0.8698 -1.4323
13224TIP3    H261164   0.374   4.294   1.898 -0.3475  0.5922 -0.0656
13225TIP3   OH261165   6.616   1.611  16.457 -0.4622  0.2043  0.6842
13225TIP3    H161166   6.542   1.587  16.514  0.3069  0.2813  1.7479
13225TIP3    H261167   6.617   1.544  16.389 -2.0514  0.6901  0.1171
13226TIP3   OH261168   6.240   6.787  13.730  0.6345  0.8830  0.5549
13226TIP3    H161169   6.213   6.839  13.653 -0.7993 -0.9961 -0.2943
13226TIP3    H261170   6.169   6.798  13.792 -0.5201 -1.2880 -0.2895
13227TIP3   OH261171   0.988   0.261   4.410 -0.0965 -0.4859 -0.2669
13227TIP3    H161172   1.015   0.185   4.461 -0.3920  0.4255  1.2956
13227TIP3    H261173   1.037   0.334   4.447  0.1826  0.1144 -1.7498
13228TIP3   OH261174   0.980   0.534  11.783  0.3908 -0.1469 -0.5591
13228TIP3    H161175   0.991   0.513  11.876  0.7488 -0.0419 -0.5744
13228TIP3    H261176   1.022   0.462  11.737 -0.5280 -0.6292 -0.6621
13229TIP3   OH261177   1.838   1.067  14.835 -0.0205  0.6027 -0.0629
13229TIP3    H161178   1.782   1.047  14.910  1.7540 -0.0354  1.1641
13229TIP3    H261179   1.833   1.162  14.826 -0.3504  0.6805  0.8009
13230TIP3   OH261180   6.630   5.871  12.465 -0.2103  0.5498  0.4334
13230TIP3    H161181   6.643   5.956  12.507 -0.0570 -0.3766  2.3492
13230TIP3    H261182   6.648   5.807  12.533 -0.3091 -1.0480 -0.9696
13231TIP3   OH261183   5.764   1.429  11.857 -0.0326  0.6571 -0.5090
13231TIP3    H161184   5.715   1.510  11.840 -1.1203  0.3099  0.7980
13231TIP3    H261185   5.823   1.452  11.928  0.7729  0.7033 -1.1817
13232TIP3   OH261186   3.003   3.276  14.454 -0.0146  0.3167 -0.6520
13232TIP3    H161187   2.985   3.222  14.530  0.4612 -0.1510 -0.8720
13232TIP3    H261188   3.022   3.363  14.491  0.3743  0.0550 -0.2352
13233TIP3   OH261189   3.142   1.676  15.807 -0.0130 -0.2388  0.2369
13233TIP3    H161190   3.051   1.699  15.829  0.2799  1.7492 -0.4524
13233TIP3    H261191   3.186   1.668  15.891 -0.6276 -0.3548  0.5532
13234TIP3   OH261192   4.968   6.037  16.000  0.2066 -1.0477 -0.1130
13234TIP3    H161193   5.007   6.123  16.018 -0.2613 -0.9960  0.7336
13234TIP3    H261194   5.036   5.989  15.952  0.4275 -0.1672 -0.7064
13235TIP3   OH261195   1.428   2.941  12.641  0.7102 -0.0950 -0.1898
13235TIP3    H161196   1.405   2.998  12.568  0.5480  0.2063  0.0909
13235TIP3    H261197   1.345   2.927  12.687  1.1161  1.3147  1.0634
13236TIP3   OH261198   6.132   5.865   5.800  0.2182 -0.2819 -0.0939
13236TIP3    H161199   6.143   5.904   5.713  1.7906  0.3430  0.3507
13236TIP3    H261200   6.076   5.788   5.785 -1.2411  0.9556 -1.3173
13237TIP3   OH261201   1.427   6.725   5.534 -0.2619  0.0366  0.4740
13237TIP3    H161202   1.350   6.687   5.575 -0.1058 -0.3669  0.4012
13237TIP3    H261203   1.441   6.807   5.580 -1.2392  0.5371 -0.0736
13238TIP3   OH261204   3.153   2.157   3.949  0.4358 -0.3592 -0.1876
13238TIP3    H161205   3.174   2.064   3.952  1.2015 -0.1886  0.3581
13238TIP3    H261206   3.159   2.186   4.041  0.5196  0.2844 -0.3863
13239TIP3   OH261207   5.726   6.282  11.694  0.1379 -0.2209 -0.6004
13239TIP3    H161208   5.648   6.256  11.644 -1.2359 -0.9375  1.7451
13239TIP3    H261209   5.785   6.319  11.629 -0.3974 -3.4368 -3.1705
13240TIP3   OH261210   4.674   1.965   5.874  0.1391 -0.2374  0.2015
13240TIP3    H161211   4.641   1.876   5.880 -0.9782 -0.4838 -5.1081
13240TIP3    H261212   4.605   2.019   5.913  0.0518 -1.5068  1.9036
13241TIP3   OH261213   4.994   2.533  12.083  0.3760  0.3772 -0.2575
13241TIP3    H161214   5.056   2.596  12.047  0.5118  1.5896  1.8983
13241TIP3    H261215   4.923   2.586  12.118  0.4601 -0.6118  1.5638
13242TIP3   OH261216   5.030   3.738  14.213  0.1040 -0.1457 -0.8560
13242TIP3    H161217   5.060   3.784  14.292 -0.0270  1.1579 -1.5485
13242TIP3    H261218   4.935   3.729  14.226 -0.0096  0.6209 -1.1422
13243TIP3   OH261219   2.343   6.800  16.612 -0.3461  0.0539 -0.1934
13243TIP3    H161220   2.361   6.893  16.623 -1.2995  0.0934  1.1603
13243TIP3    H261221   2.250   6.796  16.590 -0.5840 -0.6294  0.8721
13244TIP3   OH261222   4.385   1.742  11.327  0.2784 -0.5281  0.1893
13244TIP3    H161223   4.422   1.697  11.403  1.9144  0.2364 -0.1071
13244TIP3    H261224   4.340   1.818  11.364  1.5149  0.1328  0.4025
13245TIP3   OH261225   5.399   3.030  14.512  0.0979 -0.4741 -0.0869
13245TIP3    H161226   5.310   3.067  14.508  0.2455  0.0314  0.9664
13245TIP3    H261227   5.436   3.067  14.592  0.9342 -1.4297 -0.0231
13246TIP3   OH261228   1.247   1.472   0.583  0.1128 -0.3846 -0.5265
13246TIP3    H161229   1.247   1.499   0.675 -0.6653  0.4615 -0.7708
13246TIP3    H261230   1.337   1.487   0.554  0.1696  0.0654 -0.1183
13247TIP3   OH261231   2.242   4.577   5.563  0.2694  0.1280  0.0771
13247TIP3    H161232   2.239   4.565   5.658  2.5324 -1.8983 -0.0064
13247TIP3    H261233   2.321   4.629   5.548  0.3822 -0.2572 -0.7303
13248TIP3   OH261234   1.594   5.262   4.100  0.2676  0.1736  0.5925
13248TIP3    H161235   1.654   5.196   4.134 -0.7734 -1.6735 -0.9470
13248TIP3    H261236   1.650   5.321   4.049  0.8577 -1.6515 -1.0212
13249TIP3   OH261237   5.659   4.651  13.622  0.3451 -0.5018 -0.2477
13249TIP3    H161238   5.694   4.578  13.672 -2.1454 -1.3929  0.3136
13249TIP3    H261239   5.676   4.728  13.676  1.8385 -0.7933 -0.2607
13250TIP3   OH261240   1.531   5.458  12.594 -0.5677  0.2500 -0.0121
13250TIP3    H161241   1.503   5.501  12.675 -0.1434  0.0941  0.2237
13250TIP3    H261242   1.543   5.529  12.531 -0.1677  0.4437  0.2836
13251TIP3   OH261243   4.779   4.569  14.170  0.5044  0.1965  0.2209
13251TIP3    H161244   4.729   4.558  14.089  2.6676  0.6043 -1.2565
13251TIP3    H261245   4.786   4.664  14.181  1.8671  0.1804 -0.2586
13252TIP3   OH261246   5.913   6.622  11.422 -0.1455  0.2373 -0.7950
13252TIP3    H161247   5.965   6.629  11.502  1.8531 -0.6401 -1.9620
13252TIP3    H261248   5.878   6.533  11.424  0.1677  0.1057 -1.0286
13253TIP3   OH261249   4.290   2.667   2.221  0.1702 -0.0278 -0.4413
13253TIP3    H161250   4.314   2.582   2.185 -0.5477 -0.3691 -0.1194
13253TIP3    H261251   4.296   2.727   2.146  2.7983  0.0910 -0.2236
13254TIP3   OH261252   5.640   6.401   2.800 -0.3098 -0.1394  0.3048
13254TIP3    H161253   5.712   6.464   2.806 -0.2511 -0.1496 -0.1890
13254TIP3    H261254   5.574   6.434   2.860 -1.5104  2.0431 -2.0081
13255TIP3   OH261255   3.824   4.123   0.807  0.1205  0.0401  0.0047
13255TIP3    H161256   3.807   4.146   0.716 -0.0757 -1.0931 -0.2623
13255TIP3    H261257   3.814   4.028   0.810  0.9257 -0.0320  1.0413
13256TIP3   OH261258   0.465   6.365   0.359 -0.0130  0.0098 -0.1600
13256TIP3    H161259   0.453   6.339   0.450  1.2692  0.1141  0.0604
13256TIP3    H261260   0.378   6.357   0.320 -0.3023 -1.4487  0.7023
13257TIP3   OH261261   0.527   6.766  15.991 -0.2223 -0.3822 -0.2432
13257TIP3    H161262   0.554   6.807  15.908  2.9492  0.9985  1.3054
13257TIP3    H261263   0.577   6.685  15.994 -1.7879 -1.3977 -0.4725
13258TIP3   OH261264   5.153   2.998   1.794 -0.0325 -0.0695 -0.1594
13258TIP3    H161265   5.163   2.985   1.700  0.1940 -0.5896 -0.0669
13258TIP3    H261266   5.184   3.087   1.809 -1.4926  0.5593 -0.7863
13259TIP3   OH261267   2.642   1.424   5.455  0.9804 -0.0937 -0.4259
13259TIP3    H161268   2.615   1.463   5.538  0.4382  1.5601 -1.3382
13259TIP3    H261269   2.607   1.483   5.388 -1.4182 -3.0076 -1.9941
13260TIP3   OH261270   2.421   3.053  12.748  0.4384  0.0168  0.2471
13260TIP3    H161271   2.344   3.005  12.778  0.6187 -0.4292 -0.0105
13260TIP3    H261272   2.481   2.986  12.717  1.6518  0.2110  2.0329
13261TIP3   OH261273   2.895   5.889  10.276  0.2276 -0.2442  0.1441
13261TIP3    H161274   2.946   5.915  10.199 -1.8419 -1.5360 -1.8167
13261TIP3    H261275   2.874   5.971  10.320  0.9873  0.5912 -1.0003
13262TIP3   OH261276   3.313   5.111  13.187  0.2594 -0.5521 -0.1076
13262TIP3    H161277   3.228   5.080  13.157  0.0737  1.1487 -1.4887
13262TIP3    H261278   3.361   5.131  13.107  1.4278 -0.1216  0.6716
13263TIP3   OH261279   6.169   1.952   1.381 -0.6041  0.2679 -0.1472
13263TIP3    H161280   6.138   1.913   1.299 -1.7259  2.3962 -0.8122
13263TIP3    H261281   6.263   1.938   1.380 -0.7739 -1.0188 -1.0716
13264TIP3   OH261282   1.920   2.514  12.365 -0.4247  0.6359 -0.0915
13264TIP3    H161283   1.944   2.463  12.442 -0.8589  0.2509 -0.2104
13264TIP3    H261284   1.917   2.604  12.396  1.0717  0.7062 -0.0410
13265TIP3   OH261285   3.855   4.597   2.560 -0.5226  0.2890 -0.0495
13265TIP3    H161286   3.824   4.626   2.646  1.8049  2.2908  0.2530
13265TIP3    H261287   3.888   4.677   2.518  1.0673 -1.0720 -1.5931
13266TIP3   OH261288   5.161   1.124  12.215  0.0421 -0.1251  0.0178
13266TIP3    H161289   5.226   1.160  12.276  0.3475 -1.1319  0.2958
13266TIP3    H261290   5.196   1.145  12.128  1.6366 -2.0857  0.1105
13267TIP3   OH261291   2.288   5.721   2.591 -0.5901  0.1628  0.7504
13267TIP3    H161292   2.229   5.715   2.666 -2.1561  0.0674 -0.4222
13267TIP3    H261293   2.247   5.665   2.525 -0.6020  2.1245 -1.0120
13268TIP3   OH261294   2.079   5.001   4.731 -0.3769 -0.4288  0.2141
13268TIP3    H161295   2.050   5.090   4.751  1.7402  0.6198 -0.9679
13268TIP3    H261296   2.052   4.987   4.640 -0.0497 -0.6913  0.1558
13269TIP3   OH261297   2.672   4.192   3.542 -0.0402  0.2166  0.5066
13269TIP3    H161298   2.629   4.174   3.459  1.4519  1.1613 -0.4981
13269TIP3    H261299   2.670   4.108   3.588  1.3374 -1.0103 -1.5303
13270TIP3   OH261300   3.272   6.718  15.193  0.7804  0.2206 -0.4044
13270TIP3    H161301   3.318   6.743  15.273 -0.7276 -2.0034  1.2633
13270TIP3    H261302   3.317   6.766  15.123  4.2468 -0.2311  1.3295
13271TIP3   OH261303   1.064   0.399  11.092  0.1234 -0.0710 -0.4384
13271TIP3    H161304   1.055   0.481  11.140 -1.0385 -0.6708  0.4181
13271TIP3    H261305   1.120   0.421  11.017  1.4052  1.0387  0.7947
13272TIP3   OH261306   0.524   1.097  14.503  0.0900 -0.1348 -0.1893
13272TIP3    H161307   0.543   1.185  14.472  0.8454  0.2012  1.1534
13272TIP3    H261308   0.531   1.042  14.425 -1.7363  1.1393 -1.3178
13273TIP3   OH261309   1.524   0.150  12.629  0.8327 -0.2878  0.4183
13273TIP3    H161310   1.587   0.172  12.560  0.4472 -1.5520 -0.3734
13273TIP3    H261311   1.574   0.153  12.710  2.0359 -1.7090 -0.2385
13274TIP3   OH261312   5.861   6.180   5.074  0.1086  0.1580  0.3596
13274TIP3    H161313   5.885   6.174   4.982  0.8076 -0.0602  0.5482
13274TIP3    H261314   5.932   6.134   5.120  0.0431  0.7317  1.0434
13275TIP3   OH261315   0.807   5.903  16.200  0.0655 -0.2753 -0.1332
13275TIP3    H161316   0.765   5.875  16.282  1.8558 -1.1069  0.5634
13275TIP3    H261317   0.768   5.848  16.133 -1.9038  0.8550  0.0012
13276TIP3   OH261318   0.372   5.796  12.604 -0.3839  0.5727 -0.1450
13276TIP3    H161319   0.371   5.858  12.677  3.1085  0.7350 -0.0974
13276TIP3    H261320   0.386   5.851  12.527 -0.0800  0.0626 -0.4565
13277TIP3   OH261321   3.881   4.104  16.873 -0.4207 -0.4286 -0.1773
13277TIP3    H161322   3.946   4.058  16.925  0.3586 -0.1287 -0.8670
13277TIP3    H261323   3.920   4.109  16.785 -1.1744  0.1586 -0.4843
13278TIP3   OH261324   6.653   6.343  14.158 -0.4247  0.2324 -0.5314
13278TIP3    H161325   6.702   6.264  14.181  0.7899  1.1077  0.0023
13278TIP3    H261326   6.575   6.341  14.213 -0.7480 -0.9258 -1.0180
13279TIP3   OH261327   5.263   5.608   1.283 -0.2367  0.0602  0.0294
13279TIP3    H161328   5.257   5.629   1.376 -0.4370  0.5112 -0.0798
13279TIP3    H261329   5.306   5.685   1.244  0.4807 -0.4270 -0.1475
13280TIP3   OH261330   4.543   0.898  13.294 -0.7793  0.2265  0.7830
13280TIP3    H161331   4.601   0.973  13.283 -0.6685  0.1143  0.6092
13280TIP3    H261332   4.578   0.831  13.236 -2.6309  1.0738 -1.4951
13281TIP3   OH261333   3.296   4.254   4.018 -0.2944 -0.6112 -0.5914
13281TIP3    H161334   3.380   4.278   4.058  0.0946 -2.4593 -0.1941
13281TIP3    H261335   3.252   4.337   4.002 -0.5979  0.3348  3.9542
13282TIP3   OH261336   1.952   1.365   3.104 -0.0864 -0.6270 -0.0318
13282TIP3    H161337   1.889   1.420   3.056 -0.2559 -2.7220 -2.4149
13282TIP3    H261338   2.028   1.361   3.046  0.5478 -1.5780  0.8417
13283TIP3   OH261339   0.530   0.717  14.323  0.4895 -0.0082 -0.6469
13283TIP3    H161340   0.617   0.752  14.344  1.1332 -1.4913 -0.6838
13283TIP3    H261341   0.493   0.693  14.408  0.1437  0.5612 -0.6371
13284TIP3   OH261342   2.200   0.204  16.952  0.9188 -0.0998 -0.1408
13284TIP3    H161343   2.169   0.275  16.895 -2.3217 -0.8357  0.5135
13284TIP3    H261344   2.231   0.249  17.031 -0.0676  0.6852 -0.1699
13285TIP3   OH261345   5.931   0.276  13.190 -0.1548 -0.4984 -0.0508
13285TIP3    H161346   5.921   0.348  13.252  1.5718  0.2444 -0.5904
13285TIP3    H261347   5.841   0.250  13.170 -0.7865  0.5114  1.2731
13286TIP3   OH261348   5.219   0.634   5.371 -0.2380  0.1358 -0.1627
13286TIP3    H161349   5.137   0.676   5.400  1.8019  3.3361  1.5004
13286TIP3    H261350   5.261   0.606   5.451  1.4763  0.9691 -0.7266
13287TIP3   OH261351   1.355   1.156   0.441  0.0938  0.5576 -0.4136
13287TIP3    H161352   1.321   1.233   0.396  1.2475  0.2389 -1.8871
13287TIP3    H261353   1.345   1.177   0.534  1.0768  2.8277 -0.7484
13288TIP3   OH261354   6.465   3.338   1.934  0.1219 -0.0983 -0.3630
13288TIP3    H161355   6.551   3.296   1.924  0.9247  0.2221  3.4579
13288TIP3    H261356   6.484   3.431   1.927  0.2233 -0.0078  0.8798
13289TIP3   OH261357   2.892   6.628   0.743 -0.4314 -0.7636  0.0859
13289TIP3    H161358   2.824   6.560   0.739 -0.4050 -0.7638 -0.6878
13289TIP3    H261359   2.941   6.617   0.661  2.2522 -2.5159  1.7998
13290TIP3   OH261360   6.511   5.847   3.861  0.0771  0.0429 -0.1744
13290TIP3    H161361   6.591   5.816   3.820 -0.2008  0.9254 -1.4499
13290TIP3    H261362   6.462   5.889   3.790 -1.5451 -0.5222  0.5490
13291TIP3   OH261363   4.845   3.756   3.147 -0.3466  0.4489 -0.1190
13291TIP3    H161364   4.817   3.717   3.064  0.4125  0.5448 -0.4271
13291TIP3    H261365   4.763   3.768   3.196 -0.8523  0.7498 -0.9987
13292TIP3   OH261366   0.477   4.340  11.921 -0.3755  0.4226 -0.0523
13292TIP3    H161367   0.557   4.355  11.871  1.5543  0.3863  2.8135
13292TIP3    H261368   0.435   4.426  11.926 -0.0805  0.6158 -0.8577
13293TIP3   OH261369   3.717   5.991  13.891 -0.0567 -0.0999  0.1260
13293TIP3    H161370   3.629   5.958  13.873  0.7004 -2.6587  0.6687
13293TIP3    H261371   3.703   6.072  13.941 -2.0867 -0.4176  0.1358
13294TIP3   OH261372   2.344   1.015   4.334  0.2007  0.0191 -0.0942
13294TIP3    H161373   2.373   1.101   4.303 -0.2869 -0.2804 -1.4344
13294TIP3    H261374   2.372   1.012   4.426 -1.9024  2.6180  0.7588
13295TIP3   OH261375   0.330   4.798   1.896  0.4725 -0.5679 -0.1042
13295TIP3    H161376   0.421   4.768   1.902  0.1462 -1.5547  0.1709
13295TIP3    H261377   0.280   4.732   1.944 -0.4765 -0.4779 -0.9281
13296TIP3   OH261378   5.131   5.747  10.833  0.0707 -0.1113 -0.1289
13296TIP3    H161379   5.149   5.662  10.792  1.1204  0.8814 -1.8210
13296TIP3    H261380   5.054   5.780  10.786 -0.0561  0.0884  0.2155
13297TIP3   OH261381   2.691   0.608   0.559 -0.1077 -0.0661 -0.8556
13297TIP3    H161382   2.689   0.551   0.636  1.3905 -0.8619 -1.3608
13297TIP3    H261383   2.779   0.645   0.559 -0.8178  1.6956 -0.9637
13298TIP3   OH261384   3.939   3.975   4.556 -0.0496 -0.8451  0.2511
13298TIP3    H161385   4.022   3.991   4.511 -0.1038 -1.3810 -0.0495
13298TIP3    H261386   3.918   4.058   4.598 -0.3975 -0.0815 -1.3646
13299TIP3   OH261387   5.612   3.985   0.954 -0.2606 -0.0451  0.1734
13299TIP3    H161388   5.649   4.010   0.870  0.4825  1.8179  0.9946
13299TIP3    H261389   5.588   4.068   0.996  0.0778 -0.8427  2.0841
13300TIP3   OH261390   0.324   0.259  12.337 -0.1527  0.2146 -0.1267
13300TIP3    H161391   0.259   0.327  12.319 -0.5448  0.0644  0.6867
13300TIP3    H261392   0.312   0.238  12.429  0.9447  0.0685 -0.0018
13301TIP3   OH261393   2.410   6.077  12.599  0.3118  0.1228 -0.5444
13301TIP3    H161394   2.417   6.167  12.568 -0.5857  0.0831 -0.9075
13301TIP3    H261395   2.373   6.085  12.687 -2.7980  0.0462 -1.7086
13302TIP3   OH261396   1.437   6.036  15.846 -0.8563 -0.0302  0.9733
13302TIP3    H161397   1.439   5.943  15.872  2.8946 -0.7474 -1.0963
13302TIP3    H261398   1.389   6.036  15.764 -0.2317 -0.3191  0.5979
13303TIP3   OH261399   4.899   5.764  13.514 -0.2834 -0.3811  0.2662
13303TIP3    H161400   4.930   5.829  13.451  0.1626 -0.6993  0.1552
13303TIP3    H261401   4.832   5.811  13.565  1.4438  0.8046  1.5445
13304TIP3   OH261402   1.739   4.468  13.002  0.1846 -0.7219 -0.1692
13304TIP3    H161403   1.742   4.426  12.916 -1.5332  1.5266 -1.4573
13304TIP3    H261404   1.795   4.546  12.992 -0.0428 -0.4323  0.7314
13305TIP3   OH261405   6.523   1.574   5.199  0.2014  0.1661  0.1618
13305TIP3    H161406   6.453   1.584   5.263  0.5808 -0.8385  0.7494
13305TIP3    H261407   6.601   1.556   5.252  0.3972 -1.3259 -0.6091
13306TIP3   OH261408   5.260   4.712   2.079 -0.4721  0.4140 -0.3615
13306TIP3    H161409   5.236   4.675   1.994  0.8023 -1.5609  0.0956
13306TIP3    H261410   5.327   4.654   2.113 -0.2642  1.7104  1.6003
13307TIP3   OH261411   3.402   6.384  14.146 -0.0573  0.1132 -0.5530
13307TIP3    H161412   3.327   6.337  14.184  0.0930 -0.0746 -0.4841
13307TIP3    H261413   3.460   6.400  14.221  1.3690 -2.3577 -1.0098
13308TIP3   OH261414   1.661   6.440  10.203  0.3147  0.1702 -0.1166
13308TIP3    H161415   1.688   6.398  10.122  0.1279  1.0207 -0.6332
13308TIP3    H261416   1.581   6.489  10.180  0.0130  0.0761  0.6758
13309TIP3   OH261417   5.777   1.934   0.443  0.3349 -0.3913  0.0787
13309TIP3    H161418   5.872   1.943   0.434  0.1332  2.1506 -0.3743
13309TIP3    H261419   5.751   1.879   0.370  1.1872  1.5050 -1.7697
13310TIP3   OH261420   3.791   2.075   3.339 -0.7323 -0.2478 -0.2995
13310TIP3    H161421   3.885   2.058   3.342 -0.5315  0.8859  0.4495
13310TIP3    H261422   3.751   1.989   3.331  0.3039 -0.8748  0.9281
13311TIP3   OH261423   3.899   6.215   4.033 -0.0916 -0.3347  0.3412
13311TIP3    H161424   3.824   6.246   4.083 -0.4861  0.8013 -0.8777
13311TIP3    H261425   3.969   6.207   4.097 -0.7157  0.5474  1.1641
13312TIP3   OH261426   5.214   2.275   0.686 -0.4319  0.3782  0.0190
13312TIP3    H161427   5.216   2.314   0.599  1.0936 -2.2712 -1.2821
13312TIP3    H261428   5.270   2.331   0.739  1.4727  0.2163 -1.6700
13313TIP3   OH261429   3.040   2.301   5.635 -0.5173  0.1954  0.2772
13313TIP3    H161430   3.050   2.219   5.586  1.4734 -0.3956  1.5281
13313TIP3    H261431   2.959   2.290   5.684 -1.3475 -0.1449 -1.1358
13314TIP3   OH261432   0.439   6.806   2.342  0.6275  0.2326 -0.2252
13314TIP3    H161433   0.436   6.890   2.296  0.7429 -0.8512 -2.3454
13314TIP3    H261434   0.383   6.748   2.289  1.6258 -1.3743  0.4026
13315TIP3   OH261435   6.556   4.006  15.710 -0.0225  0.0388 -0.2184
13315TIP3    H161436   6.510   4.062  15.773 -0.8906 -0.8054 -0.0659
13315TIP3    H261437   6.641   4.048  15.698 -1.0157  1.9736 -0.9239
13316TIP3   OH261438   5.231   1.140   3.506  0.0807  0.0045 -0.2740
13316TIP3    H161439   5.184   1.090   3.573  1.0278  1.1404  1.3112
13316TIP3    H261440   5.215   1.091   3.425 -1.3161 -1.2914  0.7041
13317TIP3   OH261441   0.556   6.461  14.003  0.4777 -0.0557  0.4164
13317TIP3    H161442   0.515   6.483  14.087  1.2695  1.1364  0.5154
13317TIP3    H261443   0.646   6.439  14.026  0.6621  0.1404 -0.1076
13318TIP3   OH261444   0.427   0.880  16.726  0.2918 -0.5462  0.1855
13318TIP3    H161445   0.338   0.864  16.756 -0.2576  0.2246 -0.9632
13318TIP3    H261446   0.462   0.944  16.788 -0.3078 -0.0920  0.0616
13319TIP3   OH261447   6.399   4.744  16.240 -0.2449  0.1057  0.1449
13319TIP3    H161448   6.457   4.817  16.262  1.2798 -0.8065 -0.6780
13319TIP3    H261449   6.358   4.721  16.324 -1.5754  2.5233  0.2497
13320TIP3   OH261450   5.544   2.846   0.087  0.3345 -0.2769  0.5608
13320TIP3    H161451   5.450   2.833   0.078  0.2081  1.1018 -0.4326
13320TIP3    H261452   5.554   2.941   0.096  1.6417 -0.3868  0.4182
13321TIP3   OH261453   0.428   1.898  15.750 -0.4993 -0.2724  0.6102
13321TIP3    H161454   0.337   1.925  15.763 -0.2450  0.7945  0.2672
13321TIP3    H261455   0.427   1.803  15.766 -1.7745 -0.3783  0.0895
13322TIP3   OH261456   0.853   3.516  11.976  0.4915 -0.6442  0.3167
13322TIP3    H161457   0.808   3.432  11.970  0.8299 -0.8427  0.5037
13322TIP3    H261458   0.843   3.542  12.068 -1.3479  0.5057 -0.1530
13323TIP3   OH261459   0.970   3.511   2.210 -0.0999 -0.2928  0.2516
13323TIP3    H161460   0.900   3.567   2.244  0.1103 -0.8352  1.6611
13323TIP3    H261461   0.954   3.506   2.116 -2.1726 -0.6803  0.5751
13324TIP3   OH261462   6.310   5.224   4.109 -0.1579  0.4173 -0.2786
13324TIP3    H161463   6.301   5.271   4.027  0.7696  0.1285 -0.5561
13324TIP3    H261464   6.400   5.190   4.108 -0.5221 -0.6028  0.3106
13325TIP3   OH261465   1.693   2.199   2.042 -0.1444  0.5107 -0.0007
13325TIP3    H161466   1.699   2.171   1.951 -0.4931 -1.8219  0.6382
13325TIP3    H261467   1.739   2.131   2.092 -0.5086  1.3897  1.6234
13326TIP3   OH261468   3.827   2.567   3.971  0.4621  0.4030  0.1363
13326TIP3    H161469   3.800   2.646   4.017  0.8146  0.9044 -0.5009
13326TIP3    H261470   3.882   2.520   4.034 -1.3658 -0.3515  1.2371
13327TIP3   OH261471   3.517   0.446   2.055 -0.0620 -0.4374 -0.7357
13327TIP3    H161472   3.508   0.447   2.151 -1.6198  0.0658 -0.8565
13327TIP3    H261473   3.611   0.444   2.040  0.2026 -1.0854  0.8086
13328TIP3   OH261474   3.217   5.763  16.323 -0.0881 -0.0587 -0.3287
13328TIP3    H161475   3.225   5.718  16.239 -1.5345 -0.9982 -0.0043
13328TIP3    H261476   3.287   5.725  16.377 -0.8316 -1.4580 -0.2891
13329TIP3   OH261477   0.867   1.704   2.943  0.6459 -0.5151  0.3623
13329TIP3    H161478   0.954   1.730   2.915  0.8782 -0.6062  0.9873
13329TIP3    H261479   0.824   1.785   2.970  0.1972 -0.3353 -0.8266
13330TIP3   OH261480   3.732   0.695   0.970  0.1876  0.3216  0.6115
13330TIP3    H161481   3.662   0.727   1.026 -0.5984  1.3736 -0.8928
13330TIP3    H261482   3.687   0.646   0.901  1.0271  0.0033  0.2720
13331TIP3   OH261483   1.048   0.381  13.933 -0.0136  0.3412 -0.7208
13331TIP3    H161484   0.953   0.377  13.942  0.2203 -0.8301  2.2538
13331TIP3    H261485   1.063   0.458  13.878 -2.6288  1.7298  0.3235
13332TIP3   OH261486   2.644   5.504  14.024  0.2123 -0.0437  0.3149
13332TIP3    H161487   2.699   5.489  13.948 -2.4275  0.0577 -1.7763
13332TIP3    H261488   2.636   5.599  14.029  0.8297 -0.0274  1.0952
13333TIP3   OH261489   3.954   5.179   1.397  0.2059  0.1907 -0.5485
13333TIP3    H161490   4.048   5.162   1.404  0.1989 -0.6005 -2.0179
13333TIP3    H261491   3.947   5.274   1.394  1.0102  0.2503 -0.8974
13334TIP3   OH261492   4.804   2.106  12.795  0.0930 -0.2536  0.6923
13334TIP3    H161493   4.838   2.025  12.834  0.6684 -0.6850 -0.6539
13334TIP3    H261494   4.819   2.173  12.862 -0.5061 -1.2665  1.8787
13335TIP3   OH261495   1.521   3.788  14.417  0.3892  0.3294 -0.3511
13335TIP3    H161496   1.454   3.856  14.417  1.4563  1.4280  0.8155
13335TIP3    H261497   1.474   3.709  14.442 -0.7577  0.7380 -1.1009
13336TIP3   OH261498   0.128   0.193  16.020  0.1894  0.1979 -0.3406
13336TIP3    H161499   0.070   0.262  16.051 -0.3321 -0.6745  0.6806
13336TIP3    H261500   0.208   0.204  16.071 -0.0983 -0.2842  0.2217
13337TIP3   OH261501   4.853   2.955   4.048 -0.3698 -0.2066 -0.4605
13337TIP3    H161502   4.796   2.913   4.112  0.1579 -1.8097 -0.9972
13337TIP3    H261503   4.840   2.905   3.968  1.4463 -0.3376 -0.7081
13338TIP3   OH261504   5.898   4.018  11.716  0.4977  0.1640 -0.0356
13338TIP3    H161505   5.877   3.948  11.778  2.6746 -1.9719 -1.4918
13338TIP3    H261506   5.930   4.090  11.770 -1.9956  0.1903  1.5276
13339TIP3   OH261507   2.040   2.325  12.529  0.2170  0.3014  0.3066
13339TIP3    H161508   2.132   2.311  12.550 -0.0956 -1.3854  0.7076
13339TIP3    H261509   2.008   2.239  12.501 -1.3671  0.7164  0.7132
13340TIP3   OH261510   1.294   1.048   2.727 -0.1582  0.1428 -0.1267
13340TIP3    H161511   1.346   1.127   2.711  1.3149 -0.2240  2.4372
13340TIP3    H261512   1.314   0.991   2.653  1.0013  1.0547 -0.5475
13341TIP3   OH261513   5.942   5.468   2.303 -0.2337 -0.0680 -0.4958
13341TIP3    H161514   5.907   5.385   2.337 -1.2932  1.2913  1.9763
13341TIP3    H261515   5.888   5.487   2.226 -0.3100 -1.3947 -0.7962
13342TIP3   OH261516   6.167   6.476  13.273 -0.2915 -0.1272 -0.0285
13342TIP3    H161517   6.160   6.553  13.217 -1.8045 -0.0749  0.1660
13342TIP3    H261518   6.239   6.496  13.333 -1.2058  1.5564  0.5931
13343TIP3   OH261519   3.407   3.124   5.373  0.3991 -0.6742 -0.2364
13343TIP3    H161520   3.435   3.100   5.284 -1.2994 -2.1227 -0.4218
13343TIP3    H261521   3.471   3.082   5.430  2.4968  1.6163 -0.7238
13344TIP3   OH261522   1.072   6.133   1.416 -0.1607 -0.5099  0.2686
13344TIP3    H161523   1.166   6.145   1.402  0.3911 -0.8492  3.1465
13344TIP3    H261524   1.037   6.121   1.328  2.5321 -0.7833 -0.8873
13345TIP3   OH261525   5.754   6.876  12.724 -0.1551  0.8709  0.2278
13345TIP3    H161526   5.659   6.879  12.735 -0.2138  0.6066 -0.1886
13345TIP3    H261527   5.788   6.917  12.804 -0.5409 -1.3443  1.6287
13346TIP3   OH261528   4.648   4.434   6.197  0.5555 -0.2738 -0.0681
13346TIP3    H161529   4.559   4.466   6.185  0.6225  0.2790  0.8398
13346TIP3    H261530   4.699   4.513   6.218  1.0551 -0.7309  0.4560
13347TIP3   OH261531   6.576   2.700  11.247  0.1334 -0.3242  0.6614
13347TIP3    H161532   6.482   2.713  11.249  0.3464  1.7167 -0.1136
13347TIP3    H261533   6.612   2.776  11.293  1.4183 -0.4773 -0.0216
13348TIP3   OH261534   4.040   0.540   2.175 -0.0255 -0.1912  0.6058
13348TIP3    H161535   4.103   0.562   2.108  1.3051 -1.4247  1.3860
13348TIP3    H261536   3.955   0.566   2.139  0.7813  0.2765 -1.0106
13349TIP3   OH261537   5.638   5.997  13.586  0.2584 -0.0920 -0.3280
13349TIP3    H161538   5.726   5.991  13.547 -0.1235 -0.3655 -1.1718
13349TIP3    H261539   5.623   5.911  13.623  1.0708  0.4940  1.4606
13350TIP3   OH261540   2.911   0.437   1.787 -0.8548  0.2585  0.1897
13350TIP3    H161541   2.915   0.463   1.879  0.3491  1.4439 -0.1668
13350TIP3    H261542   2.986   0.481   1.746 -1.5119 -0.0305 -1.4067
13351TIP3   OH261543   4.401   3.068   5.615  0.1055 -0.1954  0.0833
13351TIP3    H161544   4.367   3.093   5.701 -1.8565 -2.9112  0.1940
13351TIP3    H261545   4.328   3.080   5.555  1.1555  0.7111 -1.0945
13352TIP3   OH261546   2.415   1.638   4.697  0.1047  0.3905  0.7765
13352TIP3    H161547   2.488   1.691   4.665  0.1775 -0.2960 -0.2672
13352TIP3    H261548   2.337   1.681   4.662  0.1239  0.1521  0.4395
13353TIP3   OH261549   3.927   5.169  11.132 -0.2506  0.3307 -0.0762
13353TIP3    H161550   3.832   5.159  11.129 -0.4794  1.8115  0.9993
13353TIP3    H261551   3.953   5.176  11.040 -1.1069 -0.5292 -0.4035
13354TIP3   OH261552   6.693   6.207   1.320 -0.2755 -0.2279  0.6984
13354TIP3    H161553   6.629   6.154   1.368  0.2117  0.0533  1.6923
13354TIP3    H261554   6.743   6.145   1.268 -0.2902 -0.6482  1.1759
13355TIP3   OH261555   0.281   3.846  13.113  0.2499  0.4934  0.1469
13355TIP3    H161556   0.286   3.819  13.022 -1.0665 -1.4510  0.5985
13355TIP3    H261557   0.235   3.930  13.111 -0.5355  0.0554 -0.9368
13356TIP3   OH261558   6.504   3.255   4.034  0.0873 -0.0414  0.6731
13356TIP3    H161559   6.487   3.172   3.988  1.1037  0.9953 -1.7245
13356TIP3    H261560   6.589   3.283   4.002 -0.8222  2.6082  0.4104
13357TIP3   OH261561   6.836   5.207  14.894 -0.2766  0.2933 -0.1586
13357TIP3    H161562   6.784   5.279  14.857 -0.5581  0.6588  0.9103
13357TIP3    H261563   6.920   5.248  14.917  0.3001 -0.1684 -1.3478
13358TIP3   OH261564   1.460   3.419  13.887 -0.0456  0.0918 -0.8251
13358TIP3    H161565   1.435   3.510  13.902 -0.1579  0.0535 -0.7783
13358TIP3    H261566   1.408   3.369  13.950 -0.5640 -0.0724 -1.3642
13359TIP3   OH261567   1.817   3.914  11.273 -0.2875 -0.0798  0.2474
13359TIP3    H161568   1.725   3.939  11.281 -0.3002 -0.0204 -0.0727
13359TIP3    H261569   1.815   3.822  11.249 -0.3104  0.3051 -1.3589
13360TIP3   OH261570   5.779   5.796  16.380  0.4437 -0.1890 -0.4352
13360TIP3    H161571   5.803   5.763  16.293 -0.5547  2.3260 -1.7695
13360TIP3    H261572   5.792   5.891  16.374 -0.3596  0.1319  1.9394
13361TIP3   OH261573   5.384   5.647  15.534 -0.2503  0.2867 -0.1044
13361TIP3    H161574   5.410   5.635  15.626  0.7943 -1.7882 -0.6184
13361TIP3    H261575   5.442   5.717  15.503  0.9651 -0.5433  0.2391
13362TIP3   OH261576   0.426   2.299  14.852  0.2218  0.3457  0.1123
13362TIP3    H161577   0.331   2.290  14.853  0.2197  0.3563  0.8333
13362TIP3    H261578   0.447   2.336  14.938  0.7391  1.8482 -0.6334
13363TIP3   OH261579   6.035   4.557   0.076 -0.5586  0.0015 -0.0883
13363TIP3    H161580   6.106   4.613   0.108 -0.1449 -1.2092  1.2110
13363TIP3    H261581   5.959   4.615   0.073  0.2382  1.0797 -0.5512
13364TIP3   OH261582   1.095   1.203   4.508  0.4315 -0.6291 -0.9432
13364TIP3    H161583   1.026   1.263   4.536  0.0544 -0.5940 -1.9336
13364TIP3    H261584   1.157   1.202   4.582 -0.4961 -0.4807 -0.1421
13365TIP3   OH261585   4.894   1.576  11.865  0.2284  0.1497  0.3256
13365TIP3    H161586   4.967   1.526  11.828  0.1493  0.3549 -0.1103
13365TIP3    H261587   4.912   1.667  11.842  0.4844  0.3664  1.3073
13366TIP3   OH261588   1.182   2.079   1.613 -0.0165 -0.0346  0.1269
13366TIP3    H161589   1.164   1.997   1.567  1.9046 -0.4867  0.0907
13366TIP3    H261590   1.139   2.146   1.561  0.5514 -0.7476 -1.3358
13367TIP3   OH261591   6.686   6.336   2.268 -0.0028  0.0082 -0.6795
13367TIP3    H161592   6.732   6.336   2.184 -0.0618 -0.2043 -0.7113
13367TIP3    H261593   6.753   6.313   2.332 -0.0948 -0.4330 -0.7419
13368TIP3   OH261594   6.505   4.404  12.015  0.1235 -0.3486  0.1213
13368TIP3    H161595   6.552   4.352  12.080 -1.2725 -2.1367 -0.2114
13368TIP3    H261596   6.530   4.366  11.931 -0.9724 -0.5327 -0.1300
13369TIP3   OH261597   6.421   3.041  16.355  0.0131 -0.2655  0.0864
13369TIP3    H161598   6.454   2.955  16.327  1.3876  0.7448 -1.5322
13369TIP3    H261599   6.446   3.101  16.285 -0.5259  1.5706  1.3844
13370TIP3   OH261600   6.246   3.053  14.723 -0.0627  0.5030  0.0864
13370TIP3    H161601   6.296   3.098  14.790 -0.4638  1.1899 -0.0670
13370TIP3    H261602   6.249   3.111  14.647 -0.5445  0.2539 -0.1309
13371TIP3   OH261603   5.657   4.950  13.693 -0.4213  0.2755  0.3947
13371TIP3    H161604   5.628   5.041  13.684 -1.9827 -0.0835  1.2797
13371TIP3    H261605   5.752   4.954  13.685 -0.5192  1.8750 -0.3839
13372TIP3   OH261606   2.249   5.289   2.089  0.1945  0.1584  0.2156
13372TIP3    H161607   2.193   5.228   2.136  0.5646  0.6995  1.4085
13372TIP3    H261608   2.191   5.331   2.025 -1.1175  1.5535  2.1861
13373TIP3   OH261609   6.226   2.124   1.953  0.1012 -0.4378  0.0249
13373TIP3    H161610   6.234   2.125   1.858 -1.0968  0.8888 -0.0898
13373TIP3    H261611   6.266   2.207   1.981 -0.5391 -0.3135  0.5835
13374TIP3   OH261612   2.654   4.605  14.236  0.3023 -0.0947 -0.4315
13374TIP3    H161613   2.735   4.565  14.268  1.0410  1.9646  0.3877
13374TIP3    H261614   2.594   4.599  14.310  0.5069  0.5506 -0.2113
13375TIP3   OH261615   3.732   6.214   3.806  0.1063 -0.1559  0.1951
13375TIP3    H161616   3.797   6.193   3.873  0.0789  1.1108  0.6623
13375TIP3    H261617   3.693   6.296   3.837 -1.7970 -0.9417 -0.0209
13376TIP3   OH261618   0.777   6.741   4.453  0.4750  0.2009 -0.0519
13376TIP3    H161619   0.756   6.815   4.397  0.2525 -0.3813 -0.7575
13376TIP3    H261620   0.867   6.757   4.482  0.4165  0.7563 -0.1746
13377TIP3   OH261621   4.197   4.502   1.247  0.5829  0.5361  0.3136
13377TIP3    H161622   4.210   4.554   1.326  1.4929  1.7385 -0.5850
13377TIP3    H261623   4.268   4.529   1.188  1.3903 -2.0993 -0.0359
13378TIP3   OH261624   1.488   0.063  16.703  0.1265 -0.2282  0.9148
13378TIP3    H161625   1.484   0.126  16.631  1.3297 -0.8870  0.2304
13378TIP3    H261626   1.396   0.041  16.720 -0.4242  2.4773  1.9273
13379TIP3   OH261627   1.265   5.715   1.196  0.0135  0.2573 -0.4959
13379TIP3    H161628   1.205   5.759   1.135 -0.4655 -0.6404 -0.6878
13379TIP3    H261629   1.344   5.769   1.194 -1.1150  2.0732  0.5502
13380TIP3   OH261630   1.705   3.331  16.489  0.2411  0.1288  0.6546
13380TIP3    H161631   1.697   3.418  16.449 -0.6745 -1.2891 -2.5979
13380TIP3    H261632   1.615   3.302  16.501  0.5426 -0.3342  1.8947
13381TIP3   OH261633   2.400   1.987   1.780  0.2323  0.0910 -0.0518
13381TIP3    H161634   2.360   2.020   1.700 -2.7967 -3.3311 -0.2574
13381TIP3    H261635   2.345   2.023   1.851 -2.5507 -3.2507 -0.2336
13382TIP3   OH261636   1.530   5.570  16.741 -0.0119 -1.2593  0.5747
13382TIP3    H161637   1.467   5.498  16.737 -0.4260 -0.8798  0.2649
13382TIP3    H261638   1.487   5.642  16.696  0.6450 -0.9972  0.3645
13383TIP3   OH261639   3.456   6.094   1.232  0.5220 -0.3867  0.2886
13383TIP3    H161640   3.425   6.117   1.319 -0.3272  1.4621 -0.4479
13383TIP3    H261641   3.520   6.161   1.210 -0.2331 -0.0474 -1.0129
13384TIP3   OH261642   6.230   3.354  13.133 -0.1683  0.3432  0.4679
13384TIP3    H161643   6.296   3.422  13.122 -0.5978  0.4965 -1.6921
13384TIP3    H261644   6.279   3.272  13.129 -0.0459  0.4603 -1.0390
13385TIP3   OH261645   1.744   5.863  11.464 -0.4144 -0.1419  0.0852
13385TIP3    H161646   1.691   5.813  11.526 -0.2301  1.0066  1.2065
13385TIP3    H261647   1.814   5.803  11.438 -0.4724 -0.6241  1.0216
13386TIP3   OH261648   4.603   2.532  11.623  0.1206  0.3549  0.6873
13386TIP3    H161649   4.591   2.555  11.716  1.2524  1.4842  0.5875
13386TIP3    H261650   4.562   2.447  11.614 -1.2880  0.8556  1.8997
13387TIP3   OH261651   2.409   0.115   3.285  0.0970  0.3220 -0.1322
13387TIP3    H161652   2.357   0.035   3.291 -2.2790  1.6338 -1.6993
13387TIP3    H261653   2.473   0.097   3.216 -0.5058 -0.2230 -0.5678
13388TIP3   OH261654   4.999   3.804  11.297  0.2508  0.0263  0.0180
13388TIP3    H161655   4.991   3.708  11.292  0.7829  0.0025 -0.6089
13388TIP3    H261656   4.946   3.829  11.373  0.4802 -0.8125  0.4707
13389TIP3   OH261657   0.619   4.949   2.427 -0.4568  0.0750 -0.5259
13389TIP3    H161658   0.537   4.976   2.385 -0.2382  1.5916 -0.0345
13389TIP3    H261659   0.598   4.945   2.520  0.1980  1.1851 -0.3196
13390TIP3   OH261660   4.091   5.293   4.886  0.6926  0.7397 -0.4773
13390TIP3    H161661   4.172   5.242   4.890  0.8394  0.7087 -2.9020
13390TIP3    H261662   4.032   5.248   4.947  1.7636 -0.5553 -0.3477
13391TIP3   OH261663   5.890   2.005   4.538 -0.3127  0.2136  0.5582
13391TIP3    H161664   5.980   2.020   4.511 -1.1528  1.0099 -2.1089
13391TIP3    H261665   5.869   1.917   4.506 -0.4396 -0.0489  1.3433
13392TIP3   OH261666   3.571   4.829  13.767  0.3077  0.1565  0.4945
13392TIP3    H161667   3.501   4.813  13.703 -1.6204  2.4755  1.8715
13392TIP3    H261668   3.647   4.853  13.713  0.0279 -2.0345 -1.0290
13393TIP3   OH261669   6.189   4.261   3.583  0.2356  0.6709  0.1014
13393TIP3    H161670   6.165   4.175   3.548 -0.2277  0.8017  0.1014
13393TIP3    H261671   6.127   4.277   3.653  1.5352  0.1389  1.4300
13394TIP3   OH261672   2.782   6.839   2.313 -0.1615 -0.4874 -0.3761
13394TIP3    H161673   2.787   6.747   2.341 -3.1496 -1.0856 -1.4710
13394TIP3    H261674   2.723   6.879   2.376  1.8157  1.0090  0.6324
13395TIP3   OH261675   3.932   5.697   2.357 -0.3327 -0.1339 -0.0067
13395TIP3    H161676   3.937   5.781   2.311 -0.5329 -0.1782 -0.1093
13395TIP3    H261677   3.857   5.706   2.416 -0.5522 -0.3515 -0.2467
13396TIP3   OH261678   0.735   2.360   2.879  0.0660 -0.0519  0.5061
13396TIP3    H161679   0.640   2.354   2.880 -0.0946  1.9475  0.9295
13396TIP3    H261680   0.755   2.423   2.810  0.9823  0.5730  1.3055
13397TIP3   OH261681   5.140   0.634   2.730  0.2405  0.1798 -0.0779
13397TIP3    H161682   5.182   0.551   2.755  0.2638  0.5059  1.0034
13397TIP3    H261683   5.053   0.608   2.700  0.7465 -0.3716 -1.1408
13398TIP3   OH261684   3.622   4.670  16.172  0.2122 -0.2496 -0.0088
13398TIP3    H161685   3.535   4.630  16.164  0.4576 -0.3261 -4.6659
13398TIP3    H261686   3.604   4.761  16.196 -1.0965 -0.5007  0.0586
13399TIP3   OH261687   1.437   6.659  15.555 -0.3674 -0.3301  0.7513
13399TIP3    H161688   1.348   6.637  15.530 -0.2357 -0.5398  0.4475
13399TIP3    H261689   1.490   6.634  15.479 -0.1184  0.3389  0.7009
13400TIP3   OH261690   5.707   3.693  11.198 -0.1812  0.2858  0.2675
13400TIP3    H161691   5.793   3.651  11.194 -0.9668 -1.3828 -0.1762
13400TIP3    H261692   5.684   3.712  11.107 -1.5224 -2.1056  0.0009
13401TIP3   OH261693   6.073   0.095   1.959 -0.3182  0.0754  0.1738
13401TIP3    H161694   6.144   0.080   1.897 -1.3976  0.2703 -1.1291
13401TIP3    H261695   6.091   0.034   2.031  2.9460  2.3116  1.4902
13402TIP3   OH261696   4.587   0.482  15.027 -0.2176 -0.1759  0.3107
13402TIP3    H161697   4.511   0.470  15.084 -0.2286 -0.2580  0.2791
13402TIP3    H261698   4.558   0.545  14.961  0.2056  0.9271  1.1471
13403TIP3   OH261699   4.237   5.129   2.114  0.3367 -1.0309 -0.2226
13403TIP3    H161700   4.161   5.187   2.101  0.4253 -1.4187 -2.9987
13403TIP3    H261701   4.278   5.162   2.194 -1.7116  0.3563  0.3469
13404TIP3   OH261702   3.911   3.656   3.958  0.3500 -0.0394 -0.1425
13404TIP3    H161703   3.853   3.642   4.033 -1.7930 -0.8249 -1.8367
13404TIP3    H261704   3.886   3.742   3.924  0.9474  0.0859 -0.2731
13405TIP3   OH261705   3.618   2.477  12.987 -0.5449 -0.0257 -0.2289
13405TIP3    H161706   3.650   2.424  13.060 -0.8861  3.4636  2.7760
13405TIP3    H261707   3.523   2.462  12.985 -0.6537  0.4483  0.6818
13406TIP3   OH261708   6.416   0.261   2.247  0.6857  0.3282  0.2901
13406TIP3    H161709   6.498   0.221   2.273  0.3972 -0.7995 -0.4970
13406TIP3    H261710   6.349   0.198   2.273  0.2062  0.4170 -0.6855
13407TIP3   OH261711   1.712   3.610   0.417  0.3074  0.2404 -0.0309
13407TIP3    H161712   1.691   3.680   0.480  1.0625  1.6558 -1.2782
13407TIP3    H261713   1.648   3.621   0.347 -1.4884 -2.2673  1.0834
13408TIP3   OH261714   5.287   1.482   2.152  0.3279  0.0891 -0.8017
13408TIP3    H161715   5.284   1.516   2.241  0.1086 -1.2257 -0.2922
13408TIP3    H261716   5.215   1.419   2.147  2.8705 -3.0972 -0.4966
13409TIP3   OH261717   5.410   2.436   0.577  0.2962  0.4206  0.5559
13409TIP3    H161718   5.438   2.419   0.667  1.0579  0.3741  0.3244
13409TIP3    H261719   5.468   2.381   0.523  0.2094  0.8498  0.0117
13410TIP3   OH261720   1.213   4.379   4.296  0.0210  1.2213 -0.2222
13410TIP3    H161721   1.307   4.394   4.308  0.6627 -0.7053 -2.2678
13410TIP3    H261722   1.207   4.290   4.262 -2.5169  1.5099 -0.6869
13411TIP3   OH261723   5.506   6.151  11.615 -0.4190 -0.6347 -0.3322
13411TIP3    H161724   5.472   6.077  11.666 -0.9790 -0.8471 -0.9971
13411TIP3    H261725   5.464   6.142  11.530 -1.5541  1.1975 -0.0142
13412TIP3   OH261726   1.472   0.716   6.424 -0.4811  0.1974 -0.1975
13412TIP3    H161727   1.441   0.726   6.334  0.2413 -1.1320 -0.6221
13412TIP3    H261728   1.540   0.649   6.419  0.1136  0.6392  1.2269
13413TIP3   OH261729   2.898   6.261   2.434  0.1354  0.2282  0.0389
13413TIP3    H161730   2.858   6.309   2.506 -0.0072  1.9055 -1.0899
13413TIP3    H261731   2.824   6.227   2.383  0.2257 -2.1372  1.3527
13414TIP3   OH261732   2.367   4.132   3.686  0.2924  0.4960  0.2563
13414TIP3    H161733   2.450   4.133   3.732 -0.0062  0.9281  0.7997
13414TIP3    H261734   2.311   4.191   3.737  0.4204  2.2651 -1.5329
13415TIP3   OH261735   4.464   4.064  11.297 -0.0366  0.1803  0.5297
13415TIP3    H161736   4.533   4.005  11.328 -0.5747 -0.3737  0.6770
13415TIP3    H261737   4.384   4.033  11.339 -0.1925  1.5276  1.2643
13416TIP3   OH261738   6.291   1.314  15.112  0.0712 -0.4674 -0.7562
13416TIP3    H161739   6.310   1.408  15.116  0.6040 -0.6096  0.8579
13416TIP3    H261740   6.368   1.273  15.152 -0.3412 -1.5611 -1.0694
13417TIP3   OH261741   6.660   2.580   3.590 -0.2447  0.0901  0.2259
13417TIP3    H161742   6.608   2.508   3.554  0.0457  0.1965 -0.4195
13417TIP3    H261743   6.597   2.630   3.643 -0.9066  0.4092 -0.8143
13418TIP3   OH261744   0.042   6.410   4.580  0.2824 -0.6592  0.4258
13418TIP3    H161745   0.044   6.431   4.486  2.7170 -1.3459  0.2669
13418TIP3    H261746  -0.037   6.357   4.591  1.0314 -2.3512 -1.6677
13419TIP3   OH261747   0.446   5.586   3.828 -0.1304  0.6900  0.4768
13419TIP3    H161748   0.476   5.677   3.827  0.6172  0.4600 -1.0419
13419TIP3    H261749   0.435   5.564   3.736 -3.7041  0.2954  0.8764
13420TIP3   OH261750   4.969   1.653   2.504  0.8666 -0.1085 -0.3538
13420TIP3    H161751   4.879   1.642   2.475  1.3382  1.7688 -2.9120
13420TIP3    H261752   5.019   1.591   2.449  1.2958  0.0192 -0.1131
13421TIP3   OH261753   4.081   5.713   1.221  0.1819 -0.3963 -0.3275
13421TIP3    H161754   4.112   5.696   1.133  1.5388  1.2242 -0.2289
13421TIP3    H261755   4.015   5.782   1.211 -0.3182 -0.8379 -0.1434
13422TIP3   OH261756   5.972   1.475   2.951 -0.1789  0.3810 -0.0887
13422TIP3    H161757   6.038   1.535   2.984  0.3626  0.7111 -1.6766
13422TIP3    H261758   5.893   1.528   2.941 -0.4008  0.2381  0.7652
13423TIP3   OH261759   1.836   1.333   3.541  0.1131  0.0181  0.2390
13423TIP3    H161760   1.837   1.425   3.566  0.4392  0.0708  0.0353
13423TIP3    H261761   1.896   1.291   3.603 -1.4344 -0.3755  1.5251
13424TIP3   OH261762   4.458   0.357   3.001  0.2249 -0.2312 -0.1409
13424TIP3    H161763   4.415   0.271   3.001  0.4623 -0.3540 -0.6840
13424TIP3    H261764   4.551   0.338   2.987  0.2669  0.1246 -0.3588
13425TIP3   OH261765   5.912   0.228  15.976  0.3983  0.1837  1.0513
13425TIP3    H161766   5.894   0.252  16.067 -1.4501  0.9259  0.5184
13425TIP3    H261767   5.831   0.190  15.944  1.7800 -2.5518  0.4150
13426TIP3   OH261768   0.875   3.022   3.224 -0.2695  0.1363 -0.1856
13426TIP3    H161769   0.937   2.994   3.157 -0.9613 -0.6240 -0.5293
13426TIP3    H261770   0.803   2.958   3.218 -0.7260  0.5518  0.7116
13427TIP3   OH261771   0.133   4.201   0.475 -0.3905  0.7112  0.0273
13427TIP3    H161772   0.100   4.123   0.521 -1.7569  1.6542  0.7273
13427TIP3    H261773   0.089   4.198   0.390  0.2643  0.2477 -0.3009
13428TIP3   OH261774   6.415   4.100   6.226  0.3434  0.1819  0.5850
13428TIP3    H161775   6.386   4.176   6.278  1.4596  0.6418  0.5640
13428TIP3    H261776   6.502   4.125   6.194 -0.0779 -0.3370 -1.0419
13429TIP3   OH261777   5.501   2.787   5.903 -0.5394  0.3679 -0.1246
13429TIP3    H161778   5.428   2.747   5.857  1.4177 -0.3396 -2.8296
13429TIP3    H261779   5.548   2.713   5.942 -0.5039  0.6957  0.4661
13430TIP3   OH261780   3.438   6.661   5.475  0.3907 -0.3741  0.3977
13430TIP3    H161781   3.467   6.689   5.561 -0.3970  0.3389  0.4480
13430TIP3    H261782   3.504   6.694   5.415  0.1355  0.5056  0.5867
13431TIP3   OH261783   3.551   4.964  16.225 -0.1462  0.2258  0.4887
13431TIP3    H161784   3.471   4.958  16.277  0.6775 -0.5597  1.7034
13431TIP3    H261785   3.565   5.058  16.213 -0.8772  0.3889  0.8431
13432TIP3   OH261786   6.682   4.030  11.157 -0.6654 -0.2195  0.5915
13432TIP3    H161787   6.647   4.084  11.086 -0.6464 -0.0870  0.6823
13432TIP3    H261788   6.622   3.956  11.162  0.0284 -0.8644 -0.3862
13433TIP3   OH261789   6.015   3.523   2.503  0.2212 -0.0171  0.3061
13433TIP3    H161790   5.938   3.551   2.453 -0.7518 -2.0986  0.5405
13433TIP3    H261791   5.986   3.522   2.594  1.0337  0.7389  0.5867
13434TIP3   OH261792   1.397   3.202  13.729  0.1347 -0.1443  0.1129
13434TIP3    H161793   1.394   3.149  13.809  1.5073 -0.9815 -0.3619
13434TIP3    H261794   1.413   3.291  13.760 -2.2856  0.0811  0.9324
13435TIP3   OH261795   3.742   0.077   2.502 -0.9092 -0.6956 -0.4688
13435TIP3    H161796   3.712   0.039   2.585 -1.3939  0.4436 -0.0846
13435TIP3    H261797   3.835   0.095   2.516 -0.8071 -1.2313 -0.4588
13436TIP3   OH261798   3.285   1.624   5.351 -0.0637  0.6063  0.3453
13436TIP3    H161799   3.304   1.653   5.440  1.5697  0.4594  0.0704
13436TIP3    H261800   3.357   1.564   5.329  1.0273  2.6186 -1.9960
13437TIP3   OH261801   0.768   6.126   5.666 -0.3554 -0.4618 -0.4727
13437TIP3    H161802   0.773   6.036   5.697 -2.3611 -0.4790 -0.0546
13437TIP3    H261803   0.824   6.128   5.588 -0.4057 -2.0990 -0.5744
13438TIP3   OH261804   4.018   4.909   5.573 -0.0611 -0.1286 -0.0839
13438TIP3    H161805   4.053   4.820   5.565  0.1950 -0.0592  0.2123
13438TIP3    H261806   4.027   4.947   5.486  1.5195  0.2107  0.1984
13439TIP3   OH261807   5.909   0.691   3.398 -0.0037  0.3567  0.0825
13439TIP3    H161808   5.890   0.782   3.377 -1.2703  0.4815  1.5756
13439TIP3    H261809   5.988   0.670   3.348 -0.2934  1.9421 -1.0876
13440TIP3   OH261810   5.985   3.460   1.120  0.4134 -0.1250 -0.6852
13440TIP3    H161811   6.067   3.458   1.170  0.6765  0.6082 -1.0663
13440TIP3    H261812   5.998   3.397   1.049 -0.2342 -1.7077  0.5499
13441TIP3   OH261813   5.347   3.801   3.848  0.2954 -0.4803 -0.0790
13441TIP3    H161814   5.411   3.854   3.801  0.1824 -0.7811 -0.5804
13441TIP3    H261815   5.265   3.811   3.798 -0.5032  1.2315  1.4746
13442TIP3   OH261816   1.420   1.421   0.174 -1.0163 -0.4300 -0.4200
13442TIP3    H161817   1.459   1.472   0.103  0.0610 -0.1339  0.3690
13442TIP3    H261818   1.486   1.356   0.197 -0.3491  0.9194  1.8272
13443TIP3   OH261819   0.155   3.872   1.900 -0.6603  0.2942  0.0273
13443TIP3    H161820   0.109   3.791   1.879 -0.4914  0.4640 -1.0279
13443TIP3    H261821   0.164   3.870   1.996 -3.8951  0.8173  0.4547
13444TIP3   OH261822   4.150   1.877  10.960  0.1144  0.0800 -0.4738
13444TIP3    H161823   4.107   1.825  10.892 -0.7357 -1.9904  1.4882
13444TIP3    H261824   4.080   1.896  11.023  1.4456 -0.9397  1.4240
13445TIP3   OH261825   6.496   3.696   4.393  0.1421  0.2638  0.5301
13445TIP3    H161826   6.401   3.702   4.376  0.3228  0.7470 -0.3609
13445TIP3    H261827   6.524   3.620   4.343  0.3450  0.5467  0.2083
13446TIP3   OH261828   3.687   0.188  13.262 -0.2101 -0.6902 -0.1006
13446TIP3    H161829   3.693   0.098  13.230  1.4844 -0.8520  0.5518
13446TIP3    H261830   3.770   0.228  13.236 -0.4284  0.3133  0.6818
13447TIP3   OH261831   1.362   2.496   1.179 -0.2038 -1.0603 -0.2574
13447TIP3    H161832   1.317   2.468   1.099  2.3703 -2.0671 -1.4863
13447TIP3    H261833   1.353   2.422   1.239 -0.6362 -1.0399 -0.2987
13448TIP3   OH261834   6.045   1.805   3.636  0.0107 -0.2458  0.3371
13448TIP3    H161835   6.019   1.860   3.710  0.6038  1.5766 -0.7479
13448TIP3    H261836   5.965   1.759   3.611 -0.3732 -0.3085  1.6360
13449TIP3   OH261837   0.022   3.249   5.438  0.4773  0.1051 -0.5044
13449TIP3    H161838   0.024   3.157   5.411  0.9881 -0.3353  0.9334
13449TIP3    H261839  -0.070   3.267   5.456  0.3548 -0.0740 -0.9366
13450TIP3   OH261840   4.410   1.547   1.073  0.0628 -0.0076 -0.1697
13450TIP3    H161841   4.407   1.598   1.154  1.0594 -0.7570  0.3593
13450TIP3    H261842   4.345   1.478   1.085 -1.3332  1.1321 -0.9118
13451TIP3   OH261843   1.568   2.205   4.345  0.1025 -0.0326  0.3566
13451TIP3    H161844   1.595   2.129   4.397 -0.5927 -0.9210 -0.5479
13451TIP3    H261845   1.473   2.207   4.353  0.0477  0.2548 -0.2969
13452TIP3   OH261846   5.869   2.921   6.329  0.9279 -0.3312  0.3028
13452TIP3    H161847   5.845   2.892   6.416  1.7573 -0.0460  0.6406
13452TIP3    H261848   5.923   2.850   6.294  3.8037  1.0899  1.5112
13453TIP3   OH261849   1.741   4.397   2.514  0.0968  0.2006  0.2252
13453TIP3    H161850   1.737   4.473   2.456 -0.8056  1.7581  2.2188
13453TIP3    H261851   1.668   4.342   2.487  1.7584 -0.9490 -2.3780
13454TIP3   OH261852   3.768   6.091   5.674  0.2269 -0.2148 -0.7360
13454TIP3    H161853   3.848   6.118   5.719  0.3216  2.0905 -2.1146
13454TIP3    H261854   3.796   6.019   5.618  0.5306 -1.7628  1.2992
13455TIP3   OH261855   1.414   5.121  13.236 -0.0013 -0.1563 -0.0264
13455TIP3    H161856   1.437   5.143  13.326  0.4572  0.9511 -0.3917
13455TIP3    H261857   1.457   5.188  13.183 -1.9997  0.5113 -0.9317
13456TIP3   OH261858   5.739   2.196  11.718  0.4744  0.0919  0.1637
13456TIP3    H161859   5.752   2.107  11.686  0.5769  0.2447 -0.2222
13456TIP3    H261860   5.681   2.236  11.654  1.4881  0.7169 -0.3812
13457TIP3   OH261861   6.190   6.315  15.886 -0.4113 -0.4052 -0.9629
13457TIP3    H161862   6.212   6.226  15.914 -0.6801 -0.2221 -0.1357
13457TIP3    H261863   6.262   6.369  15.919 -1.8232  0.1496  1.4669
13458TIP3   OH261864   4.568   4.057  14.283 -0.1945 -0.1551  0.7040
13458TIP3    H161865   4.543   4.074  14.374  0.1846  2.0148  0.4585
13458TIP3    H261866   4.612   4.138  14.255 -0.0326 -0.8951 -1.3153
13459TIP3   OH261867   0.374   2.262   0.632 -0.4465 -0.2347  0.4138
13459TIP3    H161868   0.363   2.196   0.701  0.7826 -0.4961  0.3872
13459TIP3    H261869   0.285   2.282   0.603 -0.9168 -0.8647  1.3808
13460TIP3   OH261870   3.779   2.667   5.715 -0.2110  0.5582  0.6874
13460TIP3    H161871   3.734   2.595   5.672  0.9534 -0.5362  1.2357
13460TIP3    H261872   3.777   2.645   5.808 -0.2569  1.4860  0.9146
13461TIP3   OH261873   5.715   6.691  11.173  0.4062 -0.7759  0.1379
13461TIP3    H161874   5.741   6.675  11.264  1.0187  0.9987  0.3209
13461TIP3    H261875   5.637   6.746  11.181  0.2011 -0.9826 -0.4180
13462TIP3   OH261876   3.267   4.689  12.692 -0.3136 -0.2638  0.2502
13462TIP3    H161877   3.213   4.726  12.621  1.0111  0.5135 -0.4066
13462TIP3    H261878   3.213   4.696  12.770 -1.0664  0.7526 -0.3390
13463TIP3   OH261879   5.426   1.550  13.874  0.8680  0.1308 -0.2985
13463TIP3    H161880   5.339   1.547  13.915  2.2896 -0.2608  3.0134
13463TIP3    H261881   5.476   1.611  13.929  2.7608  0.1917 -1.9870
13464TIP3   OH261882   1.151   6.836  14.740  0.2320  0.9168  0.1189
13464TIP3    H161883   1.071   6.875  14.773  0.0432  1.2987 -0.7444
13464TIP3    H261884   1.176   6.771  14.806 -2.5496 -1.5556 -1.0305
13465TIP3   OH261885   6.274   1.092   3.938 -0.2010 -0.1453  0.0182
13465TIP3    H161886   6.248   1.141   3.860 -1.3148  1.1857  1.1648
13465TIP3    H261887   6.192   1.061   3.975 -0.1096  2.2255  2.5125
13466TIP3   OH261888   0.205   5.391  13.185 -0.0024  0.5745 -0.3258
13466TIP3    H161889   0.249   5.320  13.139  2.0177  1.7328 -0.2888
13466TIP3    H261890   0.186   5.456  13.118 -0.0959  0.8191 -0.0666
13467TIP3   OH261891   5.541   5.951   2.475 -0.8846  0.0683 -0.2713
13467TIP3    H161892   5.520   5.999   2.555 -1.6402 -1.2872  0.3812
13467TIP3    H261893   5.463   5.897   2.458  0.1686 -1.4273 -0.5789
13468TIP3   OH261894   4.264   4.442  16.081  0.3302 -0.7380 -0.2285
13468TIP3    H161895   4.302   4.500  16.015 -2.6715  1.8038  0.0800
13468TIP3    H261896   4.231   4.368  16.031  2.2923 -1.2328 -0.8952
13469TIP3   OH261897   2.201   1.902  10.968  0.2076 -0.2005 -0.3878
13469TIP3    H161898   2.127   1.958  10.992  1.5394  1.1487  0.8001
13469TIP3    H261899   2.279   1.955  10.990  1.5315 -2.2325  0.0755
13470TIP3   OH261900   1.534   1.883  13.018 -0.0020 -0.0608 -0.2866
13470TIP3    H161901   1.446   1.846  13.018  0.1735 -0.6769  2.8475
13470TIP3    H261902   1.591   1.813  13.049  1.1951  1.1031  0.2871
13471TIP3   OH261903   1.186   6.077   4.582 -0.0887  0.3402  0.1947
13471TIP3    H161904   1.214   6.086   4.491 -3.0402  1.5451 -0.7100
13471TIP3    H261905   1.246   6.013   4.620  3.2725  2.1503 -1.6439
13472TIP3   OH261906   1.797   5.463   1.895 -0.3056  0.6034  0.5360
13472TIP3    H161907   1.723   5.439   1.950 -0.0775  0.4434  0.7782
13472TIP3    H261908   1.781   5.419   1.811  0.4734 -1.0481  1.2041
13473TIP3   OH261909   2.015   0.190   2.388  0.6617 -0.6155  0.1075
13473TIP3    H161910   2.105   0.223   2.395  0.1098  1.2881 -1.0723
13473TIP3    H261911   1.979   0.201   2.476  1.2134 -0.2643  0.2953
13474TIP3   OH261912   6.532   5.674   3.276  0.2706  0.2359  0.5111
13474TIP3    H161913   6.456   5.726   3.301 -0.0178 -0.7989  1.9198
13474TIP3    H261914   6.530   5.599   3.335  0.8333 -1.2480 -1.2662
13475TIP3   OH261915   1.915   3.993  16.934 -0.1794 -0.1061  0.5032
13475TIP3    H161916   1.865   4.016  16.857 -1.1325 -0.3527  1.0359
13475TIP3    H261917   2.006   4.011  16.910 -0.5130  0.3189 -0.4803
13476TIP3   OH261918   3.012   6.871  15.083 -0.0533  0.2141 -0.0714
13476TIP3    H161919   3.031   6.780  15.103 -2.1126 -0.0725  0.7433
13476TIP3    H261920   3.074   6.894  15.013  1.2329 -1.4458  0.4675
13477TIP3   OH261921   4.648   2.275   4.547 -0.8019 -0.0133 -0.6132
13477TIP3    H161922   4.690   2.198   4.585  0.0799  0.5492 -0.4156
13477TIP3    H261923   4.634   2.251   4.455  2.5225  0.7309 -1.4361
13478TIP3   OH261924   0.349   5.462   2.174 -0.1346 -0.1753  0.8825
13478TIP3    H161925   0.274   5.414   2.138  1.5464 -0.6083 -2.3849
13478TIP3    H261926   0.417   5.395   2.185  0.8011  0.7263  0.6899
13479TIP3   OH261927   4.714   2.634   6.035  0.3364  0.0142 -0.8767
13479TIP3    H161928   4.675   2.709   6.081 -1.8677 -0.5493 -1.6868
13479TIP3    H261929   4.741   2.670   5.951  1.9617  0.4662 -0.2149
13480TIP3   OH261930   6.812   3.623   1.689  0.6220  1.0434  0.2987
13480TIP3    H161931   6.766   3.662   1.763 -0.5608 -0.9181  0.6652
13480TIP3    H261932   6.772   3.537   1.678  2.5214  0.2515 -1.0003
13481TIP3   OH261933   0.053   5.077   0.294  0.1196  0.4518 -0.0097
13481TIP3    H161934   0.030   5.056   0.385 -0.9894 -1.0812 -0.6046
13481TIP3    H261935   0.062   5.172   0.294  0.0644  0.4984  1.6868
13482TIP3   OH261936   1.389   1.361  15.189 -0.2080  1.0376 -0.4182
13482TIP3    H161937   1.366   1.413  15.112  0.7553  0.2756 -1.2593
13482TIP3    H261938   1.485   1.352  15.184 -0.0836  1.3361  1.1125
13483TIP3   OH261939   6.395   3.685   5.739 -0.5127  0.7390 -0.0667
13483TIP3    H161940   6.434   3.730   5.814  1.1595 -1.7574  0.7135
13483TIP3    H261941   6.444   3.717   5.664  0.1736  0.7482  0.3767
13484TIP3   OH261942   2.161   6.479  16.846 -0.2284 -0.3380  0.0413
13484TIP3    H161943   2.234   6.488  16.785 -0.5404  1.1845 -0.1449
13484TIP3    H261944   2.185   6.534  16.921 -1.4706  0.7771 -0.3321
13485TIP3   OH261945   1.924   0.652  13.791 -0.6643  0.0039  0.1325
13485TIP3    H161946   1.934   0.745  13.771 -1.6453  0.1015  0.0553
13485TIP3    H261947   1.978   0.639  13.869  0.9076  0.2348 -0.8680
13486TIP3   OH261948   4.079   5.353  14.354  0.1189 -0.3165  0.1288
13486TIP3    H161949   4.142   5.314  14.414  0.4964 -0.1000 -0.1250
13486TIP3    H261950   4.005   5.291  14.353 -1.3506  1.1340  3.2809
13487TIP3   OH261951   1.734   2.346  16.161 -0.1821  0.2737 -0.2776
13487TIP3    H161952   1.773   2.412  16.104 -1.2177  1.0878 -0.0452
13487TIP3    H261953   1.690   2.395  16.229 -0.7266 -0.6646  0.0634
13488TIP3   OH261954   0.150   5.476   2.956 -0.3602  0.2937  0.2182
13488TIP3    H161955   0.101   5.416   2.899 -0.2954 -0.1559  0.6352
13488TIP3    H261956   0.240   5.472   2.923 -0.7321  1.7793 -1.1083
13489TIP3   OH261957   0.316   4.385  10.459 -0.1769  0.1463 -0.1027
13489TIP3    H161958   0.278   4.473  10.464 -0.8441 -0.0754 -0.9934
13489TIP3    H261959   0.308   4.361  10.367  1.1787 -0.3468 -0.1156
13490TIP3   OH261960   4.131   0.424  14.483 -0.0791  0.7090 -0.2824
13490TIP3    H161961   4.138   0.375  14.566 -3.3958 -0.9847 -0.8479
13490TIP3    H261962   4.109   0.513  14.510 -0.5237  0.3277  0.6950
13491TIP3   OH261963   4.269   3.937  13.113 -0.5897  0.4091 -0.2953
13491TIP3    H161964   4.248   3.931  13.206 -1.2304  0.8313 -0.4058
13491TIP3    H261965   4.211   4.005  13.079  1.6559  2.3373 -0.4464
13492TIP3   OH261966   2.523   0.414   1.404 -0.0943 -0.1921 -0.2363
13492TIP3    H161967   2.440   0.400   1.450  0.2791 -1.8568  0.0201
13492TIP3    H261968   2.579   0.456   1.469 -1.0892  2.2302 -0.8281
13493TIP3   OH261969   3.314   4.267  14.095  0.1826 -0.0846 -0.3059
13493TIP3    H161970   3.245   4.288  14.158  0.9358 -0.6816  0.7570
13493TIP3    H261971   3.300   4.174  14.076  1.4150 -0.5439  0.8848
13494TIP3   OH261972   4.801   4.152  15.018 -0.0455  0.1214 -0.3166
13494TIP3    H161973   4.895   4.149  15.034 -0.0260  2.6552  0.3941
13494TIP3    H261974   4.765   4.193  15.096 -1.8386 -1.2976 -0.3420
13495TIP3   OH261975   1.331   3.276   1.845 -0.1302 -0.1447 -0.2130
13495TIP3    H161976   1.281   3.269   1.926  1.5512  1.0388  1.0091
13495TIP3    H261977   1.302   3.202   1.792 -2.3536 -0.0974  0.8437
13496TIP3   OH261978   3.786   3.736   4.497  0.2829 -0.1762  0.2023
13496TIP3    H161979   3.735   3.778   4.428  0.7732 -1.6890 -1.1411
13496TIP3    H261980   3.853   3.801   4.521 -0.9009  0.9903  0.4662
13497TIP3   OH261981   2.491   5.902  11.071 -0.3862  0.2350 -0.1465
13497TIP3    H161982   2.555   5.888  11.141 -0.7330  0.8276  0.2987
13497TIP3    H261983   2.500   5.995  11.050 -1.1263  0.3277 -0.0564
13498TIP3   OH261984   4.647   1.414  12.539  0.3147 -0.3423  0.6687
13498TIP3    H161985   4.669   1.338  12.593 -1.2503 -1.5219 -0.2640
13498TIP3    H261986   4.551   1.419  12.545  0.2608  0.5016 -0.6845
13499TIP3   OH261987   4.618   6.556   0.199  0.3641  0.1412  0.3023
13499TIP3    H161988   4.534   6.576   0.157  0.6611  2.8973  0.8476
13499TIP3    H261989   4.656   6.487   0.144 -1.7151 -0.3213 -0.6419
13500TIP3   OH261990   6.160   4.694   2.670  0.3691 -0.0992 -0.7359
13500TIP3    H161991   6.084   4.684   2.727  0.0928 -0.5217 -1.1694
13500TIP3    H261992   6.134   4.762   2.608  0.2460 -0.4197 -1.0387
13501TIP3   OH261993   2.730   5.167  15.968  0.0601  0.4343 -0.4855
13501TIP3    H161994   2.664   5.112  16.009  0.1586  0.2462 -0.5822
13501TIP3    H261995   2.792   5.188  16.038  0.2763  0.0403 -0.5585
13502TIP3   OH261996   2.469   3.094   3.087 -0.3851  0.2634  0.1280
13502TIP3    H161997   2.547   3.066   3.038 -0.8108  0.6299 -0.7736
13502TIP3    H261998   2.395   3.072   3.030 -0.9938 -0.6814  1.2637
13503TIP3   OH261999   2.036   3.813   2.152 -0.7750  1.0541 -0.4751
13503TIP3    H162000   2.077   3.899   2.144  1.1866  0.0728 -1.6721
13503TIP3    H262001   2.005   3.792   2.064  1.0345 -0.4699 -0.8208
13504TIP3   OH262002   0.621   4.443   2.000  0.0063  0.5119  0.0656
13504TIP3    H162003   0.688   4.488   1.949 -1.4271  2.0703 -0.5463
13504TIP3    H262004   0.557   4.414   1.935 -0.3525 -0.1667  0.7111
13505TIP3   OH262005   1.347   4.938  12.249 -0.2282 -0.1354 -0.2659
13505TIP3    H162006   1.410   4.994  12.204  1.1008  0.8791  2.6056
13505TIP3    H262007   1.384   4.850  12.244 -0.4710 -0.1812 -1.6677
13506TIP3   OH262008   1.178   6.785   1.627 -0.4342 -0.2053 -0.3999
13506TIP3    H162009   1.154   6.740   1.546  0.0799  0.7058 -1.0833
13506TIP3    H262010   1.232   6.722   1.675  0.4336 -0.2633 -1.4202
13507TIP3   OH262011   2.367   1.214  14.810 -0.0975 -0.1363  0.0959
13507TIP3    H162012   2.398   1.299  14.780 -4.0143  1.4093 -0.0965
13507TIP3    H262013   2.341   1.228  14.901  1.8671 -1.9976  1.0357
13508TIP3   OH262014   2.565   0.462   4.925 -0.4886  0.5161  0.5319
13508TIP3    H162015   2.509   0.386   4.942 -0.7490  0.6282  0.1954
13508TIP3    H262016   2.535   0.528   4.988 -0.6079  0.5111  0.4810
13509TIP3   OH262017   6.281   4.573   3.663  0.3474 -0.1018  0.3582
13509TIP3    H162018   6.190   4.555   3.687 -0.3091  0.5826 -1.4829
13509TIP3    H262019   6.330   4.558   3.744 -1.2969 -1.1652  1.2185
13510TIP3   OH262020   0.647   1.771  15.982  0.0179  0.8866  0.0956
13510TIP3    H162021   0.736   1.746  16.007 -1.0311 -0.2346  3.1860
13510TIP3    H262022   0.658   1.829  15.906  3.1632 -1.3407 -1.3656
13511TIP3   OH262023   6.422   2.250  15.525 -0.0385  0.4179 -0.2705
13511TIP3    H162024   6.408   2.269  15.432  0.0472  0.8285 -0.2016
13511TIP3    H262025   6.449   2.159  15.527 -0.3976  0.3008 -0.6175
13512TIP3   OH262026   3.354   1.104  12.386 -0.0277 -0.0687 -0.6764
13512TIP3    H162027   3.303   1.077  12.463  0.5248 -0.0147 -0.2776
13512TIP3    H262028   3.426   1.041  12.383 -0.3857 -0.4403 -1.5197
13513TIP3   OH262029   4.902   2.103   1.304  0.4882 -0.2475  0.2797
13513TIP3    H162030   4.890   2.086   1.210 -0.5680 -2.1716  0.7151
13513TIP3    H262031   4.911   2.198   1.310  3.7249 -0.2374 -2.0892
13514TIP3   OH262032   1.730   6.357   5.918 -0.6584  0.7731  0.0068
13514TIP3    H162033   1.811   6.384   5.875 -0.0484  0.0061  0.6410
13514TIP3    H262034   1.708   6.430   5.976  1.8024 -0.5049  2.8489
13515TIP3   OH262035   3.543   0.799  11.144 -0.5781 -0.5319 -0.3765
13515TIP3    H162036   3.549   0.738  11.217 -0.7948 -0.1643 -0.0447
13515TIP3    H262037   3.622   0.852  11.151 -0.2010 -1.0168 -0.8909
13516TIP3   OH262038   4.077   0.049  12.334 -0.3467  0.2454  1.3630
13516TIP3    H162039   4.020   0.124  12.320  0.1166  0.6421  1.5775
13516TIP3    H262040   4.166   0.083  12.325 -0.1007 -0.0641  2.4041
13517TIP3   OH262041   1.982   3.903  11.718  0.2301  0.5409 -0.7890
13517TIP3    H162042   2.027   3.839  11.663  1.1061  0.0101  0.5142
13517TIP3    H262043   2.052   3.957  11.755 -0.3083  0.6910  0.0472
13518TIP3   OH262044   5.260   6.335   1.789  0.1072  0.3201 -0.1450
13518TIP3    H162045   5.213   6.269   1.738  1.0677 -0.9674  0.5755
13518TIP3    H262046   5.281   6.291   1.872 -0.8982  2.1554  1.1633
13519TIP3   OH262047   1.148   0.588  14.425  0.5759 -0.0839 -0.0449
13519TIP3    H162048   1.119   0.499  14.405  0.4293 -0.6321  2.2480
13519TIP3    H262049   1.160   0.630  14.340  0.6174 -2.2788 -1.1826
13520TIP3   OH262050   0.642   2.928  13.081  0.6317 -0.5633 -0.0726
13520TIP3    H162051   0.732   2.939  13.050  0.1935  0.2274 -1.1592
13520TIP3    H262052   0.605   2.861  13.024 -0.1138  0.7290 -1.1660
13521TIP3   OH262053   3.392   6.441   2.970 -0.0823  0.2900 -0.2679
13521TIP3    H162054   3.410   6.379   3.041 -0.5601 -0.3552 -0.6981
13521TIP3    H262055   3.309   6.411   2.933  0.2649  0.4960 -1.2353
13522TIP3   OH262056   4.093   2.041  14.322  0.3627  0.1996 -0.5959
13522TIP3    H162057   4.092   1.953  14.360 -1.2459  0.9732  1.3304
13522TIP3    H262058   4.182   2.073  14.338  0.5397 -0.5566 -0.0465
13523TIP3   OH262059   0.794   3.386  13.724 -0.4029 -0.1056  0.3453
13523TIP3    H162060   0.758   3.300  13.747 -1.8448  0.3206 -0.1765
13523TIP3    H262061   0.777   3.440  13.802  1.6577 -0.5616  1.1882
13524TIP3   OH262062   3.649   5.366  15.971 -0.5515 -0.1578  0.1745
13524TIP3    H162063   3.632   5.459  15.988 -1.0442 -0.0807 -0.6792
13524TIP3    H262064   3.570   5.335  15.927  0.4834 -0.4285 -1.5805
13525TIP3   OH262065   0.607   4.609   4.729 -0.5698 -0.3123 -0.2340
13525TIP3    H162066   0.554   4.623   4.807 -0.3318 -0.4170 -0.0543
13525TIP3    H262067   0.658   4.690   4.720 -0.9867 -0.0810 -0.5873
13526TIP3   OH262068   5.468   0.690  11.347 -0.3709  0.5642  0.0819
13526TIP3    H162069   5.476   0.649  11.261  1.9031 -0.3991  0.6533
13526TIP3    H262070   5.531   0.641  11.402  0.5933  3.1696  1.4623
13527TIP3   OH262071   0.726   2.404   1.631  0.0802 -0.3798  0.0622
13527TIP3    H162072   0.752   2.313   1.644 -1.4776 -0.7522  0.8406
13527TIP3    H262073   0.681   2.404   1.546  0.5331 -0.2249 -0.1794
13528TIP3   OH262074   2.154   3.394  14.609  0.5657  0.7332 -0.4459
13528TIP3    H162075   2.131   3.461  14.545 -0.8954 -0.1334 -0.8780
13528TIP3    H262076   2.132   3.311  14.566 -0.8981  0.1429  1.3236
13529TIP3   OH262077   2.539   3.720   5.358 -0.1019 -0.1487  0.2465
13529TIP3    H162078   2.578   3.686   5.439  1.8162  1.5571  0.1276
13529TIP3    H262079   2.451   3.747   5.384 -0.2419 -1.4793  1.2610
13530TIP3   OH262080   2.967   2.279   3.270 -0.0044 -0.4602  0.1898
13530TIP3    H162081   2.931   2.367   3.257  1.1847 -0.3642 -3.1639
13530TIP3    H262082   3.046   2.293   3.321  0.1125  0.4111 -0.2141
13531TIP3   OH262083   6.868   5.317   4.145  0.3827  0.1942 -0.0343
13531TIP3    H162084   6.784   5.348   4.179  0.3229 -1.6547  1.6797
13531TIP3    H262085   6.865   5.337   4.051 -2.4475 -0.7847 -0.2556
13532TIP3   OH262086   2.785   4.289   1.848  0.2799 -0.0762  0.3660
13532TIP3    H162087   2.843   4.247   1.786  0.8335 -0.8228  1.3601
13532TIP3    H262088   2.786   4.382   1.823  0.3136 -0.3866 -0.8467
13533TIP3   OH262089   6.201   2.419  15.600 -0.0337  0.1743 -0.0713
13533TIP3    H162090   6.286   2.388  15.567  0.2226  0.0098  0.7059
13533TIP3    H262091   6.173   2.485  15.538  0.0178 -0.7303 -1.0855
13534TIP3   OH262092   1.823   0.311   0.651  0.1792  0.5320 -0.2088
13534TIP3    H162093   1.785   0.397   0.667 -0.0410  0.4754 -0.4071
13534TIP3    H262094   1.757   0.249   0.682  0.1995  0.4332 -0.3602
13535TIP3   OH262095   4.139   4.724   3.676 -0.0457  0.3220  0.6426
13535TIP3    H162096   4.104   4.638   3.700 -0.1415 -0.3666 -1.7199
13535TIP3    H262097   4.233   4.716   3.692 -0.0389 -0.2760  0.3454
13536TIP3   OH262098   0.213   2.015   3.957 -0.2901  0.2512 -0.8590
13536TIP3    H162099   0.122   2.002   3.929 -0.5802  0.0208  0.1694
13536TIP3    H262100   0.208   2.028   4.051  0.8912 -1.2971 -0.5539
13537TIP3   OH262101   5.219   5.341  16.315 -0.7185  0.2786  0.6863
13537TIP3    H162102   5.235   5.362  16.222  0.0097  0.4745  0.8452
13537TIP3    H262103   5.262   5.412  16.363  1.0675 -1.1032  1.2274
13538TIP3   OH262104   2.692   3.995   5.317  0.1214  0.1860 -0.5879
13538TIP3    H162105   2.720   3.977   5.228  1.1783  0.7359 -0.3738
13538TIP3    H262106   2.646   3.915   5.344  0.6112 -0.3428 -1.2880
13539TIP3   OH262107   1.076   1.557  13.802 -0.0237 -0.0328  0.0313
13539TIP3    H162108   1.072   1.647  13.835 -0.7002 -0.8809  2.4633
13539TIP3    H262109   1.155   1.520  13.841 -1.5905 -1.4957  1.9803
13540TIP3   OH262110   1.121   0.715  16.421 -0.3918 -0.1253  0.2160
13540TIP3    H162111   1.080   0.741  16.503 -0.5016 -0.2298  0.1947
13540TIP3    H262112   1.175   0.791  16.396 -0.5501  0.0020  0.2585
13541TIP3   OH262113   6.149   6.569   5.780 -0.6352 -0.8112  0.3945
13541TIP3    H162114   6.063   6.588   5.742  0.5527  1.9393 -1.1934
13541TIP3    H262115   6.204   6.545   5.705  1.0403  1.9260  0.5895
13542TIP3   OH262116   4.829   0.726  13.629  0.3023 -0.4688 -0.3708
13542TIP3    H162117   4.904   0.785  13.637 -1.3134  1.5128  1.3218
13542TIP3    H262118   4.867   0.638  13.640  2.2673  0.5026  1.6262
13543TIP3   OH262119   5.320   3.511   6.168 -0.1305  0.3968 -0.2311
13543TIP3    H162120   5.414   3.497   6.151 -0.4320  0.2122 -1.8867
13543TIP3    H262121   5.299   3.450   6.239  0.3036 -2.0225 -2.0495
13544TIP3   OH262122   5.081   1.626  14.086 -0.3317  0.2942  0.5481
13544TIP3    H162123   4.987   1.645  14.085 -0.0869  1.6991  1.3414
13544TIP3    H262124   5.091   1.556  14.150 -1.0080 -1.0820 -0.7790
13545TIP3   OH262125   3.080   2.345  16.646 -0.0694 -0.1352  0.2777
13545TIP3    H162126   3.162   2.381  16.681  0.9829 -2.2036  0.0766
13545TIP3    H262127   3.059   2.273  16.704 -1.3972 -0.0644 -0.0939
13546TIP3   OH262128   6.740   5.372  15.569 -0.0680  0.1818  1.0337
13546TIP3    H162129   6.788   5.454  15.580  1.8935 -0.5436 -1.0630
13546TIP3    H262130   6.713   5.373  15.477 -0.9779 -1.0449  1.2668
13547TIP3   OH262131   2.439   0.263   5.074  0.0466  0.3954  0.3201
13547TIP3    H162132   2.484   0.218   5.147 -0.2062  0.9267  0.8128
13547TIP3    H262133   2.348   0.266   5.102  0.2424  2.2952  0.8722
13548TIP3   OH262134   1.104   3.340  15.285  0.6972 -0.5384  0.8106
13548TIP3    H162135   1.145   3.359  15.201 -2.6573 -1.2138 -1.1618
13548TIP3    H262136   1.122   3.247  15.301 -0.7499 -1.0815 -0.5261
13549TIP3   OH262137   0.417   3.331   6.282  0.2356 -0.0746 -0.4469
13549TIP3    H162138   0.444   3.240   6.279 -0.6506 -0.3042 -2.2314
13549TIP3    H262139   0.393   3.346   6.374 -0.5773 -1.9158 -0.3296
13550TIP3   OH262140   0.718   5.000   3.532  0.0746 -0.1753 -0.4125
13550TIP3    H162141   0.691   5.091   3.516 -0.9290 -0.7606 -2.2176
13550TIP3    H262142   0.751   5.001   3.622 -1.1094  1.7096  0.0591
13551TIP3   OH262143   0.239   1.655  15.319 -0.1876  0.4103  0.2999
13551TIP3    H162144   0.307   1.655  15.386  0.3754 -0.7882 -0.2316
13551TIP3    H262145   0.174   1.592  15.351  0.1455 -0.2640 -0.3077
13552TIP3   OH262146   0.579   4.903   1.309 -0.1378 -0.0096 -0.0422
13552TIP3    H162147   0.504   4.955   1.281 -0.2085  0.0425  0.2393
13552TIP3    H262148   0.558   4.878   1.399  0.6111  0.8016  0.3737
13553TIP3   OH262149   5.977   3.887   0.377  0.7041  0.2561  0.0974
13553TIP3    H162150   5.905   3.847   0.327  0.0441  0.9978  0.4381
13553TIP3    H262151   5.961   3.981   0.372  2.1213  0.4948 -0.5053
13554TIP3   OH262152   2.814   2.162   0.367  0.0320 -0.1078 -0.4402
13554TIP3    H162153   2.789   2.250   0.395 -0.3119  0.3050 -1.9443
13554TIP3    H262154   2.784   2.104   0.437  1.0874  1.0357  1.0221
13555TIP3   OH262155   2.757   6.117   5.034  0.0503 -0.1994  0.2319
13555TIP3    H162156   2.847   6.147   5.046  0.6365 -1.7866 -0.0100
13555TIP3    H262157   2.707   6.165   5.101  1.2225  0.0180  0.9874
13556TIP3   OH262158   3.540   2.486  13.584 -0.1280  0.5110  0.4020
13556TIP3    H162159   3.532   2.438  13.667 -2.3764  1.6581  0.9238
13556TIP3    H262160   3.621   2.536  13.593  0.0819  0.0066  1.5637
13557TIP3   OH262161   1.212   6.397  14.546 -0.2667 -0.1492  0.0006
13557TIP3    H162162   1.278   6.416  14.480 -0.3173 -0.8511 -0.2589
13557TIP3    H262163   1.188   6.483  14.581  0.5529  0.1400 -0.1153
13558TIP3   OH262164   2.055   1.835  15.180  0.2022 -0.0736  0.2667
13558TIP3    H162165   2.069   1.928  15.194  0.8818 -0.3977  1.9071
13558TIP3    H262166   1.998   1.808  15.252 -0.2426 -0.8668 -0.3687
13559TIP3   OH262167   6.472   4.070   4.658  0.0540  0.1781  0.0180
13559TIP3    H162168   6.534   4.099   4.726  1.0817 -1.8864  0.0587
13559TIP3    H262169   6.513   3.991   4.621 -1.4353  0.1302 -1.6480
13560TIP3   OH262170   4.871   1.756  11.168  0.8062  0.3289  0.3001
13560TIP3    H162171   4.815   1.698  11.117 -0.0065  1.6098 -0.3414
13560TIP3    H262172   4.811   1.798  11.230  1.5591 -0.2601  1.4492
13561TIP3   OH262173   4.713   4.595   2.023 -0.0164 -0.0468  0.3587
13561TIP3    H162174   4.771   4.620   1.951 -0.6096 -1.2528 -0.5781
13561TIP3    H262175   4.755   4.518   2.061  0.2720  0.5572  1.3038
13562TIP3   OH262176   5.751   4.373   0.559  0.0108  0.1126 -0.0101
13562TIP3    H162177   5.825   4.431   0.542 -0.1810  0.2605 -0.3431
13562TIP3    H262178   5.676   4.432   0.568 -0.3062 -0.1257 -1.0104
13563TIP3   OH262179   2.608   3.469  16.099 -0.3807 -0.3439  0.1549
13563TIP3    H162180   2.522   3.426  16.100  0.9962 -3.3210  0.6810
13563TIP3    H262181   2.621   3.497  16.190 -0.6702 -0.1886  0.1502
13564TIP3   OH262182   6.016   0.952   3.036  0.1117  0.0545 -0.5061
13564TIP3    H162183   5.969   0.888   3.088  0.1979  0.3575 -0.0540
13564TIP3    H262184   6.090   0.904   2.999 -0.4921 -0.4053 -1.1569
13565TIP3   OH262185   6.576   2.886  15.532 -0.4339 -0.3973  0.5365
13565TIP3    H162186   6.554   2.876  15.625 -2.1682  2.2341  0.4951
13565TIP3    H262187   6.507   2.838  15.486 -0.6968 -0.0446  0.5649
13566TIP3   OH262188   6.052   3.577  10.414  0.5349 -0.2009  0.9099
13566TIP3    H162189   6.007   3.495  10.431  1.6737 -0.8377  0.9540
13566TIP3    H262190   6.041   3.628  10.494 -0.1169 -0.3329  0.9104
13567TIP3   OH262191   2.241   4.103  13.075  0.2012  0.1295 -0.2071
13567TIP3    H162192   2.282   4.018  13.086  0.2056  0.3302  1.6242
13567TIP3    H262193   2.293   4.162  13.130 -0.4407  1.1033 -0.6095
13568TIP3   OH262194   1.830   0.937   1.875  0.3327 -0.3418  0.2957
13568TIP3    H162195   1.745   0.973   1.902 -0.2387 -2.0158  0.8443
13568TIP3    H262196   1.891   0.963   1.943  0.1331  0.3574  0.2107
13569TIP3   OH262197   3.943   4.295   5.058  0.6833 -0.4513 -0.3478
13569TIP3    H162198   3.878   4.345   5.010  1.3882 -0.1083 -0.9599
13569TIP3    H262199   4.027   4.332   5.031  1.0835  1.4709  2.9741
13570TIP3   OH262200   2.069   5.660   4.841  0.0775 -0.1022  0.0760
13570TIP3    H162201   2.126   5.704   4.905  2.8274 -0.3839 -2.0205
13570TIP3    H262202   2.102   5.570   4.837 -0.6580 -0.3386 -1.0689
13571TIP3   OH262203   3.746   5.071   1.077 -0.5566 -0.0166  0.1101
13571TIP3    H162204   3.718   5.142   1.019 -0.5341 -0.3178 -0.2709
13571TIP3    H262205   3.818   5.109   1.128  0.7797 -0.3317 -1.4477
13572TIP3   OH262206   2.675   6.658  14.153 -0.1949  0.5914  0.5465
13572TIP3    H162207   2.687   6.576  14.200  1.3234  0.8797  0.7305
13572TIP3    H262208   2.764   6.689  14.137 -0.6631  0.8285 -1.9705
13573TIP3   OH262209   0.912   2.626  13.364  0.0672  0.4529  0.2034
13573TIP3    H162210   0.934   2.574  13.441 -1.5079  0.0799  0.4472
13573TIP3    H262211   0.937   2.715  13.387  2.0491 -0.0477  0.0983
13574TIP3   OH262212   2.347   2.694  11.543 -0.1805  0.1823 -0.1939
13574TIP3    H162213   2.274   2.729  11.492  0.9729  1.9890 -0.6822
13574TIP3    H262214   2.375   2.766  11.599  0.4570 -0.8627  0.8909
13575TIP3   OH262215   5.735   3.426   4.121 -0.1281 -0.1904 -0.5171
13575TIP3    H162216   5.806   3.365   4.100  0.5061  0.6757 -0.9827
13575TIP3    H262217   5.659   3.370   4.137  0.7493 -1.1714  0.4301
13576TIP3   OH262218   0.969   1.269  15.606 -0.6151 -0.0905 -0.1566
13576TIP3    H162219   1.056   1.229  15.610 -0.6222 -0.0577  0.3584
13576TIP3    H262220   0.924   1.235  15.684 -0.8363  0.4242 -0.0591
13577TIP3   OH262221   5.175   3.617   5.787 -0.1048  0.5576 -0.3378
13577TIP3    H162222   5.234   3.655   5.851  1.1805 -1.1937 -0.4392
13577TIP3    H262223   5.104   3.681   5.780  0.1960  1.2474  2.0809
13578TIP3   OH262224   4.715   1.598   2.359 -0.0516 -0.6257 -0.2898
13578TIP3    H162225   4.652   1.629   2.294 -0.6593  3.3795  1.8461
13578TIP3    H262226   4.664   1.543   2.418 -1.1577  0.8982  0.2460
13579TIP3   OH262227   6.174   4.799   4.909  0.3080  0.1050 -0.2254
13579TIP3    H162228   6.176   4.708   4.880  2.4624  0.4389 -1.3011
13579TIP3    H262229   6.251   4.839   4.869 -0.6314  2.4478  0.1476
13580TIP3   OH262230   3.880   0.255  16.025  0.4591 -0.0161 -0.0639
13580TIP3    H162231   3.875   0.217  15.938  0.5647 -2.0139  0.7551
13580TIP3    H262232   3.803   0.221  16.071  1.3232 -0.3969  1.1462
13581TIP3   OH262233   3.421   4.463  14.541 -0.1293  0.6099  0.3448
13581TIP3    H162234   3.398   4.384  14.492 -0.1569  1.3035 -0.7995
13581TIP3    H262235   3.426   4.434  14.632 -1.4636 -0.4219  0.1245
13582TIP3   OH262236   3.900   0.283   1.754  0.2642 -0.2799 -0.4424
13582TIP3    H162237   3.831   0.282   1.820 -0.7454 -1.5917 -1.4641
13582TIP3    H262238   3.893   0.369   1.713  2.5537  1.6098  2.7286
13583TIP3   OH262239   6.568   2.911   1.715  0.5696 -0.2967 -0.2805
13583TIP3    H162240   6.657   2.947   1.719  0.5506 -0.3484  1.1984
13583TIP3    H262241   6.523   2.965   1.650  1.7061 -0.3717 -1.1758
13584TIP3   OH262242   1.164   1.966  16.778 -0.2320 -0.0413  0.5919
13584TIP3    H162243   1.220   2.032  16.735  1.3734 -0.4892  1.8840
13584TIP3    H262244   1.113   2.016  16.841  0.3345  0.0974  0.9481
13585TIP3   OH262245   1.290   4.748   3.611 -0.3941  0.2458 -0.1342
13585TIP3    H162246   1.223   4.814   3.629 -0.6229 -0.1978  0.6618
13585TIP3    H262247   1.256   4.667   3.649  0.9000  0.1720  0.9336
13586TIP3   OH262248   6.049   0.745  14.521  0.3579  0.1618  0.0438
13586TIP3    H162249   6.008   0.686  14.584  0.7862 -0.8448 -0.6042
13586TIP3    H262250   6.143   0.730  14.531  0.3998 -0.8943 -1.6529
13587TIP3   OH262251   3.964   4.112   5.731 -0.5375  0.2567 -0.0996
13587TIP3    H162252   3.968   4.101   5.826  0.2053 -0.2973 -0.1827
13587TIP3    H262253   3.984   4.025   5.696 -0.9419  0.4246 -0.7616
13588TIP3   OH262254   5.859   3.491   2.717 -0.1981 -0.3363 -0.0380
13588TIP3    H162255   5.857   3.396   2.726 -0.4137 -0.1636  2.0961
13588TIP3    H262256   5.829   3.525   2.801 -1.6445  1.6293 -1.2329
13589TIP3   OH262257   4.130   1.655  11.251 -0.4995 -0.0923  0.1653
13589TIP3    H162258   4.218   1.663  11.215 -0.5196 -0.7762 -0.0430
13589TIP3    H262259   4.081   1.606  11.185 -0.6548 -0.9646  0.8970
13590TIP3   OH262260   3.112   4.204  16.899 -0.4638 -0.1739  0.1709
13590TIP3    H162261   3.195   4.157  16.899 -1.1423 -1.5002 -1.7433
13590TIP3    H262262   3.053   4.148  16.849 -1.4374  2.5375 -1.9564
13591TIP3   OH262263   5.003   1.544   0.183 -0.3113 -0.5457  0.0484
13591TIP3    H162264   4.910   1.562   0.173  0.2010  1.8395 -1.1810
13591TIP3    H262265   5.026   1.582   0.267 -0.3641 -0.8527  0.2049
13592TIP3   OH262266   2.597   6.873   3.626  0.2768 -0.0612  0.3530
13592TIP3    H162267   2.516   6.915   3.599  1.6703  2.2996 -0.4437
13592TIP3    H262268   2.635   6.840   3.544  1.6944  1.8785  0.1722
13593TIP3   OH262269   1.018   0.655   1.009  0.2131 -0.9378 -0.0482
13593TIP3    H162270   0.949   0.721   1.018  1.0902  0.2229 -1.3158
13593TIP3    H262271   1.099   0.703   1.029  0.8663 -1.6697 -0.8664
13594TIP3   OH262272   1.485   4.910  16.833 -0.0998 -0.0812  0.5076
13594TIP3    H162273   1.398   4.938  16.807  0.9957  1.3456 -1.9577
13594TIP3    H262274   1.487   4.922  16.928 -1.9795  1.6570  0.3955
13595TIP3   OH262275   3.861   0.047   4.525  0.6800 -0.1210 -0.2725
13595TIP3    H162276   3.878  -0.039   4.561  0.1978  0.0379  0.3426
13595TIP3    H262277   3.878   0.108   4.597  0.1478  0.2313 -0.4370
13596TIP3   OH262278   1.714   3.914  12.026  0.1259 -0.1119 -0.0631
13596TIP3    H162279   1.687   3.827  11.998  0.0757 -0.4128  0.8673
13596TIP3    H262280   1.744   3.957  11.946 -1.9069 -0.1893 -0.9215
13597TIP3   OH262281   6.334   1.089  14.152 -0.1679 -0.2886  0.2033
13597TIP3    H162282   6.339   1.056  14.062 -0.2900 -0.5309  0.2863
13597TIP3    H262283   6.308   1.013  14.204 -1.6179  0.1953  0.2277
13598TIP3   OH262284   1.797   1.717  13.875  0.6846  0.3513 -0.4104
13598TIP3    H162285   1.865   1.667  13.831  0.9701  0.2582  0.1272
13598TIP3    H262286   1.723   1.658  13.880  0.5199  0.4901 -1.0987
13599TIP3   OH262287   3.659   2.817  12.229  0.0924 -0.2337  0.2508
13599TIP3    H162288   3.612   2.746  12.273  0.3391 -0.0501  0.8162
13599TIP3    H262289   3.605   2.837  12.152  0.6908 -1.9192 -0.6528
13600TIP3   OH262290   1.136   2.965  12.761  0.6337  0.5845  0.2241
13600TIP3    H162291   1.168   3.015  12.836  1.4511 -1.2090  1.1329
13600TIP3    H262292   1.087   2.892  12.799 -1.8242  1.4253 -1.0913
13601TIP3   OH262293   6.326   3.880   6.075  0.3503  0.0247 -0.3364
13601TIP3    H162294   6.257   3.854   6.137 -0.9251  0.5859 -1.4746
13601TIP3    H262295   6.366   3.957   6.115 -0.2476  0.1931 -0.0474
13602TIP3   OH262296   2.068   1.095   1.476  0.1210  0.3143 -0.0497
13602TIP3    H162297   2.034   1.015   1.435  0.2654 -0.2921  0.9666
13602TIP3    H262298   2.157   1.104   1.442  0.1353 -0.0123 -0.1022
13603TIP3   OH262299   2.975   0.438   3.096  0.1419  0.0166 -0.1235
13603TIP3    H162300   2.976   0.358   3.148 -0.0075  0.0453 -0.0741
13603TIP3    H262301   2.926   0.414   3.017  0.6271 -0.1097 -0.3849
13604TIP3   OH262302   1.816   4.044  10.938 -0.2919 -0.1904  0.1766
13604TIP3    H162303   1.834   4.001  10.854 -1.1938  3.8305 -2.3622
13604TIP3    H262304   1.873   3.999  11.001  0.8858 -3.0555 -2.6529
13605TIP3   OH262305   0.855   1.294  10.273  0.2776  0.2732 -0.4765
13605TIP3    H162306   0.925   1.360  10.276  0.2037  0.3170  0.9478
13605TIP3    H262307   0.785   1.331  10.328  0.9630 -1.7522  1.9799
13606TIP3   OH262308   2.981   3.871   0.067 -0.2580 -0.1157  0.2201
13606TIP3    H162309   3.074   3.857   0.047 -0.3555 -2.9937  1.3522
13606TIP3    H262310   2.949   3.925  -0.005  1.5873 -1.7250 -1.9596
13607TIP3   OH262311   6.055   5.416  12.868  0.0607  0.3528  0.1013
13607TIP3    H162312   6.139   5.392  12.909 -0.4891  1.1274  1.7884
13607TIP3    H262313   6.080   5.456  12.785  1.3230 -0.1287  0.2134
13608TIP3   OH262314   3.152   5.273   1.343 -0.6730 -0.2600 -0.8128
13608TIP3    H162315   3.187   5.224   1.269  0.2376  0.7023 -1.0457
13608TIP3    H262316   3.088   5.214   1.383 -1.4737 -0.6539 -2.5769
13609TIP3   OH262317   4.136   2.277  16.442  0.6146 -0.1218 -0.0240
13609TIP3    H162318   4.136   2.193  16.396 -1.2000  0.0683 -0.4258
13609TIP3    H262319   4.170   2.339  16.379  1.8881 -0.5119  0.2475
13610TIP3   OH262320   6.299   0.873  14.318  0.0035 -0.2156 -0.4579
13610TIP3    H162321   6.263   0.950  14.361 -1.1650  0.3479 -2.3513
13610TIP3    H262322   6.296   0.805  14.386 -1.5646  0.6721  0.4207
13611TIP3   OH262323   6.024   3.456  12.211  0.0062 -0.2789  0.2920
13611TIP3    H162324   6.076   3.498  12.280 -0.1606  0.5543 -0.0796
13611TIP3    H262325   6.049   3.364  12.215 -0.6787 -0.4295  2.0946
13612TIP3   OH262326   1.699   5.046   0.712  0.1347  0.6880  0.6209
13612TIP3    H162327   1.739   5.000   0.638  1.1016  0.3994  1.3060
13612TIP3    H262328   1.773   5.083   0.760 -0.5894  2.6228  0.3230
13613TIP3   OH262329   0.614   6.184   3.094  0.2918 -0.3626  0.4334
13613TIP3    H162330   0.570   6.204   3.012 -0.4139 -0.0827  0.8798
13613TIP3    H262331   0.571   6.105   3.126  1.7158 -1.4991 -0.3111
13614TIP3   OH262332   1.370   2.706   5.616 -0.1982  0.2801 -0.4129
13614TIP3    H162333   1.444   2.680   5.670  0.6326 -1.5547 -2.2867
13614TIP3    H262334   1.301   2.729   5.678  1.8071  1.7548  1.3911
13615TIP3   OH262335   0.469   0.871  14.680  0.5728  0.2194 -0.3402
13615TIP3    H162336   0.378   0.899  14.671  0.5394  0.2067 -0.0420
13615TIP3    H262337   0.520   0.951  14.666  0.4903  0.3640  0.1534
13616TIP3   OH262338   0.324   3.388   4.251  0.3752 -0.0281  0.6458
13616TIP3    H162339   0.377   3.361   4.326  0.7220 -0.7139  0.1780
13616TIP3    H262340   0.385   3.384   4.177  0.2891  1.5574  0.4608
13617TIP3   OH262341   6.389   4.200   4.403  0.7225  0.7313  0.3849
13617TIP3    H162342   6.384   4.201   4.307  0.5210  1.3955  0.4004
13617TIP3    H262343   6.369   4.109   4.427  0.7095  0.5778 -0.1980
13618TIP3   OH262344   0.297   4.899   6.172 -0.5176 -0.0233  0.1276
13618TIP3    H162345   0.392   4.895   6.162 -0.5994  0.0517 -0.8249
13618TIP3    H262346   0.277   4.992   6.174 -0.4763 -0.0198  1.5661
13619TIP3   OH262347   1.401   1.835   0.029  0.0661  0.5623 -0.3947
13619TIP3    H162348   1.400   1.918  -0.019  0.8852  0.2431 -0.9820
13619TIP3    H262349   1.420   1.861   0.119  0.7071  0.9837 -0.6451
13620TIP3   OH262350   1.749   2.221  11.918  0.1019  0.3515 -0.5306
13620TIP3    H162351   1.678   2.280  11.945 -0.2207  0.0789 -0.7765
13620TIP3    H262352   1.741   2.216  11.823  0.7647  0.7081 -0.6149
13621TIP3   OH262353   4.044   6.648  14.856 -0.5153  0.5942 -0.5241
13621TIP3    H162354   3.983   6.604  14.915  0.7407 -1.1694 -0.4752
13621TIP3    H262355   4.012   6.738  14.852 -0.2294  1.0211  3.4201
13622TIP3   OH262356   0.631   1.276   5.356 -0.6457 -0.0527 -0.5281
13622TIP3    H162357   0.551   1.328   5.366  1.6028  3.6278  0.3278
13622TIP3    H262358   0.691   1.333   5.307  1.7411 -2.3529 -0.5421
13623TIP3   OH262359   5.166   5.909  14.104 -0.0348 -0.0402  0.2910
13623TIP3    H162360   5.116   5.969  14.049  1.6592  1.8860  0.7008
13623TIP3    H262361   5.122   5.825  14.095 -1.4590  0.8409 -1.7701
13624TIP3   OH262362   0.189   0.144   5.760  0.3852 -0.3798 -0.1932
13624TIP3    H162363   0.100   0.165   5.729  0.7558  2.4873  0.4560
13624TIP3    H262364   0.187   0.164   5.853  1.9220  0.6177 -0.3390
13625TIP3   OH262365   1.148   0.557  13.727  0.3613  0.0461  0.4875
13625TIP3    H162366   1.204   0.614  13.780  0.9763  0.8951 -1.0351
13625TIP3    H262367   1.166   0.582  13.637 -1.2387 -0.8426 -0.1156
13626TIP3   OH262368   2.958   4.138  15.025 -0.1580 -0.2851  0.2078
13626TIP3    H162369   2.986   4.110  14.938 -2.3912  1.3393 -1.1653
13626TIP3    H262370   2.864   4.118  15.027 -1.0201  3.1717  0.6160
13627TIP3   OH262371   3.014   5.380   4.014  0.2045 -0.3339  0.1506
13627TIP3    H162372   3.097   5.350   4.052 -0.2026 -0.6728  0.7795
13627TIP3    H262373   3.013   5.474   4.031  0.4265 -0.3397  0.1999
13628TIP3   OH262374   5.270   1.260   4.370  0.2005  1.0979  0.4603
13628TIP3    H162375   5.333   1.322   4.335 -0.7830  1.1539 -1.3761
13628TIP3    H262376   5.283   1.181   4.317 -1.4242  1.2196 -0.1897
13629TIP3   OH262377   4.750   1.562  16.017  0.5434  0.4819  0.0548
13629TIP3    H162378   4.831   1.606  15.991 -0.4151  0.9564 -2.4878
13629TIP3    H262379   4.700   1.629  16.062  1.4612  0.2202  1.5357
13630TIP3   OH262380   0.994   2.275  13.243  0.3394 -0.1407  0.1420
13630TIP3    H162381   0.994   2.365  13.276  1.0610 -0.5084  1.2216
13630TIP3    H262382   0.906   2.262  13.208 -0.0704  0.6938  0.8151
13631TIP3   OH262383   5.353   2.591  15.536 -0.0276 -0.5180  0.2472
13631TIP3    H162384   5.372   2.525  15.470  1.4152  0.2685 -0.1669
13631TIP3    H262385   5.341   2.672  15.486 -0.4837 -0.2172  0.8351
13632TIP3   OH262386   5.057   4.396   4.544  0.1659  0.5516 -0.1390
13632TIP3    H162387   5.107   4.318   4.567  0.0029  0.5842  0.3454
13632TIP3    H262388   4.970   4.380   4.581  0.4730  1.4905  1.0475
13633TIP3   OH262389   1.842   1.085  14.491 -0.1436  0.2276 -0.0458
13633TIP3    H162390   1.762   1.098  14.540 -0.2159 -0.7655  0.1157
13633TIP3    H262391   1.887   1.013  14.536  0.7293  0.6261 -0.2621
13634TIP3   OH262392   2.124   3.433   1.473  0.6696 -0.2175  0.8289
13634TIP3    H162393   2.191   3.446   1.541  1.8930  0.2574 -0.4144
13634TIP3    H262394   2.169   3.456   1.391 -0.3079 -2.2103 -0.3269
13635TIP3   OH262395   4.452   4.257   2.769  0.9467 -0.1844 -0.5164
13635TIP3    H162396   4.463   4.163   2.786 -0.5482 -0.5896 -1.6236
13635TIP3    H262397   4.413   4.261   2.682  2.4047  1.5494 -1.1569
13636TIP3   OH262398   2.620   2.281  12.666 -0.1568 -0.4630 -0.4256
13636TIP3    H162399   2.618   2.376  12.650 -3.1382 -0.3458  0.0343
13636TIP3    H262400   2.625   2.242  12.578 -1.8188  0.1911 -0.8663
13637TIP3   OH262401   6.501   0.249  13.262 -0.1156 -0.1202  0.4842
13637TIP3    H162402   6.456   0.227  13.180  2.7765 -0.0000 -1.2900
13637TIP3    H262403   6.450   0.322  13.298 -2.5430 -1.3775 -0.1712
13638TIP3   OH262404   2.679   1.337  14.213  0.0064  0.7947 -0.0911
13638TIP3    H162405   2.737   1.409  14.239 -1.1215  0.8778  2.4107
13638TIP3    H262406   2.640   1.307  14.295 -1.0672 -1.3713 -1.3302
13639TIP3   OH262407   3.267   1.377  10.640 -0.4365  0.0220  0.2737
13639TIP3    H162408   3.262   1.437  10.566  0.0752  0.3182  0.4760
13639TIP3    H262409   3.360   1.376  10.664 -0.5080 -0.5267  0.5351
13640TIP3   OH262410   2.567   5.431  11.620 -0.3995 -0.4003  0.0722
13640TIP3    H162411   2.500   5.481  11.668 -0.7936 -1.3814  0.5707
13640TIP3    H262412   2.616   5.386  11.689 -0.2923 -0.9897 -0.3851
13641TIP3   OH262413   4.480   0.950  12.649  0.5022 -0.5799  0.4075
13641TIP3    H162414   4.505   0.982  12.563  2.0634  0.4912  1.1995
13641TIP3    H262415   4.414   1.012  12.680 -0.3082 -1.1562 -0.1148
13642TIP3   OH262416   4.884   3.147  16.814 -0.4167 -0.2292  0.0855
13642TIP3    H162417   4.806   3.194  16.784 -1.1508 -0.8988  0.8861
13642TIP3    H262418   4.944   3.216  16.843 -0.7000  0.2980 -0.5645
13643TIP3   OH262419   5.360   6.026   2.148  0.0260 -0.2718 -0.0905
13643TIP3    H162420   5.449   5.998   2.129  0.1832  0.8785 -1.2994
13643TIP3    H262421   5.339   5.989   2.233  0.1772 -3.9536 -1.4794
13644TIP3   OH262422   1.507   4.370  15.092  0.3550  0.2357  0.7421
13644TIP3    H162423   1.468   4.404  15.011 -0.2330  0.9052  1.2991
13644TIP3    H262424   1.600   4.391  15.083  0.1542  1.1256  0.6349
13645TIP3   OH262425   0.258   1.172   4.834 -0.1868  0.3116 -0.3947
13645TIP3    H162426   0.257   1.247   4.894 -0.2406 -0.2510  0.3202
13645TIP3    H262427   0.351   1.150   4.824 -0.2725 -1.7555  2.2794
13646TIP3   OH262428   2.317   3.969  14.455  0.1706  0.3506 -0.3039
13646TIP3    H162429   2.335   3.970  14.361 -3.0307 -1.2414 -1.0808
13646TIP3    H262430   2.342   3.881  14.484 -1.5069 -0.1903 -0.3753
13647TIP3   OH262431   0.856   3.299  14.955 -0.4020  0.2738 -0.0246
13647TIP3    H162432   0.885   3.389  14.940 -1.0922  0.6663  0.8470
13647TIP3    H262433   0.899   3.248  14.887 -0.8735  1.4284 -1.2539
13648TIP3   OH262434   4.527   2.985   2.469  0.1529  0.2043  0.4045
13648TIP3    H162435   4.488   3.070   2.487 -1.8171 -0.4676 -0.4400
13648TIP3    H262436   4.524   2.977   2.373  0.9666 -0.5273  0.4292
13649TIP3   OH262437   1.227   3.745  13.270 -0.1495 -0.4546  0.1801
13649TIP3    H162438   1.186   3.792  13.343  0.9284 -0.1507  0.6100
13649TIP3    H262439   1.172   3.668  13.257  0.8850 -1.7618  2.8589
13650TIP3   OH262440   3.218   3.744  13.536  0.1963 -0.1846  0.2940
13650TIP3    H162441   3.310   3.767  13.542  0.2416 -0.2227 -0.2078
13650TIP3    H262442   3.191   3.727  13.626  1.0577 -1.6254  0.3031
13651TIP3   OH262443   0.587   0.041   3.942 -0.8046  0.0290  0.0320
13651TIP3    H162444   0.545   0.029   3.857  0.0880  1.6041 -0.6854
13651TIP3    H262445   0.601   0.136   3.948 -0.1040 -0.1425  1.5744
13652TIP3   OH262446   3.881   2.833   4.761 -0.1996  0.6308 -0.1071
13652TIP3    H162447   3.845   2.846   4.673 -0.6519 -1.4897 -0.2779
13652TIP3    H262448   3.976   2.845   4.750 -0.2875  0.7134 -0.8163
13653TIP3   OH262449   3.197   3.448  13.043  0.6218  0.5372  0.2140
13653TIP3    H162450   3.176   3.518  12.981  0.3741  0.0713 -0.2393
13653TIP3    H262451   3.178   3.486  13.129 -0.2343  0.7823 -0.0678
13654TIP3   OH262452   6.095   5.019  11.119 -0.1033 -0.7065  0.1621
13654TIP3    H162453   6.111   4.928  11.093  1.0810 -0.0978 -1.3910
13654TIP3    H262454   6.138   5.027  11.204  0.6660 -1.3347 -0.1522
13655TIP3   OH262455   0.080   0.372  11.906  0.4097  0.3960  0.4143
13655TIP3    H162456   0.052   0.444  11.849 -1.3715 -2.3914 -2.6088
13655TIP3    H262457   0.154   0.332  11.859  0.2756 -0.7337  1.1370
13656TIP3   OH262458   1.297   6.296   0.149  0.3794 -0.3477 -0.7873
13656TIP3    H162459   1.349   6.376   0.159 -0.4473  0.0765  0.3511
13656TIP3    H262460   1.333   6.254   0.071  1.9108  0.3082 -0.4817
13657TIP3   OH262461   4.377   1.318   3.671 -0.1944  0.9097  0.3021
13657TIP3    H162462   4.326   1.345   3.595  2.4169  0.3931 -1.8227
13657TIP3    H262463   4.330   1.243   3.707  0.0989 -1.0699 -3.0013
13658TIP3   OH262464   3.282   3.656   5.633  0.1278 -0.0588 -0.0166
13658TIP3    H162465   3.227   3.733   5.648 -1.2706 -0.4846 -2.3622
13658TIP3    H262466   3.222   3.591   5.595  1.5215 -1.8806  0.7511
13659TIP3   OH262467   1.984   0.946  11.202  0.3314 -0.0166 -0.2767
13659TIP3    H162468   2.010   0.918  11.114 -1.4984  0.8335 -1.1400
13659TIP3    H262469   1.933   0.873  11.236 -0.7593  0.4830 -0.7960
13660TIP3   OH262470   1.112   3.224  16.951  0.4488  0.3505 -0.6789
13660TIP3    H162471   1.147   3.309  16.923  0.4335  1.1401  1.4570
13660TIP3    H262472   1.041   3.247  17.012  0.5478 -1.1916  0.0556
13661TIP3   OH262473   0.826   2.270   2.039  0.0614 -0.0814  0.0009
13661TIP3    H162474   0.861   2.222   2.114 -0.3978  0.7834  0.7889
13661TIP3    H262475   0.780   2.203   1.987 -1.4385 -0.3687  1.6028
13662TIP3   OH262476   3.315   6.266   1.679  0.5745  0.5410  0.0977
13662TIP3    H162477   3.227   6.237   1.705  0.6655 -0.8110 -0.9829
13662TIP3    H262478   3.329   6.226   1.593  1.2558  2.8500 -0.9236
13663TIP3   OH262479   1.282   3.089  15.347  0.3673 -0.1814  0.3698
13663TIP3    H162480   1.364   3.070  15.301  0.3232 -2.4819  1.1253
13663TIP3    H262481   1.276   3.022  15.415 -2.5864 -0.6541 -0.2257
13664TIP3   OH262482   1.291   5.044  10.583  0.0424  0.2105  0.2245
13664TIP3    H162483   1.302   4.990  10.505  1.4531 -0.6017  0.9625
13664TIP3    H262484   1.247   5.123  10.551 -1.1196 -0.9023 -1.0469
13665TIP3   OH262485   3.512   6.153   2.303 -0.2406 -0.3901 -0.1314
13665TIP3    H162486   3.513   6.088   2.372  1.1322 -0.9760 -0.6668
13665TIP3    H262487   3.591   6.205   2.317 -0.0712 -0.3643 -1.1122
13666TIP3   OH262488   5.299   0.037  16.326  0.1127  0.2993 -0.0976
13666TIP3    H162489   5.393   0.051  16.312 -0.0485 -0.1094 -1.8198
13666TIP3    H262490   5.295  -0.035  16.390  0.9684  0.1404 -0.2035
13667TIP3   OH262491   2.794   0.721  16.227  0.6251  0.3241 -0.2186
13667TIP3    H162492   2.824   0.650  16.283  0.9210  0.0642 -0.7020
13667TIP3    H262493   2.833   0.800  16.266 -0.1441  0.3024  0.6348
13668TIP3   OH262494   2.399   0.297   2.675  0.5591 -0.3339 -0.5120
13668TIP3    H162495   2.473   0.288   2.735  0.2439 -0.0108 -0.0680
13668TIP3    H262496   2.323   0.307   2.732  0.2298 -0.2000 -0.9662
13669TIP3   OH262497   0.833   6.134   3.802 -0.0131 -0.0175  0.3873
13669TIP3    H162498   0.849   6.228   3.791 -1.8296  0.3300  0.4547
13669TIP3    H262499   0.740   6.128   3.823  0.3698 -1.7437  1.7411
13670TIP3   OH262500   3.666   5.672   5.392  0.5532  0.1597 -0.7068
13670TIP3    H162501   3.581   5.643   5.423  0.2901  1.1371 -0.4920
13670TIP3    H262502   3.700   5.597   5.343 -0.9965  0.2136 -1.9388
13671TIP3   OH262503   2.268   0.216  13.562  0.2173  0.0649 -0.7130
13671TIP3    H162504   2.358   0.247  13.570  0.1281  1.4289 -3.6058
13671TIP3    H262505   2.246   0.183  13.649  2.7106  1.8514  0.7354
13672TIP3   OH262506   5.130   1.105   3.063  0.2914 -0.0364  0.4434
13672TIP3    H162507   5.063   1.050   3.021 -0.5374  0.9766  0.3977
13672TIP3    H262508   5.157   1.166   2.995  0.3359  0.3794  0.8301
13673TIP3   OH262509   3.212   0.953  13.702  1.0015  0.0217  0.0022
13673TIP3    H162510   3.130   1.000  13.717  1.1375 -0.3269  2.1041
13673TIP3    H262511   3.205   0.874  13.757  2.9197  0.2181  0.5922
13674TIP3   OH262512   1.209   2.815   5.824  0.6980  0.2622 -0.0412
13674TIP3    H162513   1.120   2.849   5.836  0.9317  0.7093  0.4755
13674TIP3    H262514   1.265   2.893   5.826  1.0676  0.0266 -0.7729
13675TIP3   OH262515   6.350   1.244   1.027 -0.0678 -0.4766 -0.1642
13675TIP3    H162516   6.279   1.189   0.995 -0.6791  0.5364 -0.6096
13675TIP3    H262517   6.348   1.322   0.970  0.4627  0.2218  0.7351
13676TIP3   OH262518   5.993   2.857   4.817 -0.2670 -0.1992 -0.1418
13676TIP3    H162519   5.991   2.762   4.809  0.7755 -0.2121 -0.2953
13676TIP3    H262520   6.082   2.882   4.795 -0.8488  0.9340 -1.3704
13677TIP3   OH262521   3.173   0.415  11.923 -0.0595  0.3767 -0.2232
13677TIP3    H162522   3.158   0.356  11.849  2.3745 -1.5527  0.6956
13677TIP3    H262523   3.212   0.493  11.883 -1.7724  0.7589 -1.2728
13678TIP3   OH262524   4.032   2.637  15.189  0.6162 -0.5816  0.1310
13678TIP3    H162525   4.062   2.553  15.223  1.7921 -0.2623 -0.0481
13678TIP3    H262526   4.079   2.646  15.105  0.0843  0.0014 -0.1079
13679TIP3   OH262527   0.071   3.016   6.103 -0.5975 -0.3276  0.2075
13679TIP3    H162528   0.159   3.005   6.067 -0.2697  0.1066  0.8617
13679TIP3    H262529   0.050   2.931   6.141 -0.4959 -0.4530 -0.0138
13680TIP3   OH262530   0.166   6.345   5.127 -0.1345  0.2176  0.0096
13680TIP3    H162531   0.226   6.414   5.154  2.2343 -1.5448 -0.3851
13680TIP3    H262532   0.215   6.293   5.064 -1.7031 -1.9502  0.4326
13681TIP3   OH262533   3.478   5.102   4.035 -0.2266  0.4446 -0.0900
13681TIP3    H162534   3.557   5.135   4.079 -0.5545 -0.0165  0.8635
13681TIP3    H262535   3.461   5.017   4.076 -1.7232  0.9244  0.3411
13682TIP3   OH262536   4.034   1.587   5.770 -0.4395  0.0640  0.5049
13682TIP3    H162537   4.009   1.499   5.741 -0.5534  0.1332  0.3910
13682TIP3    H262538   4.006   1.591   5.862  1.3293 -0.7121  1.1252
13683TIP3   OH262539   1.937   6.397   5.609  0.0541  0.3778  0.0772
13683TIP3    H162540   2.016   6.355   5.577  0.6047  0.5465  1.1924
13683TIP3    H262541   1.961   6.435   5.693 -1.0777  0.8578  0.2112
13684TIP3   OH262542   5.106   1.284   1.674  0.1193 -0.3549  0.3132
13684TIP3    H162543   5.066   1.278   1.587  0.9836 -0.4909 -0.0860
13684TIP3    H262544   5.191   1.242   1.664 -0.3557 -1.6847  1.6137
13685TIP3   OH262545   4.628   6.138   0.316 -0.3156 -0.2087  0.3105
13685TIP3    H162546   4.590   6.211   0.267  0.6170 -0.3690 -0.6977
13685TIP3    H262547   4.658   6.176   0.398  0.1727  0.5605 -0.2102
13686TIP3   OH262548   4.977   0.327   2.365 -0.1047  0.2660 -0.5407
13686TIP3    H162549   4.885   0.309   2.386 -0.3744  2.7257  0.6756
13686TIP3    H262550   5.025   0.301   2.443  0.0442  0.4663 -0.5662
13687TIP3   OH262551   5.941   5.084  16.184  0.1662 -0.5566 -0.0903
13687TIP3    H162552   5.860   5.057  16.228 -0.0321 -1.1517 -0.8220
13687TIP3    H262553   5.933   5.051  16.095  0.8851  0.0367 -0.3876
13688TIP3   OH262554   6.014   5.304   0.210  0.3816  0.1372  0.0439
13688TIP3    H162555   5.979   5.381   0.254 -1.1702 -0.7073  0.3291
13688TIP3    H262556   6.033   5.242   0.281 -0.6348 -0.6316 -0.3372
13689TIP3   OH262557   6.015   0.580  16.417  0.8654 -0.6579  0.5432
13689TIP3    H162558   5.986   0.519  16.349 -0.5326 -0.6318  1.0851
13689TIP3    H262559   6.097   0.615  16.384 -0.5293  0.5397 -1.9175
13690TIP3   OH262560   5.823   4.822  16.533  0.5242 -0.5714  0.0198
13690TIP3    H162561   5.754   4.835  16.469  1.4585 -0.6297 -1.0278
13690TIP3    H262562   5.820   4.900  16.588 -0.5340 -0.7008  0.1547
13691TIP3   OH262563   2.919   2.125   4.629 -0.7525 -0.0895  0.1841
13691TIP3    H162564   2.886   2.105   4.542 -0.9334  3.0107 -0.5633
13691TIP3    H262565   2.865   2.197   4.660  1.5590  1.2523  1.3530
13692TIP3   OH262566   0.876   4.948  11.683 -0.1567  0.6525  0.0074
13692TIP3    H162567   0.941   4.892  11.726 -0.0497  1.7285  1.3050
13692TIP3    H262568   0.927   5.018  11.644 -0.4704  1.2340  0.6108
13693TIP3   OH262569   3.334   1.649  13.977  0.1875  0.2820  0.8005
13693TIP3    H162570   3.383   1.611  14.049 -0.1228 -2.3099 -0.2515
13693TIP3    H262571   3.376   1.615  13.898 -0.6207  1.5373 -0.2239
13694TIP3   OH262572   3.654   1.306  14.058 -0.0688  0.2298  0.0133
13694TIP3    H162573   3.640   1.214  14.036 -2.0744  0.2888  0.8127
13694TIP3    H262574   3.725   1.305  14.122  0.5684 -0.6409 -0.6722
13695TIP3   OH262575   5.162   5.761  16.493 -0.5919 -0.4527  0.4013
13695TIP3    H162576   5.165   5.855  16.476  0.1478 -0.7903 -1.5393
13695TIP3    H262577   5.157   5.721  16.407 -0.4521 -2.2232  1.1743
13696TIP3   OH262578   4.881   5.614  14.997  0.1807  0.0905  0.0386
13696TIP3    H162579   4.942   5.614  14.923  1.5955  0.6559  1.1600
13696TIP3    H262580   4.807   5.665  14.966  1.0573  0.9271 -0.7636
13697TIP3   OH262581   3.825   4.201   4.709 -0.2945  0.4891  0.2714
13697TIP3    H162582   3.784   4.255   4.641 -0.1383  0.5833  0.2519
13697TIP3    H262583   3.769   4.212   4.785 -0.8673 -0.1747 -0.0428
13698TIP3   OH262584   0.108   4.945   1.769  0.2315 -0.5711 -0.0274
13698TIP3    H162585   0.185   4.906   1.810 -0.3980 -2.5104 -0.6074
13698TIP3    H262586   0.131   4.951   1.676 -1.5632 -4.8142 -0.9636
13699TIP3   OH262587   4.087   5.762  15.902  0.0069  0.4865 -0.0614
13699TIP3    H162588   4.119   5.724  15.821 -1.9231  2.2962 -1.7775
13699TIP3    H262589   3.992   5.761  15.894 -0.2212  3.8871  0.5112
13700TIP3   OH262590   2.731   5.062   2.675 -0.3211  0.3187  0.0808
13700TIP3    H162591   2.669   5.018   2.615 -0.4648  0.5689  0.0472
13700TIP3    H262592   2.677   5.120   2.728 -0.2328 -0.1310  0.6693
13701TIP3   OH262593   2.886   6.871   5.188 -0.4339 -0.4423  0.3047
13701TIP3    H162594   2.973   6.891   5.223  0.4004 -1.4100 -1.0992
13701TIP3    H262595   2.846   6.957   5.172 -0.9696  0.0632  3.6833
13702TIP3   OH262596   5.014   0.810  16.300 -0.5984  0.2583  0.1130
13702TIP3    H162597   4.972   0.888  16.337 -0.8213 -0.8833  2.4610
13702TIP3    H262598   4.942   0.749  16.284 -0.3119  0.0897 -0.5537
13703TIP3   OH262599   1.697   2.936   3.684  0.1572 -0.1223  0.5066
13703TIP3    H162600   1.648   2.862   3.646 -0.3899 -0.0090  0.9789
13703TIP3    H262601   1.789   2.915   3.666  0.0135 -0.9694  0.7189
13704TIP3   OH262602   0.924   4.119   4.588 -0.4050  0.7676  0.3625
13704TIP3    H162603   0.972   4.187   4.542 -0.1094  0.2851 -0.0565
13704TIP3    H262604   0.942   4.134   4.681 -0.4719  1.3504  0.2821
13705TIP3   OH262605   6.802   5.770   1.980  0.3388 -0.1824  0.1900
13705TIP3    H162606   6.868   5.807   1.921 -0.3581  1.4252  0.3676
13705TIP3    H262607   6.817   5.815   2.063 -0.3458 -0.5369  0.5108
13706TIP3   OH262608   3.736   2.339   5.885 -0.9381 -0.9298 -0.4618
13706TIP3    H162609   3.808   2.279   5.868 -0.0158 -0.1584  0.5960
13706TIP3    H262610   3.672   2.287   5.932 -0.8689 -1.4883 -0.9642
13707TIP3   OH262611   5.171   6.373  12.047  0.9173 -0.5503 -0.2630
13707TIP3    H162612   5.216   6.446  12.091 -2.0817  1.1949  0.1746
13707TIP3    H262613   5.161   6.307  12.115  2.2623 -0.7485 -0.2295
13708TIP3   OH262614   2.454   4.714  12.849 -0.1341  0.2779  0.3884
13708TIP3    H162615   2.412   4.629  12.854  0.7923 -0.1550  1.6396
13708TIP3    H262616   2.385   4.774  12.821 -0.2040 -1.2362 -3.1255
13709TIP3   OH262617   1.264   3.194   0.289 -0.1180 -1.0029 -0.3409
13709TIP3    H162618   1.181   3.232   0.260 -0.5831 -0.9590  0.9620
13709TIP3    H262619   1.242   3.103   0.312  0.2565 -1.0793 -0.2827
13710TIP3   OH262620   6.315   5.983   1.130  0.3972  0.0858  0.4696
13710TIP3    H162621   6.276   5.909   1.084 -0.9106  0.5320  0.8258
13710TIP3    H262622   6.409   5.976   1.111  0.5952 -2.6299  1.8374
13711TIP3   OH262623   5.656   6.213   2.249  0.2109 -0.2798 -0.2844
13711TIP3    H162624   5.589   6.161   2.205 -1.3852  0.7925  0.7642
13711TIP3    H262625   5.618   6.236   2.333  0.7299  2.6919 -0.7382
13712TIP3   OH262626   6.010   1.355  13.986  0.2090 -0.4476 -0.0738
13712TIP3    H162627   5.999   1.347  14.080 -1.2794 -2.9759 -0.3944
13712TIP3    H262628   6.101   1.328  13.970  0.1627 -0.9882  0.5535
13713TIP3   OH262629   5.227   0.707  16.062 -0.0725  0.5256  0.0857
13713TIP3    H162630   5.167   0.640  16.027  0.5941 -0.0356  0.0031
13713TIP3    H262631   5.190   0.728  16.148 -0.5724  0.4205 -0.0970
13714TIP3   OH262632   3.568   4.005   1.098  0.2741 -1.1304 -0.6040
13714TIP3    H162633   3.502   3.948   1.058 -0.2528 -0.7619 -0.2674
13714TIP3    H262634   3.562   3.988   1.192 -1.1935  0.7824 -0.2793
13715TIP3   OH262635   2.904   2.909  15.707  0.0296 -0.3248 -0.3265
13715TIP3    H162636   2.867   2.906  15.796  0.0045  1.0088 -0.2791
13715TIP3    H262637   2.841   2.960  15.657  0.6347 -0.0621 -0.8283
13716TIP3   OH262638   6.463   1.681   1.844  0.0959  0.9893  0.3074
13716TIP3    H162639   6.372   1.693   1.816  0.6427  1.3979 -1.4260
13716TIP3    H262640   6.503   1.630   1.773  1.3178  1.1685  0.8461
13717TIP3   OH262641   5.546   3.475  12.999  0.0680  0.2158 -0.5139
13717TIP3    H162642   5.507   3.405  13.051 -0.9886  0.0222 -1.5281
13717TIP3    H262643   5.580   3.431  12.921  0.7815  0.6285 -0.4482
13718TIP3   OH262644   4.212   1.196  13.375 -0.1789 -0.6044 -0.5689
13718TIP3    H162645   4.134   1.221  13.325 -0.6889 -2.4407 -0.7459
13718TIP3    H262646   4.214   1.101  13.371  2.0167 -0.6173 -0.4475
13719TIP3   OH262647   6.151   4.227   0.174 -0.4256 -0.5051  0.6098
13719TIP3    H162648   6.090   4.286   0.219 -0.3717 -1.1016  1.4934
13719TIP3    H262649   6.233   4.235   0.223 -0.3186 -1.0490  0.5298
13720TIP3   OH262650   2.317   5.953  15.899 -0.3622 -0.2767  0.4633
13720TIP3    H162651   2.243   5.994  15.856 -2.2739 -1.3880  2.4359
13720TIP3    H262652   2.357   6.023  15.951 -1.0724 -0.0105  0.6619
13721TIP3   OH262653   2.593   3.969   5.005 -0.4912  0.3423 -0.3264
13721TIP3    H162654   2.520   3.992   5.061  0.5243  3.0573  0.0096
13721TIP3    H262655   2.559   3.900   4.947 -2.2329 -0.9134  2.0391
13722TIP3   OH262656   4.248   3.274  13.327  0.0646  0.1231  0.9176
13722TIP3    H162657   4.234   3.190  13.283 -0.8528  0.1797  1.0864
13722TIP3    H262658   4.342   3.291  13.316  0.3749 -1.1594  1.3077
13723TIP3   OH262659   3.976   3.488  11.241  0.0219  0.3941  0.2648
13723TIP3    H162660   4.032   3.565  11.257  0.0227  0.5474 -0.4271
13723TIP3    H262661   4.031   3.430  11.188  1.2428 -1.5975  3.4800
13724TIP3   OH262662   2.600   5.499  14.443 -0.2180  0.1611  0.7647
13724TIP3    H162663   2.546   5.421  14.440 -0.1499  0.1082  0.9180
13724TIP3    H262664   2.665   5.486  14.374 -1.7535  1.2300 -0.9900
13725TIP3   OH262665   6.778   6.635   5.221  0.2024 -0.3014 -0.2921
13725TIP3    H162666   6.710   6.647   5.287  0.0255 -1.3486 -0.2661
13725TIP3    H262667   6.825   6.719   5.220  0.9086 -0.5906  1.9585
13726TIP3   OH262668   1.596   5.625   4.181  0.1380 -0.4721 -0.2063
13726TIP3    H162669   1.654   5.549   4.171  0.9455  0.1990 -0.8792
13726TIP3    H262670   1.516   5.590   4.218  1.1617 -1.3620  1.2648
13727TIP3   OH262671   6.417   0.287   4.059  0.0538 -0.0953 -0.0082
13727TIP3    H162672   6.368   0.214   4.023 -0.4509 -0.3314  1.1001
13727TIP3    H262673   6.367   0.365   4.035 -1.6072 -0.4080  2.1428
13728TIP3   OH262674   5.680   4.761   1.887 -0.3489  0.7010 -0.1349
13728TIP3    H162675   5.737   4.729   1.957 -0.6219  0.0040 -0.2241
13728TIP3    H262676   5.623   4.825   1.931 -0.4887  0.3039  0.2785
13729TIP3   OH262677   1.826   0.423  15.456 -0.3197  0.5523  0.2656
13729TIP3    H162678   1.831   0.441  15.550 -2.6198 -0.0141  0.5602
13729TIP3    H262679   1.866   0.500  15.415  1.3716  0.4821  1.7002
13730TIP3   OH262680   4.844   4.428  11.751  0.2177 -0.1080 -0.3737
13730TIP3    H162681   4.790   4.356  11.785 -1.9510  0.9457 -1.3965
13730TIP3    H262682   4.873   4.398  11.665  0.7535 -0.4214 -0.0884
13731TIP3   OH262683   2.536   2.011  11.229  0.0986  0.3249  0.1911
13731TIP3    H162684   2.543   2.002  11.134 -0.1353  0.6045  0.1493
13731TIP3    H262685   2.464   2.072  11.242  0.6900  0.9673  0.5260
13732TIP3   OH262686   3.182   4.137   5.831  0.0286  0.8098  0.4572
13732TIP3    H162687   3.149   4.226   5.827 -0.2772  0.7469  1.3171
13732TIP3    H262688   3.260   4.143   5.886  0.4684  0.6722 -0.1408
13733TIP3   OH262689   2.420   3.291   1.755  0.3537 -0.0883 -0.2232
13733TIP3    H162690   2.408   3.330   1.841  0.9730  0.8271 -0.5372
13733TIP3    H262691   2.417   3.365   1.694 -0.9174 -0.8067 -1.0854
13734TIP3   OH262692   1.110   5.204   1.700 -0.3957 -0.2135 -0.3936
13734TIP3    H162693   1.068   5.188   1.616  0.0270  0.7977 -0.8081
13734TIP3    H262694   1.089   5.127   1.753 -0.4453 -0.9763 -1.5055
13735TIP3   OH262695   3.355   3.718   5.081 -0.0602  0.1279  0.1759
13735TIP3    H162696   3.293   3.758   5.019 -0.5827  0.3779  0.8375
13735TIP3    H262697   3.353   3.776   5.157  2.1296  0.9774 -0.3401
13736TIP3   OH262698   6.709   2.021   4.949 -0.5422  0.4137 -0.0898
13736TIP3    H162699   6.662   2.036   5.031 -0.3028  1.4259 -0.1344
13736TIP3    H262700   6.733   1.928   4.952 -0.8632  0.3552  0.8087
13737TIP3   OH262701   3.266   2.561   2.798 -0.4622  0.3772 -0.1459
13737TIP3    H162702   3.251   2.621   2.871  1.8368  1.5390 -0.5223
13737TIP3    H262703   3.274   2.475   2.838  0.2023  0.9215  0.9478
13738TIP3   OH262704   3.180   3.577  10.741 -0.1872 -0.0559  0.1943
13738TIP3    H162705   3.259   3.615  10.780  0.3654 -0.6796 -0.3021
13738TIP3    H262706   3.115   3.581  10.811  0.1269  0.9404  0.4509
13739TIP3   OH262707   4.544   5.125  15.607 -0.9743 -0.0381  0.2931
13739TIP3    H162708   4.458   5.109  15.646 -1.1827 -0.2244 -0.2275
13739TIP3    H262709   4.535   5.096  15.516  0.1962 -1.8631  0.6960
13740TIP3   OH262710   4.613   2.217  15.450  0.0055 -0.7996  0.1485
13740TIP3    H162711   4.671   2.156  15.406  1.0578  0.0473  0.3214
13740TIP3    H262712   4.527   2.174  15.449 -0.2712 -0.4518 -3.5363
13741TIP3   OH262713   1.842   6.543   2.930  0.2526 -0.6017  0.3606
13741TIP3    H162714   1.880   6.631   2.930 -0.2359 -0.3776  1.2674
13741TIP3    H262715   1.850   6.514   2.839 -0.8130  0.9305 -0.2839
13742TIP3   OH262716   2.322   4.733  15.749 -0.2627  0.4994 -0.0214
13742TIP3    H162717   2.345   4.732  15.842  1.8297 -0.0749 -0.4876
13742TIP3    H262718   2.247   4.792  15.744 -0.6675  0.2574  2.0691
13743TIP3   OH262719   5.967   2.681  16.811 -0.0592  0.5407  0.4469
13743TIP3    H162720   6.037   2.746  16.800  0.3283 -0.0416 -0.6317
13743TIP3    H262721   5.991   2.610  16.753 -1.2908  0.0983  0.4606
13744TIP3   OH262722   5.783   0.640  16.937 -0.1105 -0.4598  0.6478
13744TIP3    H162723   5.864   0.592  16.922 -0.3563 -0.4131 -0.9809
13744TIP3    H262724   5.794   0.680  17.024  2.4980  1.2691 -0.3575
13745TIP3   OH262725   4.061   4.273  14.515 -0.2535  0.5533  0.7690
13745TIP3    H162726   4.048   4.246  14.424  0.2269 -0.6115  1.0252
13745TIP3    H262727   3.992   4.338  14.532 -0.5071  0.5799 -0.3363
13746TIP3   OH262728   5.387   2.386   0.893  0.0837 -0.4586  0.3813
13746TIP3    H162729   5.323   2.457   0.891 -0.4742 -0.8938  1.5521
13746TIP3    H262730   5.449   2.410   0.962 -1.5825 -2.2282  2.7036
13747TIP3   OH262731   4.794   2.040  15.819  0.5904 -0.1031 -0.1283
13747TIP3    H162732   4.886   2.012  15.825  0.6974 -0.2996 -1.9581
13747TIP3    H262733   4.785   2.107  15.886  2.6499  1.3591 -1.2178
13748TIP3   OH262734   4.723   0.222   3.832 -0.2828 -0.2917 -0.3717
13748TIP3    H162735   4.801   0.276   3.821  0.8632 -1.4917  1.3521
13748TIP3    H262736   4.678   0.260   3.908  0.0042 -1.1400  0.2329
13749TIP3   OH262737   1.813   6.807   4.762 -0.1014  0.0968  0.1322
13749TIP3    H162738   1.730   6.852   4.780  0.5267  1.0669  0.6631
13749TIP3    H262739   1.876   6.848   4.821  0.7355 -0.7374 -0.1599
13750TIP3   OH262740   3.560   6.378  14.625  0.4550  0.1781  0.2984
13750TIP3    H162741   3.577   6.285  14.617 -0.7167 -0.1093  0.9279
13750TIP3    H262742   3.635   6.412  14.675 -1.0303 -1.2045  3.7770
13751TIP3   OH262743   6.082   5.166  11.563 -0.1148 -0.7236 -0.6694
13751TIP3    H162744   6.066   5.081  11.522 -0.0307 -0.2976 -1.6250
13751TIP3    H262745   6.033   5.163  11.645 -0.7415 -1.4055 -1.0539
13752TIP3   OH262746   5.707   2.078   4.145  0.4023 -0.2986  0.3331
13752TIP3    H162747   5.658   2.030   4.211  0.5800  0.4767  1.0408
13752TIP3    H262748   5.779   2.019   4.121  0.9272 -0.1946  1.5861
13753TIP3   OH262749   5.556   5.226  11.736 -0.5497 -0.3580 -0.0383
13753TIP3    H162750   5.622   5.277  11.783  1.0396 -2.0646 -0.3100
13753TIP3    H262751   5.491   5.203  11.803  0.3238 -0.5487  0.7675
13754TIP3   OH262752   2.673   1.064  14.088 -0.2012 -0.3600 -0.4483
13754TIP3    H162753   2.719   1.071  14.004  0.4765 -0.6118 -0.1046
13754TIP3    H262754   2.689   1.147  14.131 -1.8740  0.4018 -1.2078
13755TIP3   OH262755   2.517   5.861   1.049 -0.1178  0.1349 -0.2964
13755TIP3    H162756   2.422   5.875   1.044 -0.2576  0.3187  1.9507
13755TIP3    H262757   2.527   5.767   1.060  0.0180  0.0421 -1.1401
13756TIP3   OH262758   2.107   5.212  15.551 -0.5812  0.0125 -0.2564
13756TIP3    H162759   2.134   5.217  15.460  0.9124  1.3795  0.2211
13756TIP3    H262760   2.057   5.292  15.566  0.4086  0.5164  0.4778
13757TIP3   OH262761   0.476   4.397  14.267  0.6415  0.2994 -0.4925
13757TIP3    H162762   0.454   4.487  14.292 -0.0562  0.5125 -1.7907
13757TIP3    H262763   0.569   4.389  14.287  0.9848  1.6842 -1.3738
13758TIP3   OH262764   4.510   4.724  13.655  0.2518  0.2821 -0.3593
13758TIP3    H162765   4.454   4.673  13.714 -0.2353  0.3015 -0.8038
13758TIP3    H262766   4.562   4.659  13.609  0.9160  0.2846  0.3638
13759TIP3   OH262767   6.824   4.021  15.959 -0.7128  0.4556  0.0321
13759TIP3    H162768   6.729   4.032  15.953 -0.5606  1.1258 -1.8757
13759TIP3    H262769   6.860   4.103  15.926  0.5236 -0.1829 -0.2625
13760TIP3   OH262770   6.858   4.268  16.729 -0.5369  0.2332 -0.0151
13760TIP3    H162771   6.929   4.215  16.765 -1.4476  0.4822  2.3355
13760TIP3    H262772   6.903   4.338  16.680  0.7477 -0.6619 -0.1805
13761TIP3   OH262773   2.970   2.274  12.624  0.2636  0.3811 -0.3588
13761TIP3    H162774   2.992   2.293  12.533 -0.2615 -1.2030 -0.8495
13761TIP3    H262775   3.034   2.207  12.650  1.0102  1.4746  0.7649
13762TIP3   OH262776   0.608   2.181  11.175 -0.3409 -0.4846  0.0006
13762TIP3    H162777   0.608   2.217  11.086 -1.1540 -1.0157 -0.2261
13762TIP3    H262778   0.516   2.161  11.193 -0.2646  0.1565  1.1899
13763TIP3   OH262779   4.187   5.414   5.878  0.3107 -0.5310 -0.5620
13763TIP3    H162780   4.137   5.432   5.957  0.7025 -0.7931 -0.2447
13763TIP3    H262781   4.277   5.403   5.909  0.5973  0.0965 -1.1376
13764TIP3   OH262782   3.615   4.602   1.613 -0.0564  0.2677 -0.4245
13764TIP3    H162783   3.579   4.624   1.527 -0.4906 -0.2587 -0.3818
13764TIP3    H262784   3.546   4.551   1.655 -0.2679  1.3715  0.6324
13765TIP3   OH262785   5.756   5.039   4.789  0.1010  0.5390  0.9021
13765TIP3    H162786   5.821   4.974   4.816  0.1647  0.1988 -0.0309
13765TIP3    H262787   5.683   4.986   4.756  0.8548  0.9048 -1.5394
13766TIP3   OH262788   0.990   4.923  16.880 -0.5980 -0.0433 -0.5336
13766TIP3    H162789   0.949   4.852  16.930 -0.3706  0.5711  0.5319
13766TIP3    H262790   0.972   4.900  16.788  1.2442 -2.5899 -0.3748
13767TIP3   OH262791   5.643   5.920  11.073 -0.1517  0.0325 -0.1516
13767TIP3    H162792   5.565   5.976  11.079 -1.7652 -2.2959  2.8527
13767TIP3    H262793   5.614   5.845  11.022  0.1759 -0.7303  0.7679
13768TIP3   OH262794   2.374   3.542   1.581  0.3087 -0.4590 -0.6510
13768TIP3    H162795   2.362   3.625   1.535  2.7940  0.6222  0.4595
13768TIP3    H262796   2.464   3.517   1.561  0.8141 -0.9811  1.8786
13769TIP3   OH262797   6.226   4.480  12.447 -0.0592  0.0660 -0.3602
13769TIP3    H162798   6.171   4.528  12.386 -0.3846 -0.6767 -0.6631
13769TIP3    H262799   6.182   4.489  12.532 -0.2040  0.1692 -0.4457
13770TIP3   OH262800   2.295   3.161   5.382 -0.3289  0.0805  0.4663
13770TIP3    H162801   2.295   3.140   5.475  0.1679  2.0374  0.9469
13770TIP3    H262802   2.339   3.087   5.340  1.3673  0.1553  2.0329
13771TIP3   OH262803   3.745   5.521  14.246  0.2600 -0.4569 -0.2698
13771TIP3    H162804   3.673   5.467  14.278 -1.6180  0.5284 -2.5384
13771TIP3    H262805   3.799   5.537  14.323 -0.9683 -2.6976  1.1582
13772TIP3   OH262806   3.623   6.158  14.228 -0.1302 -0.1669 -0.1851
13772TIP3    H162807   3.616   6.217  14.153 -0.7929  0.6236  0.4894
13772TIP3    H262808   3.552   6.184  14.287 -0.0609 -1.2355  0.4069
13773TIP3   OH262809   0.869   6.663  11.748 -0.1300  0.0043 -0.1488
13773TIP3    H162810   0.876   6.670  11.653 -3.2405  0.3413 -0.4738
13773TIP3    H262811   0.845   6.571  11.763  0.8541 -0.1757  0.3777
13774TIP3   OH262812   5.101   2.553  11.588  0.2594 -0.2130 -0.5375
13774TIP3    H162813   5.079   2.602  11.667  0.9912  1.0872 -1.0975
13774TIP3    H262814   5.151   2.478  11.619  0.7253  0.4010  0.2285
13775TIP3   OH262815   5.448   4.861   1.454 -0.2592  0.1964  0.3430
13775TIP3    H162816   5.363   4.818   1.445  0.1697 -0.9951  1.6982
13775TIP3    H262817   5.484   4.827   1.535  1.7038  0.3864 -0.3894
13776TIP3   OH262818   2.192   0.807   1.222 -0.0504 -0.6265  0.3290
13776TIP3    H162819   2.132   0.738   1.249 -0.8714 -0.1959 -0.3340
13776TIP3    H262820   2.147   0.888   1.245  0.5724 -0.3027  0.4245
13777TIP3   OH262821   3.094   4.396   2.443 -0.0945 -0.2005 -0.3117
13777TIP3    H162822   3.143   4.314   2.432  0.0643  0.0654 -1.7417
13777TIP3    H262823   3.023   4.373   2.503  0.3425 -1.2172 -0.1644
13778TIP3   OH262824   3.349   2.009   0.717 -0.5071 -0.4059  0.5058
13778TIP3    H162825   3.384   1.935   0.666  0.7006  0.9430 -0.7405
13778TIP3    H262826   3.353   1.979   0.808 -3.0231 -3.0143 -0.1141
13779TIP3   OH262827   6.472   2.807   2.675  0.2778 -0.1669  0.5141
13779TIP3    H162828   6.410   2.781   2.743 -0.5806  0.4209 -0.0216
13779TIP3    H262829   6.513   2.725   2.648 -1.2298 -0.7785 -0.0373
13780TIP3   OH262830   2.779   1.301  10.583 -0.0875 -0.0663 -0.4767
13780TIP3    H162831   2.814   1.249  10.656  0.7927 -0.1275 -0.9321
13780TIP3    H262832   2.840   1.285  10.511  0.0197  1.3400 -0.7242
13781TIP3   OH262833   3.497   4.754  13.315  0.2205  0.2669 -0.4929
13781TIP3    H162834   3.495   4.664  13.282  1.0061 -0.4713  1.2759
13781TIP3    H262835   3.413   4.766  13.358  0.4379  0.0537  0.0031
13782TIP3   OH262836   4.187   6.510   6.070 -0.1277 -0.0906  0.0100
13782TIP3    H162837   4.141   6.482   6.149  1.3191  1.6678  1.6010
13782TIP3    H262838   4.280   6.507   6.095  0.3331  1.1053 -1.4306
13783TIP3   OH262839   4.305   1.487   3.927  0.1675  0.2531  0.3792
13783TIP3    H162840   4.316   1.428   3.853 -1.1710 -0.0257  0.3718
13783TIP3    H262841   4.275   1.569   3.888 -3.3224 -0.7122  0.7292
13784TIP3   OH262842   0.868   3.763   3.427  0.0364 -0.6943 -0.1665
13784TIP3    H162843   0.849   3.850   3.461  1.0930 -0.3710 -0.3852
13784TIP3    H262844   0.781   3.726   3.408 -0.4487  0.0876  0.4425
13785TIP3   OH262845   3.924   2.514  14.261 -0.2119  0.3367  0.3211
13785TIP3    H162846   3.859   2.444  14.265  1.8501 -1.6680  1.2244
13785TIP3    H262847   4.003   2.471  14.228  0.8455  2.5272 -0.1494
13786TIP3   OH262848   3.022   2.711  15.853  0.2968 -0.9855  0.0137
13786TIP3    H162849   3.109   2.750  15.842 -0.5229  1.1531  0.7299
13786TIP3    H262850   2.968   2.752  15.785 -0.5419 -1.0498  0.6239
13787TIP3   OH262851   1.395   5.527  11.656  0.5930  0.4371  0.9678
13787TIP3    H162852   1.391   5.488  11.569  0.9472  0.5753  0.8867
13787TIP3    H262853   1.449   5.605  11.644 -0.2270  1.0463  1.0900
13788TIP3   OH262854   2.052   4.089  13.747 -0.8225 -0.2884  0.2933
13788TIP3    H162855   1.998   4.150  13.798 -0.6937 -2.0299  2.6651
13788TIP3    H262856   2.136   4.087  13.792  0.1523 -0.1719 -1.4032
13789TIP3   OH262857   1.187   5.907   6.046 -0.7958  0.1394  0.1129
13789TIP3    H162858   1.119   5.881   6.108 -1.5812 -1.0687 -1.2272
13789TIP3    H262859   1.236   5.976   6.093 -1.4577 -0.6014  1.9946
13790TIP3   OH262860   5.026   5.285  13.145 -0.6007 -0.0012  0.1391
13790TIP3    H162861   5.005   5.214  13.085  1.3967 -0.4588 -0.1011
13790TIP3    H262862   5.045   5.242  13.229  0.4178  0.2374  0.0476
13791TIP3   OH262863   4.172   6.356   4.864  0.3018  0.1010  0.4871
13791TIP3    H162864   4.244   6.298   4.886 -1.5995 -1.8338  1.9628
13791TIP3    H262865   4.178   6.427   4.928  0.4409 -0.4566  1.1016
13792TIP3   OH262866   0.499   1.429  11.846 -0.4378  0.2854 -0.2636
13792TIP3    H162867   0.538   1.386  11.770 -1.4634 -1.8854  0.3770
13792TIP3    H262868   0.496   1.362  11.913 -0.5313  1.8713  1.3898
13793TIP3   OH262869   5.336   6.244   2.367 -0.2833 -0.5152  0.4963
13793TIP3    H162870   5.408   6.284   2.416 -0.8718  0.8590  0.2940
13793TIP3    H262871   5.281   6.204   2.434  0.7555 -1.7898  0.6373
13794TIP3   OH262872   4.857   4.214   3.984  0.1196  0.0962 -0.8573
13794TIP3    H162873   4.917   4.219   4.059  1.5523  3.5297 -2.0126
13794TIP3    H262874   4.884   4.135   3.937 -0.1237 -1.5640  1.6049
13795TIP3   OH262875   5.738   4.800  13.392 -0.5323  0.1856 -0.5377
13795TIP3    H162876   5.701   4.738  13.453 -0.4268 -0.8088 -1.4549
13795TIP3    H262877   5.831   4.805  13.415 -0.6270  0.3599 -0.1821
13796TIP3   OH262878   1.990   5.015  11.919 -0.1223 -0.4817 -0.5314
13796TIP3    H162879   2.069   4.965  11.938 -1.0653 -1.2855  1.5957
13796TIP3    H262880   1.992   5.028  11.824  1.3777 -2.4601 -0.8388
13797TIP3   OH262881   1.818   6.258   6.175 -0.3224 -0.1727 -0.5281
13797TIP3    H162882   1.812   6.349   6.144  2.1961  0.6202  0.9979
13797TIP3    H262883   1.728   6.235   6.197 -1.2123  1.5117 -2.0371
13798TIP3   OH262884   3.258   3.884  15.535 -0.2900  0.5418  0.1442
13798TIP3    H162885   3.191   3.868  15.601 -0.2877 -3.2382 -0.5133
13798TIP3    H262886   3.212   3.925  15.462 -2.1794 -2.2669 -0.4305
13799TIP3   OH262887   3.563   3.506  11.458  0.4329 -0.3429 -0.0573
13799TIP3    H162888   3.581   3.413  11.464 -2.0133 -0.8095  1.5585
13799TIP3    H262889   3.468   3.512  11.454  0.4010  2.1370  1.8602
13800TIP3   OH262890   0.859   3.363   2.757  0.6151 -0.1350  0.3468
13800TIP3    H162891   0.946   3.383   2.792  1.5385 -3.3303  0.1960
13800TIP3    H262892   0.873   3.286   2.702 -2.0815  0.2388 -1.0184
13801TIP3   OH262893   5.941   6.335   1.769 -0.2819 -0.7659  0.0966
13801TIP3    H162894   5.969   6.246   1.745 -0.3139 -0.5467 -0.7732
13801TIP3    H262895   5.930   6.331   1.864  0.2006 -1.5572  0.1307
13802TIP3   OH262896   0.529   0.298   0.633 -0.5558  0.2901  1.0421
13802TIP3    H162897   0.505   0.210   0.604 -1.5118  0.4291  1.3775
13802TIP3    H262898   0.601   0.324   0.575 -1.6420  0.1128 -0.4469
13803TIP3   OH262899   2.745   3.296   3.656 -0.1094 -0.2373 -0.7131
13803TIP3    H162900   2.652   3.301   3.679  0.1217  0.9623  0.0717
13803TIP3    H262901   2.746   3.286   3.561 -1.0617  2.6459 -1.1262
13804TIP3   OH262902   4.507   3.770   0.022  0.4349  0.4752  0.1883
13804TIP3    H162903   4.546   3.684   0.041  1.2745  0.5404 -1.1410
13804TIP3    H262904   4.427   3.771   0.074 -0.3320 -1.7028 -0.8225
13805TIP3   OH262905   3.811   0.031  15.320  0.1949 -0.1614 -0.3921
13805TIP3    H162906   3.794   0.033  15.415 -1.0352 -1.5601 -0.5430
13805TIP3    H262907   3.875  -0.040  15.310  0.6969  0.3106 -0.5788
13806TIP3   OH262908   1.797   4.412   5.135 -0.2514  0.2587  0.0623
13806TIP3    H162909   1.746   4.411   5.055 -0.4237 -0.2924  0.1777
13806TIP3    H262910   1.734   4.393   5.205  0.0141  0.1007  0.2610
13807TIP3   OH262911   6.764   3.933  15.093 -0.5462  0.2751 -0.4309
13807TIP3    H162912   6.736   4.021  15.067  0.1759  0.6251 -0.0684
13807TIP3    H262913   6.686   3.892  15.129 -0.7123  1.0503  0.1120
13808TIP3   OH262914   6.822   6.047  15.611 -0.1472 -0.8313  0.2301
13808TIP3    H162915   6.791   5.984  15.675  0.8717 -1.4540  0.1335
13808TIP3    H262916   6.902   6.083  15.649 -1.1126  0.9981  0.6388
13809TIP3   OH262917   4.190   0.157  15.583 -0.2772 -0.3963 -0.1685
13809TIP3    H162918   4.205   0.081  15.527 -0.8700 -0.3141 -0.4516
13809TIP3    H262919   4.109   0.135  15.631 -0.3669 -0.0109 -0.1403
13810TIP3   OH262920   3.564   0.245  15.644 -0.1126  0.1699 -0.1349
13810TIP3    H162921   3.513   0.327  15.641  2.1170  1.6268 -0.5373
13810TIP3    H262922   3.636   0.264  15.703 -0.1869 -1.9673  0.7195
13811TIP3   OH262923   5.625   2.910  13.937  0.2208 -0.2107  0.3659
13811TIP3    H162924   5.666   2.931  13.854 -0.5150  1.5832  0.3974
13811TIP3    H262925   5.531   2.906  13.917 -0.1283  1.7734  1.3132
13812TIP3   OH262926   4.298   3.449   6.405  0.1805 -0.6129  0.7545
13812TIP3    H162927   4.223   3.425   6.351  0.8278  0.0344 -0.4699
13812TIP3    H262928   4.266   3.519   6.462 -0.2533 -0.6282  0.5271
13813TIP3   OH262929   1.435   1.485  12.643  0.3029  0.4317 -0.5304
13813TIP3    H162930   1.401   1.572  12.622  0.9383  0.6060 -0.8604
13813TIP3    H262931   1.480   1.496  12.727 -0.0010  0.3151 -0.3483
13814TIP3   OH262932   6.588   1.693   2.086 -0.0336 -0.0222 -0.4507
13814TIP3    H162933   6.679   1.711   2.063  0.1883  1.5443  1.3690
13814TIP3    H262934   6.542   1.687   2.002  1.3943  1.1722 -1.3572
13815TIP3   OH262935   4.901   1.313  15.315  0.5010  0.4272 -0.5584
13815TIP3    H162936   4.870   1.245  15.374 -2.0741  1.7616 -0.1904
13815TIP3    H262937   4.835   1.316  15.246  2.5735  0.0243 -2.6834
13816TIP3   OH262938   4.462   2.818   4.611  0.2105 -0.2620  0.1772
13816TIP3    H162939   4.473   2.798   4.518  0.1173  0.2061  0.0637
13816TIP3    H262940   4.538   2.777   4.653  0.6205  0.1084 -0.1892
13817TIP3   OH262941   5.176   2.874  11.696  0.4495  0.2113 -0.0281
13817TIP3    H162942   5.154   2.967  11.707  2.8384  1.1429 -2.2205
13817TIP3    H262943   5.161   2.857  11.603 -0.3542 -1.7677  0.4150
13818TIP3   OH262944   2.834   5.674   1.169 -0.1203 -0.6957 -0.0695
13818TIP3    H162945   2.752   5.632   1.141 -0.4965 -0.4720  0.6601
13818TIP3    H262946   2.808   5.727   1.245  0.4037  0.6394 -0.8118
13819TIP3   OH262947   6.201   3.841  11.247  0.0175  0.2837  0.3520
13819TIP3    H162948   6.147   3.839  11.326  0.4192 -0.0783  0.6253
13819TIP3    H262949   6.215   3.749  11.226  2.0802  0.3212  1.3702
13820TIP3   OH262950   1.852   4.964  15.102  0.1726  0.0610 -0.0252
13820TIP3    H162951   1.801   4.900  15.152  1.7386 -0.8526  0.4837
13820TIP3    H262952   1.926   4.985  15.159  0.1389  1.7103 -0.5432
13821TIP3   OH262953   6.603   0.472  16.554  0.0624  0.4089  0.4288
13821TIP3    H162954   6.597   0.560  16.592  0.2340  0.6232 -0.0352
13821TIP3    H262955   6.697   0.452  16.557  0.2827  1.0300 -1.2082
13822TIP3   OH262956   5.453   3.266   0.900 -0.6594 -0.0218 -0.1585
13822TIP3    H162957   5.382   3.202   0.899 -0.4676 -0.3389 -3.0886
13822TIP3    H262958   5.527   3.220   0.859  1.8565 -0.1875  3.9948
13823TIP3   OH262959   4.409   0.085   2.436 -0.1698 -0.7524 -0.2659
13823TIP3    H162960   4.464   0.139   2.379 -0.5280 -1.6177 -1.4789
13823TIP3    H262961   4.351   0.148   2.479  0.1139 -0.0688 -0.8514
13824TIP3   OH262962   3.754   0.896   5.788  0.0119  0.0901  0.1557
13824TIP3    H162963   3.826   0.914   5.847  1.7142  0.5041 -1.9191
13824TIP3    H262964   3.704   0.978   5.784 -0.0758  0.0771  0.9239
13825TIP3   OH262965   6.840   5.393  10.724 -0.0451 -0.4540  0.1271
13825TIP3    H162966   6.755   5.394  10.681  0.2379  0.4287 -0.4454
13825TIP3    H262967   6.886   5.469  10.687  0.6357 -0.3629  1.1358
13826TIP3   OH262968   0.368   3.883   1.728 -0.2784  0.0550 -0.1826
13826TIP3    H162969   0.363   3.817   1.660 -1.1298 -1.1686  1.0067
13826TIP3    H262970   0.288   3.870   1.780  0.3875  0.8585  1.1070
13827TIP3   OH262971   0.231   0.301  10.947  0.0601 -0.3411 -0.0886
13827TIP3    H162972   0.141   0.302  10.978 -0.5354 -1.3105 -1.6722
13827TIP3    H262973   0.262   0.212  10.963  0.7092 -0.0571  0.3137
13828TIP3   OH262974   4.116   3.137  11.325  0.7109 -0.4752 -0.2682
13828TIP3    H162975   4.138   3.209  11.266  0.2912  0.4611  0.6795
13828TIP3    H262976   4.115   3.059  11.269 -2.3611  0.7010 -2.0632
13829TIP3   OH262977   4.130   5.788  16.607 -0.2954  0.0135 -0.3845
13829TIP3    H162978   4.165   5.835  16.531 -0.9240  1.6249  0.2925
13829TIP3    H262979   4.057   5.737  16.572 -0.7301  0.9278 -0.8286
13830TIP3   OH262980   1.034   0.824  10.303  1.1788 -0.0401 -0.2100
13830TIP3    H162981   1.110   0.771  10.277  1.7185 -0.4542  2.0057
13830TIP3    H262982   1.048   0.909  10.261  2.0682 -0.6026 -1.0754
13831TIP3   OH262983   5.321   6.432   2.670  0.1730 -0.0691 -0.0968
13831TIP3    H162984   5.348   6.490   2.741 -2.1211 -0.1771  0.9658
13831TIP3    H262985   5.338   6.482   2.590  2.1230  0.3480  0.5250
13832TIP3   OH262986   4.773   5.094  16.045  0.5089  0.8831  0.6551
13832TIP3    H162987   4.706   5.040  16.086 -0.7366  0.3849 -1.8713
13832TIP3    H262988   4.745   5.184  16.061 -0.1037  0.6955  0.6630
13833TIP3   OH262989   5.756   5.883  14.868 -0.7735 -0.2146 -0.0122
13833TIP3    H162990   5.712   5.809  14.910 -1.2797 -0.3862 -0.8266
13833TIP3    H262991   5.827   5.906  14.928 -0.3351 -1.6405  0.0557
13834TIP3   OH262992   4.522   4.347   5.650 -0.2337  0.4673  0.1905
13834TIP3    H162993   4.575   4.420   5.617 -0.7608  1.2428  1.0291
13834TIP3    H262994   4.434   4.382   5.658 -0.1114  0.4025  2.5700
13835TIP3   OH262995   2.090   4.925   3.126 -0.3083 -0.0082 -0.2069
13835TIP3    H162996   2.021   4.979   3.087  1.6952  2.4489 -0.6196
13835TIP3    H262997   2.064   4.917   3.218 -1.4202  0.3390 -0.4663
13836TIP3   OH262998   0.319   6.105  13.494 -0.3051 -0.0848 -0.7957
13836TIP3    H162999   0.408   6.134  13.514  0.0312 -2.1775  1.1555
13836TIP3    H263000   0.330   6.016  13.460 -1.5518  0.4207 -2.6778
13837TIP3   OH263001   1.716   2.212  13.262 -0.4130 -0.3124  0.2317
13837TIP3    H163002   1.737   2.155  13.188  1.8671 -0.2247  0.7365
13837TIP3    H263003   1.643   2.168  13.307 -0.7685 -1.1756 -1.1462
13838TIP3   OH263004   4.729   1.506   1.723  0.3266  0.4256  0.2947
13838TIP3    H163005   4.704   1.465   1.807  0.0883  1.7430  0.8931
13838TIP3    H263006   4.737   1.599   1.744  1.4159  0.6194 -0.9052
13839TIP3   OH263007   6.658   5.577   0.190 -0.0712 -0.2004 -0.1473
13839TIP3    H163008   6.599   5.639   0.146 -1.0360  0.3073  1.7376
13839TIP3    H263009   6.620   5.567   0.277  2.2511 -0.4188  0.8990
13840TIP3   OH263010   4.475   4.669  10.837 -0.0776 -0.6955 -0.6784
13840TIP3    H163011   4.445   4.755  10.866 -0.0952 -1.3340  1.3530
13840TIP3    H263012   4.407   4.638  10.777 -1.2672 -0.2515  0.3989
13841TIP3   OH263013   3.738   0.601  14.122  0.0391  0.9805 -0.0908
13841TIP3    H163014   3.767   0.524  14.074  2.3913  0.7884  1.5100
13841TIP3    H263015   3.764   0.675  14.067  0.0639  0.6896 -0.4699
13842TIP3   OH263016   2.079   2.565  15.401 -0.2650 -1.6858 -0.1601
13842TIP3    H163017   2.131   2.491  15.432  0.4196 -0.8599  0.7350
13842TIP3    H263018   2.068   2.550  15.307  1.9756 -1.6780 -0.4807
13843TIP3   OH263019   1.827   0.588  16.606  0.0712 -0.2509 -0.3996
13843TIP3    H163020   1.884   0.534  16.551 -0.8071 -1.2794 -0.3140
13843TIP3    H263021   1.752   0.533  16.625 -1.3293  1.3113 -1.1086
13844TIP3   OH263022   4.027   0.448  15.922  0.5369 -0.4055  0.2448
13844TIP3    H163023   4.011   0.500  16.001 -0.8455 -0.2025 -0.1358
13844TIP3    H263024   3.978   0.367  15.936 -0.5266  0.0285 -0.7782
13845TIP3   OH263025   5.540   2.260   4.016 -0.5269  0.3731 -0.0948
13845TIP3    H163026   5.559   2.352   4.032 -0.1188  0.4516 -1.0145
13845TIP3    H263027   5.605   2.212   4.068 -0.5985  0.5931  0.2031
13846TIP3   OH263028   4.414   4.619   4.739  0.1163 -0.2753  0.6886
13846TIP3    H163029   4.363   4.539   4.750 -1.1566  0.5651  1.0955
13846TIP3    H263030   4.420   4.656   4.828  1.7693 -0.5231  0.7276
13847TIP3   OH263031   1.977   2.928  16.256 -0.0068  0.2627 -0.3238
13847TIP3    H163032   1.956   2.998  16.319  0.1661 -0.3267  0.4049
13847TIP3    H263033   2.036   2.870  16.305 -0.3619 -0.5353 -0.8402
13848TIP3   OH263034   0.120   2.024  12.354 -0.4279 -0.5209  0.1168
13848TIP3    H163035   0.151   1.999  12.267 -0.5974 -1.3336  0.2856
13848TIP3    H263036   0.048   2.086  12.337  1.1527  1.3115 -0.2808
13849TIP3   OH263037   3.192   6.411  10.303  0.2819  0.9447 -0.1635
13849TIP3    H163038   3.287   6.409  10.311  0.5816  0.9468 -2.6585
13849TIP3    H263039   3.174   6.492  10.255 -1.1450  1.6820  1.5295
13850TIP3   OH263040   2.513   3.917   0.944 -0.0859  0.7161  0.4068
13850TIP3    H163041   2.575   3.936   0.874  0.5529  1.4762  1.1586
13850TIP3    H263042   2.449   3.988   0.940  1.2478  2.1126  2.0191
13851TIP3   OH263043   2.673   2.653  14.608  0.5278  0.4805 -0.3381
13851TIP3    H163044   2.583   2.619  14.610  0.8113 -0.4538 -1.8689
13851TIP3    H263045   2.706   2.637  14.696 -0.0235 -1.4130 -0.4254
13852TIP3   OH263046   1.796   1.215  12.103  0.0131 -0.0190  0.1384
13852TIP3    H163047   1.791   1.300  12.059 -0.1667 -0.5063 -0.8130
13852TIP3    H263048   1.866   1.225  12.168  0.8714  0.4731 -0.8454
13853TIP3   OH263049   0.962   6.445   3.453 -0.2235  0.1786  0.0509
13853TIP3    H163050   1.023   6.393   3.506  0.1801  0.9088  0.3186
13853TIP3    H263051   0.966   6.532   3.492 -2.8079 -0.1452  1.2652
13854TIP3   OH263052   1.838   6.797   1.938  0.1917 -0.5265 -0.1668
13854TIP3    H163053   1.905   6.739   1.904  0.2991  0.0873 -1.0448
13854TIP3    H263054   1.861   6.811   2.030  3.2548  2.3251 -1.1808
13855TIP3   OH263055   3.123   4.677   2.320  0.2621  0.1387 -0.1651
13855TIP3    H163056   3.142   4.740   2.391 -0.8747  1.7254 -1.2027
13855TIP3    H263057   3.112   4.593   2.365 -0.6592  1.1431  1.5858
13856TIP3   OH263058   5.420   2.966   4.477 -0.2673 -0.0337  0.3733
13856TIP3    H163059   5.340   3.011   4.448  1.0515  1.5398 -1.0243
13856TIP3    H263060   5.490   3.029   4.461  1.3583 -1.6115  0.9609
13857TIP3   OH263061   4.921   6.495  12.907  0.2708 -0.4921 -0.0967
13857TIP3    H163062   4.969   6.578  12.913 -0.9019  0.2102  0.0933
13857TIP3    H263063   4.849   6.505  12.970 -0.6899 -1.0927 -1.0671
13858TIP3   OH263064   2.070   2.876  14.784 -0.8399  0.6807  0.3965
13858TIP3    H163065   2.104   2.963  14.762 -0.2690  0.1711 -0.8258
13858TIP3    H263066   1.978   2.891  14.806 -0.6892  1.6218  0.4300
13859TIP3   OH263067   1.743   3.741  11.608  0.3284  0.3862 -0.3486
13859TIP3    H163068   1.658   3.696  11.613 -0.2146  1.3585 -0.4711
13859TIP3    H263069   1.802   3.677  11.568 -0.9201  0.4952 -2.4765
13860TIP3   OH263070   1.070   2.011  16.411  0.2117  0.2200 -0.1988
13860TIP3    H163071   1.092   1.925  16.374 -0.4161 -0.5297  1.0846
13860TIP3    H263072   0.981   2.027  16.381  0.4198  0.5546 -0.6496
13861TIP3   OH263073   4.509   1.064   3.054 -0.1457  0.2475 -0.4985
13861TIP3    H163074   4.527   1.150   3.014  2.7370 -0.3471 -0.6714
13861TIP3    H263075   4.476   1.011   2.982  2.4428 -0.0381 -1.5595
13862TIP3   OH263076   3.035   4.450   2.053 -0.0787 -0.4206 -0.1826
13862TIP3    H163077   3.008   4.542   2.058 -0.6286 -0.4988 -1.4182
13862TIP3    H263078   3.124   4.450   2.089 -0.6648  0.3051  1.3629
13863TIP3   OH263079   0.010   1.607  15.110 -0.2603 -0.1030  0.4648
13863TIP3    H163080   0.042   1.635  15.196 -1.4445 -0.3513  0.9985
13863TIP3    H263081   0.034   1.515  15.104  0.6640  0.1425  0.1082
13864TIP3   OH263082   5.168   2.292  16.544 -0.4245 -0.4644  0.8009
13864TIP3    H163083   5.086   2.307  16.590 -1.1397  0.0597 -0.5864
13864TIP3    H263084   5.157   2.207  16.502 -0.8959  0.2759 -0.6373
13865TIP3   OH263085   4.779   5.520  13.464  0.8817  0.8091 -0.3169
13865TIP3    H163086   4.788   5.437  13.511 -1.3300  1.8355  2.1789
13865TIP3    H263087   4.845   5.577  13.502  0.4525  1.0361  0.0982
13866TIP3   OH263088   0.822   6.348   4.085 -0.2892 -0.1235  0.0556
13866TIP3    H163089   0.736   6.377   4.055  0.1125  3.5260  1.8719
13866TIP3    H263090   0.803   6.281   4.151 -1.6215 -0.2797 -0.4479
13867TIP3   OH263091   0.907   3.212  11.626  0.1127 -0.1572 -0.1368
13867TIP3    H163092   0.899   3.210  11.721 -1.3942 -2.1044 -0.2608
13867TIP3    H263093   0.869   3.130  11.596 -1.1504  1.1917 -2.5615
13868TIP3   OH263094   1.493   0.604  14.214  0.7116  0.2879  0.4367
13868TIP3    H163095   1.544   0.538  14.166  0.2902  0.5789 -0.4295
13868TIP3    H263096   1.553   0.638  14.280  0.8650 -1.1367  1.0603
13869TIP3   OH263097   2.613   5.143  15.264  0.1232  0.2029 -0.6294
13869TIP3    H163098   2.657   5.120  15.182  0.3417 -0.7334 -0.2664
13869TIP3    H263099   2.653   5.226  15.291  1.1503 -0.2622 -0.6890
13870TIP3   OH263100   4.046   2.066   3.387 -0.3079 -0.0108 -0.1054
13870TIP3    H163101   4.015   2.100   3.471 -0.1932  0.6809 -0.3327
13870TIP3    H263102   4.140   2.054   3.399 -0.2183  0.4899 -0.2539
13871TIP3   OH263103   1.942   5.035   3.920  0.3229  0.0076 -0.3547
13871TIP3    H163104   1.934   5.067   3.830 -0.3719  2.3524  0.4624
13871TIP3    H263105   2.037   5.029   3.935  0.4683  1.1999 -0.7345
13872TIP3   OH263106   0.185   4.423   0.030 -0.2266  0.2470  0.3831
13872TIP3    H163107   0.268   4.441   0.074  0.9741 -0.0804 -1.6185
13872TIP3    H263108   0.180   4.328   0.026 -0.5756  0.2697  0.2607
13873TIP3   OH263109   3.548   5.753   3.419  0.0861  0.3722  0.4922
13873TIP3    H163110   3.598   5.800   3.486  1.8110 -0.3975 -0.1993
13873TIP3    H263111   3.577   5.663   3.427 -0.8984 -0.0273 -0.2484
13874TIP3   OH263112   5.790   0.975   1.413 -0.2006 -0.0632 -0.1055
13874TIP3    H163113   5.699   0.984   1.442 -0.5332 -1.0971 -0.7930
13874TIP3    H263114   5.842   0.996   1.491 -1.0444 -0.3839  0.5537
13875TIP3   OH263115   0.770   0.509  10.521  0.6693  0.2071 -0.1608
13875TIP3    H163116   0.717   0.429  10.528  1.4514 -0.3884 -0.9454
13875TIP3    H263117   0.728   0.559  10.451 -1.4400  1.7877  2.0363
13876TIP3   OH263118   6.081   4.208  16.498 -0.3311  1.0544 -0.5323
13876TIP3    H163119   6.164   4.224  16.544  0.5762 -0.0966 -1.6793
13876TIP3    H263120   6.055   4.293  16.464  0.3266  1.4602 -0.0373
13877TIP3   OH263121   3.567   3.449  10.702 -0.0480  0.0447  0.1764
13877TIP3    H163122   3.642   3.497  10.667  1.8650 -2.0038  1.2274
13877TIP3    H263123   3.551   3.379  10.639 -0.4346 -0.1439  0.4745
13878TIP3   OH263124   5.031   5.549   5.374 -0.4014 -0.2056  0.1012
13878TIP3    H163125   4.967   5.575   5.440  0.3622  0.7878  0.4791
13878TIP3    H263126   5.096   5.620   5.374  2.5270 -2.6191  2.1176
13879TIP3   OH263127   0.488   4.671  13.185 -0.2248 -0.0574  0.5402
13879TIP3    H163128   0.554   4.720  13.234  0.2051  0.1131 -0.1942
13879TIP3    H263129   0.488   4.585  13.227  0.3092  0.0070  0.6904
13880TIP3   OH263130   2.784   4.086   0.220 -0.0208 -0.1368 -0.0411
13880TIP3    H163131   2.860   4.035   0.192  1.0785 -1.3344  4.3596
13880TIP3    H263132   2.714   4.021   0.233 -0.2486  0.2095  0.5575
13881TIP3   OH263133   1.199   6.431   4.108 -0.1481 -0.5695  0.4044
13881TIP3    H163134   1.286   6.444   4.070 -0.8450 -0.0595 -1.1002
13881TIP3    H263135   1.146   6.396   4.037 -2.9716  5.3582 -1.0856
13882TIP3   OH263136   5.042   6.700  16.094  0.5984  0.1294 -1.1199
13882TIP3    H163137   4.958   6.696  16.139  0.3784  0.8258 -1.4554
13882TIP3    H263138   5.107   6.693  16.164  0.2605  1.3181 -0.6768
13883TIP3   OH263139   3.380   0.912  14.544 -0.1045 -1.1064 -0.0970
13883TIP3    H163140   3.383   0.953  14.630  0.9701 -1.5727  0.0942
13883TIP3    H263141   3.447   0.957  14.493  1.3230 -2.7832  0.2138
13884TIP3   OH263142   2.523   0.908   1.874 -0.0807  0.1128 -0.1464
13884TIP3    H163143   2.464   0.833   1.870 -0.8258  0.6794 -0.2302
13884TIP3    H263144   2.596   0.879   1.929 -1.1743 -0.1304  1.2464
13885TIP3   OH263145   6.127   1.552  16.790  0.0187 -0.2764  0.1720
13885TIP3    H163146   6.095   1.477  16.740 -0.7150 -0.5701  1.0540
13885TIP3    H263147   6.210   1.522  16.828  0.1382 -0.3526 -0.1450
13886TIP3   OH263148   5.745   2.100  10.116  0.0528  0.1170  0.4280
13886TIP3    H163149   5.838   2.099  10.138  0.2337 -2.4698 -0.0657
13886TIP3    H263150   5.738   2.046  10.037 -1.5536  2.6799 -1.3676
13887TIP3   OH263151   3.997   5.997   0.556 -0.1923 -0.2016  0.3183
13887TIP3    H163152   3.977   6.075   0.505 -0.3400  2.7454  4.4057
13887TIP3    H263153   4.092   5.998   0.566 -0.0291 -1.4674 -0.7826
13888TIP3   OH263154   0.939   1.891   1.608  0.6517 -0.1495  0.0754
13888TIP3    H163155   0.938   1.849   1.694  0.6595 -1.4495 -0.5360
13888TIP3    H263156   0.888   1.832   1.552  0.3360  0.8689 -0.7293
13889TIP3   OH263157   1.476   6.200  10.790 -0.0647 -0.4362  0.1685
13889TIP3    H163158   1.447   6.245  10.869  2.2045 -0.6368  1.1639
13889TIP3    H263159   1.566   6.175  10.807  1.1872  1.1315 -3.1473
13890TIP3   OH263160   6.113   2.071   3.057 -0.3051 -0.3013 -0.6421
13890TIP3    H163161   6.092   2.151   3.009 -1.0140  0.2159  0.4680
13890TIP3    H263162   6.069   2.001   3.008 -1.7482  0.3221 -0.2887
13891TIP3   OH263163   3.277   2.815   0.292  0.5631  0.1438 -0.1731
13891TIP3    H163164   3.251   2.823   0.200  0.3402  2.2731  0.0300
13891TIP3    H263165   3.360   2.767   0.289 -1.1511 -3.0886 -1.1377
13892TIP3   OH263166   0.055   0.535  12.996 -0.6761 -0.0052  0.3819
13892TIP3    H163167   0.005   0.454  12.984 -0.8102  0.2430 -0.8916
13892TIP3    H263168   0.146   0.509  12.986 -0.6265 -0.2192  1.3182
13893TIP3   OH263169   4.441   3.396  14.247  0.5356  0.0399 -0.5910
13893TIP3    H163170   4.502   3.335  14.289 -1.1534 -1.1598  0.2389
13893TIP3    H263171   4.498   3.462  14.206  2.3594 -0.6065  0.7306
13894TIP3   OH263172   3.312   3.685   4.718 -0.4011  0.8829 -0.2011
13894TIP3    H163173   3.401   3.722   4.723  0.1561 -0.5164  2.1340
13894TIP3    H263174   3.263   3.731   4.786 -0.6746 -0.1696  0.3442
13895TIP3   OH263175   5.110   4.380   5.662 -0.5756  0.3090 -0.1312
13895TIP3    H163176   5.177   4.401   5.728 -1.3192 -1.5162  1.2752
13895TIP3    H263177   5.062   4.306   5.698 -3.2939  1.4135 -1.1458
13896TIP3   OH263178   0.075   2.548   4.612  0.2910  0.3300  0.3561
13896TIP3    H163179  -0.017   2.523   4.604  0.3004  0.3390  0.2074
13896TIP3    H263180   0.073   2.637   4.648  0.1281  1.4983 -2.2966
13897TIP3   OH263181   3.231   3.425   4.776 -0.2031 -0.3306  0.1572
13897TIP3    H163182   3.258   3.513   4.750 -2.0110  0.3231  0.3586
13897TIP3    H263183   3.293   3.400   4.844  0.5069  0.6671 -0.0962
13898TIP3   OH263184   4.896   3.449   4.514 -0.1431 -0.1539 -0.1041
13898TIP3    H163185   4.947   3.498   4.450  1.5219 -2.0154 -0.2961
13898TIP3    H263186   4.943   3.462   4.597 -0.6820 -0.0227  0.1848
13899TIP3   OH263187   4.279   4.579  13.758 -0.3196 -0.0376  0.4475
13899TIP3    H163188   4.237   4.493  13.762  0.4622 -0.4074  1.0584
13899TIP3    H263189   4.230   4.628  13.692 -0.5832 -1.0567 -0.1193
13900TIP3   OH263190   4.425   5.965   2.409  0.2262 -0.0528 -0.2600
13900TIP3    H163191   4.403   5.876   2.382 -0.9110  0.4484 -1.0422
13900TIP3    H263192   4.347   6.017   2.389  0.9913  1.1960 -0.1371
13901TIP3   OH263193   4.635   2.063  11.108 -0.4218 -0.3594 -0.4281
13901TIP3    H163194   4.621   2.158  11.104 -0.5017 -0.4143 -3.0984
13901TIP3    H263195   4.548   2.027  11.126 -0.4391  0.0444  0.3459
13902TIP3   OH263196   3.533   5.171  10.906  1.1399 -0.0161  0.0345
13902TIP3    H163197   3.565   5.150  10.818  1.0992  0.7335 -0.1747
13902TIP3    H263198   3.447   5.211  10.891  1.6886  1.3382  0.2856
13903TIP3   OH263199   1.070   0.225  11.341  0.0242 -0.2880 -0.2295
13903TIP3    H163200   1.057   0.269  11.257  0.9397  2.0019  0.7423
13903TIP3    H263201   1.149   0.173  11.329  0.2091  0.1085 -0.7632
13904TIP3   OH263202   1.786   3.023   0.941  0.2434  0.0186  0.4960
13904TIP3    H163203   1.722   3.077   0.986 -0.4307 -0.2069 -0.1810
13904TIP3    H263204   1.738   2.945   0.914  0.9964 -0.5197  0.6889
13905TIP3   OH263205   1.713   5.586   0.310 -0.2347  0.2890 -0.5980
13905TIP3    H163206   1.683   5.532   0.237  0.3901  0.0321 -0.6766
13905TIP3    H263207   1.775   5.530   0.357  0.1255  0.7990 -0.4506
13906TIP3   OH263208   5.000   1.317  15.840 -0.1405  0.4395 -0.1600
13906TIP3    H163209   4.922   1.285  15.886 -0.6363  1.7808 -0.0143
13906TIP3    H263210   5.011   1.257  15.767  0.4168 -1.4738  1.4294
13907TIP3   OH263211   1.436   0.310   5.481  0.0727  0.9459  0.1223
13907TIP3    H163212   1.471   0.363   5.552 -0.0301  0.2914  0.6735
13907TIP3    H263213   1.508   0.303   5.419  0.3777  0.9878  0.4653
13908TIP3   OH263214   0.830   5.632  14.450 -0.9078  0.4890  0.0536
13908TIP3    H163215   0.902   5.591  14.402 -0.3460  0.8350  0.5832
13908TIP3    H263216   0.752   5.613  14.397 -0.3529  0.5779 -0.8265
13909TIP3   OH263217   1.652   1.186   6.339 -0.3964  0.3708  0.8265
13909TIP3    H163218   1.685   1.235   6.414 -0.5866  0.6270  0.7435
13909TIP3    H263219   1.669   1.094   6.361  0.1211  0.4814  0.9041
13910TIP3   OH263220   5.705   0.516   3.017  0.1366  0.1909  0.0820
13910TIP3    H163221   5.667   0.429   3.025 -2.1499  1.0350 -0.5889
13910TIP3    H263222   5.728   0.523   2.924 -0.5275  0.5932 -0.0596
13911TIP3   OH263223   1.258   0.614  11.422 -0.5854  0.1342  0.2226
13911TIP3    H163224   1.306   0.531  11.418 -2.1402 -0.7551 -1.2783
13911TIP3    H263225   1.314   0.671  11.476  1.5808 -1.1676 -0.4911
13912TIP3   OH263226   3.550   5.762   1.871  0.4287  0.4039 -0.2096
13912TIP3    H163227   3.504   5.809   1.940  0.4614  0.1801 -0.0351
13912TIP3    H263228   3.596   5.692   1.917 -1.9848 -1.6813 -0.7760
13913TIP3   OH263229   1.124   6.802   3.147 -0.2353  0.2192 -0.3045
13913TIP3    H163230   1.093   6.885   3.185  0.6857 -0.4122  2.0229
13913TIP3    H263231   1.044   6.755   3.125 -0.8252  0.8047  0.5121
13914TIP3   OH263232   5.893   6.022  15.256  0.2561  0.0515 -0.7041
13914TIP3    H163233   5.942   5.960  15.202  1.6274  0.7343 -0.2741
13914TIP3    H263234   5.960   6.069  15.306 -0.9067  0.2371  0.7381
13915TIP3   OH263235   1.984   0.190   5.362  0.2945  0.1700 -0.1401
13915TIP3    H163236   1.945   0.146   5.439 -1.5439  0.6406 -0.7519
13915TIP3    H263237   1.958   0.281   5.372 -1.5449 -0.0546 -2.1932
13916TIP3   OH263238   6.756   2.584   2.909  0.5749 -0.1883 -0.0267
13916TIP3    H163239   6.770   2.678   2.926  0.5385 -0.2513  0.3605
13916TIP3    H263240   6.670   2.580   2.868 -0.2253 -0.2105  1.5858
13917TIP3   OH263241   6.832   4.353  16.310 -0.1599 -0.6229 -0.3903
13917TIP3    H163242   6.800   4.267  16.282 -0.7309  0.6556 -4.2252
13917TIP3    H263243   6.753   4.401  16.335  0.0946 -0.9013  1.0783
13918TIP3   OH263244   5.505   1.208  13.936  0.1689 -0.4162 -0.1057
13918TIP3    H163245   5.597   1.226  13.918  0.4164 -2.1551 -0.8654
13918TIP3    H263246   5.457   1.273  13.886  0.9784  0.0873 -0.2443
13919TIP3   OH263247   3.909   1.270  14.186  0.6784 -0.2364  0.0890
13919TIP3    H163248   3.944   1.343  14.237  1.3322 -0.1912 -0.4152
13919TIP3    H263249   3.983   1.241  14.133 -0.2376  0.3319 -1.5519
13920TIP3   OH263250   1.125   4.235   5.474  0.1020 -0.4917 -0.6475
13920TIP3    H163251   1.105   4.185   5.395 -0.2995  0.8040 -1.3859
13920TIP3    H263252   1.202   4.287   5.452 -0.3646  0.3289 -0.4043
13921TIP3   OH263253   4.668   3.970  13.285  0.2869  0.6816 -0.0188
13921TIP3    H163254   4.612   3.915  13.340  0.9959 -1.9588 -1.7137
13921TIP3    H263255   4.658   4.058  13.320 -2.4826 -0.1725  1.6671
13922TIP3   OH263256   3.733   6.795  14.509  0.0622  0.3647  0.0383
13922TIP3    H163257   3.734   6.753  14.423  0.2888  1.4700 -0.5194
13922TIP3    H263258   3.640   6.814  14.525 -0.0390 -0.3105  0.2848
13923TIP3   OH263259   1.178   6.243  13.252 -0.4151  0.1970 -0.1661
13923TIP3    H163260   1.236   6.208  13.185 -2.8532 -1.2894 -1.6846
13923TIP3    H263261   1.211   6.331  13.269  3.2213 -1.1159  0.3854
13924TIP3   OH263262   3.765   5.007   5.643  0.2843 -0.0515 -0.1624
13924TIP3    H163263   3.856   4.992   5.620  1.1395  0.2553  2.6132
13924TIP3    H263264   3.754   4.965   5.728 -1.7218  1.2326  0.3078
13925TIP3   OH263265   5.864   5.964   2.038  0.3387  0.5271 -0.3272
13925TIP3    H163266   5.897   5.977   1.949 -0.4978  0.5498 -0.6477
13925TIP3    H263267   5.784   6.016   2.041 -2.0155 -2.7647 -0.9792
13926TIP3   OH263268   3.108   1.839   4.644 -0.6739 -0.0039  0.0926
13926TIP3    H163269   3.121   1.854   4.737 -0.2471  0.3306 -0.0185
13926TIP3    H263270   3.036   1.776   4.640  0.2679 -1.1338  0.6865
13927TIP3   OH263271   3.095   3.644  12.872  0.6375 -0.2889 -0.2771
13927TIP3    H163272   3.056   3.714  12.925  1.6687  0.1256 -0.0345
13927TIP3    H263273   3.023   3.612  12.817 -1.1372 -2.2249  2.8196
13928TIP3   OH263274   5.930   5.685  11.114  0.0819  0.0221 -0.0177
13928TIP3    H163275   5.905   5.676  11.022 -0.5729  0.2223  0.1302
13928TIP3    H263276   5.850   5.663  11.162  0.5395 -0.4878  0.5177
13929TIP3   OH263277   3.664   0.078  15.089  0.0925 -0.0078  0.1825
13929TIP3    H163278   3.699   0.080  15.178  0.0059 -0.4878  0.2309
13929TIP3    H263279   3.741   0.082  15.033  0.2577 -1.1980  0.2894
13930TIP3   OH263280   1.269   2.361  16.835  0.5422  0.8983  0.5968
13930TIP3    H163281   1.212   2.373  16.759  1.5974  0.5906 -0.2755
13930TIP3    H263282   1.345   2.417  16.817  2.1460 -1.3386  0.0050
13931TIP3   OH263283   1.842   0.154   1.095 -0.3158  0.5067 -0.1271
13931TIP3    H163284   1.823   0.245   1.073 -1.2319  0.4765  0.4776
13931TIP3    H263285   1.823   0.105   1.014  2.1251  1.0373 -1.1107
13932TIP3   OH263286   6.408   1.842   0.655 -0.0640 -0.2148 -0.6355
13932TIP3    H163287   6.420   1.843   0.750  1.3587  0.2855 -0.7983
13932TIP3    H263288   6.335   1.781   0.641 -0.3232 -0.2621  0.7698
13933TIP3   OH263289   0.409   1.000  16.480 -0.0334 -0.6824 -0.6485
13933TIP3    H163290   0.463   0.938  16.431  0.4702 -0.2529 -0.6512
13933TIP3    H263291   0.407   0.966  16.569  0.8834 -0.3007 -0.4734
13934TIP3   OH263292   5.421   1.546   4.750 -0.0323 -0.1804 -0.1120
13934TIP3    H163293   5.389   1.624   4.706 -1.1526 -0.1761  0.6785
13934TIP3    H263294   5.485   1.580   4.813  1.4114 -0.1683 -1.5168
13935TIP3   OH263295   6.620   3.878   4.541 -0.5511 -0.4088 -0.7103
13935TIP3    H163296   6.577   3.803   4.502 -1.5930 -1.3606  2.0345
13935TIP3    H263297   6.714   3.861   4.531 -0.7513 -2.4879  0.4617
13936TIP3   OH263298   6.384   5.840  15.862 -0.8843 -0.1702 -0.6876
13936TIP3    H163299   6.457   5.811  15.807  0.1546  2.1206 -0.6442
13936TIP3    H263300   6.389   5.935  15.859 -2.3490  0.0270  1.3708
13937TIP3   OH263301   0.905   1.318   3.272 -0.1078  1.0746  0.1374
13937TIP3    H163302   0.846   1.307   3.347  0.6161 -0.0035  0.5664
13937TIP3    H263303   0.881   1.404   3.236 -1.5638  0.9051  0.6187
13938TIP3   OH263304   5.061   3.685  16.501 -0.2407  0.3949  0.2273
13938TIP3    H163305   5.088   3.693  16.592  0.1009 -0.4839  0.2100
13938TIP3    H263306   5.051   3.591  16.487 -0.4366  0.5299 -0.5997
13939TIP3   OH263307   1.101   6.070  15.930  0.1981  0.6288  0.0930
13939TIP3    H163308   1.167   6.038  15.869 -0.9003 -0.3077 -0.6409
13939TIP3    H263309   1.148   6.077  16.014  1.1996 -0.0922 -0.3832
13940TIP3   OH263310   2.074   5.422   1.913 -0.2607 -0.5131  0.1604
13940TIP3    H163311   2.114   5.505   1.886  1.0007 -1.0123  0.4589
13940TIP3    H263312   1.981   5.443   1.924 -1.0393 -0.2640 -4.7400
13941TIP3   OH263313   2.040   3.212   0.024  0.1689 -0.0391  0.1675
13941TIP3    H163314   1.980   3.253   0.086  0.6956  0.9736  0.0231
13941TIP3    H263315   2.125   3.250   0.045  0.6785 -1.0985  0.0515
13942TIP3   OH263316   6.060   1.004  16.405  0.6233  0.4229 -0.0630
13942TIP3    H163317   5.969   0.974  16.403  1.4152 -2.3209 -1.7665
13942TIP3    H263318   6.059   1.088  16.360 -0.7695 -0.8385 -2.6124
13943TIP3   OH263319   2.295   2.917  16.715  0.3721  0.5378 -0.0080
13943TIP3    H163320   2.384   2.885  16.699  0.4214  1.3767 -1.6790
13943TIP3    H263321   2.302   3.012  16.711 -0.5180  0.6345  0.3930
13944TIP3   OH263322   4.656   2.028  14.456  0.3491 -0.1698 -0.1348
13944TIP3    H163323   4.673   2.097  14.520 -0.2327  0.1575 -0.3262
13944TIP3    H263324   4.629   2.074  14.377 -0.8589 -0.6371 -0.0152
13945TIP3   OH263325   0.992   1.902   3.412 -0.2945 -0.2053  0.4517
13945TIP3    H163326   0.959   1.986   3.381 -0.4723  0.2120  1.7317
13945TIP3    H263327   1.023   1.858   3.333 -2.2578  0.1216 -0.5524
13946TIP3   OH263328   4.193   6.773   5.941  0.4326  0.1571  0.2180
13946TIP3    H163329   4.198   6.714   6.016  1.1543 -0.7237 -0.4961
13946TIP3    H263330   4.273   6.826   5.948 -0.8339  2.0229  1.5906
13947TIP3   OH263331   2.860   4.523   0.452 -0.2561 -0.5282 -0.4220
13947TIP3    H163332   2.819   4.438   0.468 -1.6125  0.0891 -0.4989
13947TIP3    H263333   2.874   4.560   0.540 -0.4968 -0.4531 -0.4147
13948TIP3   OH263334   5.227   3.293  15.144  0.2998  0.0291 -0.0216
13948TIP3    H163335   5.296   3.288  15.210 -0.9799 -1.5977  1.2824
13948TIP3    H263336   5.146   3.280  15.193 -0.7900 -0.0989 -1.7722
13949TIP3   OH263337   1.389   1.486   5.699  0.8933  0.1017  0.2422
13949TIP3    H163338   1.400   1.575   5.733  0.0091  0.5781 -0.6568
13949TIP3    H263339   1.296   1.466   5.713  1.0774 -0.6765  0.4136
13950TIP3   OH263340   2.738   0.397  10.088 -0.5090  0.8006 -0.0187
13950TIP3    H163341   2.767   0.376  10.177  0.7786 -0.1411 -0.6266
13950TIP3    H263342   2.681   0.324  10.063  0.1917  0.3781 -0.4259
13951TIP3   OH263343   4.323   5.788   1.357  0.7468 -0.7324  0.4358
13951TIP3    H163344   4.330   5.713   1.416 -0.0322 -0.6400  0.6556
13951TIP3    H263345   4.245   5.771   1.305  0.4616  0.0079  0.6109
13952TIP3   OH263346   5.298   5.876   4.055  0.4041  0.2878  0.2551
13952TIP3    H163347   5.392   5.875   4.071  0.2025 -0.3344  1.5406
13952TIP3    H263348   5.282   5.806   3.992  0.7591  0.1330  0.3376
13953TIP3   OH263349   5.297   3.605   4.877 -0.3154 -0.0714  0.2163
13953TIP3    H163350   5.272   3.528   4.929 -0.0381  0.4052  1.0824
13953TIP3    H263351   5.374   3.640   4.922 -0.6710  0.9280  0.0695
13954TIP3   OH263352   0.630   3.897  14.809  0.0946 -0.7599 -0.2639
13954TIP3    H163353   0.626   3.926  14.900  3.2659 -1.3584  0.1736
13954TIP3    H263354   0.654   3.805  14.814 -1.3407 -1.2707 -1.7423
13955TIP3   OH263355   0.513   1.648  15.423 -0.1001 -0.1755  0.4229
13955TIP3    H163356   0.519   1.741  15.444  0.5775  0.1809 -1.2319
13955TIP3    H263357   0.568   1.605  15.488 -1.4284  0.4248  2.0012
13956TIP3   OH263358   1.256   3.927  16.293  0.1639  0.3152  0.2112
13956TIP3    H163359   1.201   3.849  16.287 -0.7891  0.9555  0.4444
13956TIP3    H263360   1.315   3.908  16.366 -0.5864  0.1220  0.7831
13957TIP3   OH263361   2.198   5.937  13.880 -0.6162 -0.4517 -0.1520
13957TIP3    H163362   2.263   5.880  13.839  0.2516 -0.4802  1.2065
13957TIP3    H263363   2.192   6.012  13.820  0.3654 -0.6375 -0.5101
13958TIP3   OH263364   5.374   3.970  16.085 -0.3590  0.0959  0.1552
13958TIP3    H163365   5.290   3.978  16.131  0.1715  0.6589  1.0371
13958TIP3    H263366   5.379   3.877  16.061 -0.9527 -0.0635  0.6297
13959TIP3   OH263367   0.473   0.201   2.299 -0.2605 -0.2595  0.3766
13959TIP3    H163368   0.526   0.221   2.376 -1.0285 -0.7947  1.0610
13959TIP3    H263369   0.504   0.261   2.232  0.4890  0.1486  1.0766
13960TIP3   OH263370   3.599   5.134  10.639  0.5010  0.1740 -0.2674
13960TIP3    H163371   3.685   5.096  10.625  1.2316  2.1877 -1.7057
13960TIP3    H263372   3.574   5.171  10.554 -1.4891  0.2321  0.2809
13961TIP3   OH263373   6.620   4.562   1.110  0.3683  0.6084 -0.3326
13961TIP3    H163374   6.688   4.597   1.168  2.6224 -0.9712 -1.8494
13961TIP3    H263375   6.554   4.527   1.169  1.0867  1.7636  1.2307
13962TIP3   OH263376   0.268   2.241  15.295  0.1455 -0.0947 -0.5368
13962TIP3    H163377   0.326   2.185  15.242 -0.8267 -0.9011 -0.7776
13962TIP3    H263378   0.187   2.190  15.304  0.2640  0.0171  1.7213
13963TIP3   OH263379   0.489   3.421   3.706 -0.0882  0.5292  0.2222
13963TIP3    H163380   0.518   3.502   3.749  3.2432 -0.4135  0.0120
13963TIP3    H263381   0.538   3.418   3.624 -0.9587 -1.1850 -0.2814
13964TIP3   OH263382   0.824   6.097  15.524  0.0348  0.3146  0.0135
13964TIP3    H163383   0.823   6.032  15.594 -1.6738 -0.3872 -0.6097
13964TIP3    H263384   0.791   6.177  15.566  0.5169  0.3235  0.3806
13965TIP3   OH263385   5.430   1.689   1.338 -0.2289  0.1005 -0.7086
13965TIP3    H163386   5.510   1.674   1.387 -0.5256 -2.5763 -0.9302
13965TIP3    H263387   5.458   1.691   1.246 -0.3130 -0.0139 -0.7369
13966TIP3   OH263388   6.579   4.080  12.749  0.5840  0.0559 -0.0532
13966TIP3    H163389   6.493   4.071  12.708  0.4502 -0.2510  0.2885
13966TIP3    H263390   6.637   4.027  12.695  0.6420  0.5938 -0.5228
13967TIP3   OH263391   2.471   6.165  11.972 -0.3111  0.2060 -0.3986
13967TIP3    H163392   2.464   6.071  11.988  0.3703  0.2252  0.0698
13967TIP3    H263393   2.385   6.200  11.997 -0.7448 -0.3457 -1.0739
13968TIP3   OH263394   5.082   0.981  12.942  0.2827  0.0156  0.2420
13968TIP3    H163395   5.067   1.073  12.922  0.5320 -0.6312 -3.7297
13968TIP3    H263396   4.997   0.938  12.930  0.8578 -0.7086 -1.6406
13969TIP3   OH263397   6.437   1.010  15.496 -0.0181 -0.0439  0.0310
13969TIP3    H163398   6.342   1.003  15.496 -0.0154 -0.3347  1.5711
13969TIP3    H263399   6.468   0.921  15.513  0.5631 -0.0966 -1.2056
13970TIP3   OH263400   1.733   6.461  11.986 -0.1976  0.2283 -0.2027
13970TIP3    H163401   1.764   6.489  12.073 -2.5262 -0.4476  0.9477
13970TIP3    H263402   1.639   6.446  11.999 -0.2081 -2.0223 -2.3200
13971TIP3   OH263403   2.534   3.185  12.113  0.1149 -0.2762  0.2470
13971TIP3    H163404   2.624   3.169  12.139  0.4260 -0.0918 -0.6902
13971TIP3    H263405   2.483   3.118  12.160  0.8474 -0.9927  0.0373
13972TIP3   OH263406   3.200   3.908   5.676  0.3373 -0.2253  0.8740
13972TIP3    H163407   3.188   3.963   5.753  3.1663 -0.9654  1.9676
13972TIP3    H263408   3.290   3.924   5.649 -0.1494 -1.0501 -1.4823
13973TIP3   OH263409   6.338   2.066  15.225  0.1420 -0.2195  0.5646
13973TIP3    H163410   6.276   2.002  15.262 -1.5235  0.8520 -0.2525
13973TIP3    H263411   6.306   2.151  15.256  1.0774  0.3796 -0.0780
13974TIP3   OH263412   1.210   6.712   3.926 -0.2922 -0.4136  0.6454
13974TIP3    H163413   1.153   6.652   3.877  0.3178 -0.7018  0.2800
13974TIP3    H263414   1.287   6.659   3.947  0.6694  0.5086 -0.4891
13975TIP3   OH263415   1.591   1.046   1.946  0.3521 -0.3876 -0.0292
13975TIP3    H163416   1.542   1.076   1.869  0.6197 -0.6988 -0.3265
13975TIP3    H263417   1.529   0.995   1.997  0.4076 -0.9316 -0.4942
13976TIP3   OH263418   1.477   6.414   4.964  0.0669  0.1451  0.0062
13976TIP3    H163419   1.488   6.468   4.886 -1.8379  1.0917  0.3363
13976TIP3    H263420   1.556   6.431   5.016  0.0277  1.7604 -0.4198
13977TIP3   OH263421   3.742   3.959   4.939  0.1977  0.2053  0.0850
13977TIP3    H163422   3.679   4.030   4.923  0.9573  1.3043  1.7391
13977TIP3    H263423   3.691   3.892   4.985 -0.4035 -0.1517 -1.0475
13978TIP3   OH263424   2.870   0.159   3.884  0.3237 -0.9975  0.1585
13978TIP3    H163425   2.928   0.202   3.947  1.8681 -1.8756 -0.5843
13978TIP3    H263426   2.791   0.137   3.933  1.3308 -1.3226  1.6911
13979TIP3   OH263427   1.184   3.038  14.933  0.1744  0.7197 -0.0743
13979TIP3    H163428   1.259   2.980  14.930  0.7235  1.4052  0.1432
13979TIP3    H263429   1.221   3.126  14.939 -0.5933  1.2639 -2.1924
13980TIP3   OH263430   6.493   2.340   3.543 -0.2369  0.6006 -0.2929
13980TIP3    H163431   6.528   2.259   3.580 -0.9007  0.2903 -0.3273
13980TIP3    H263432   6.419   2.311   3.489  0.2294  1.1143 -1.2279
13981TIP3   OH263433   1.717   1.730   2.722  0.4759  0.4675  0.7675
13981TIP3    H163434   1.695   1.736   2.629  0.4681 -1.2732  0.6230
13981TIP3    H263435   1.757   1.814   2.742 -0.1596  1.1461 -0.6312
13982TIP3   OH263436   5.905   0.017   3.367  0.3220 -0.0127  0.0832
13982TIP3    H163437   5.831  -0.041   3.352  0.9087 -0.8421  0.3073
13982TIP3    H263438   5.871   0.086   3.425  0.0000 -0.9783  1.0666
13983TIP3   OH263439   1.375   2.001  14.723 -0.0885  0.2051 -0.4634
13983TIP3    H163440   1.448   2.053  14.758 -1.2278  1.7998 -0.3458
13983TIP3    H263441   1.327   1.974  14.801 -0.1961  0.0356 -0.5897
13984TIP3   OH263442   3.173   3.155  15.824 -0.1844  0.1350  0.0008
13984TIP3    H163443   3.229   3.221  15.782 -1.4095  0.1855 -1.6645
13984TIP3    H263444   3.087   3.196  15.826 -0.3170 -0.1470  2.0523
13985TIP3   OH263445   1.629   3.660   1.473  0.2275  0.2509  0.4448
13985TIP3    H163446   1.576   3.635   1.398  0.1962  1.4423  0.0474
13985TIP3    H263447   1.716   3.627   1.454  0.1156  0.1598  0.0942
13986TIP3   OH263448   2.351   2.848  10.422 -0.3604 -0.0889  0.1557
13986TIP3    H163449   2.390   2.844  10.510  0.9254 -0.3491 -0.4168
13986TIP3    H263450   2.383   2.930  10.386 -0.2306 -0.3759 -0.3808
13987TIP3   OH263451   1.813   0.885   0.716 -0.0393  0.5701 -0.1287
13987TIP3    H163452   1.883   0.919   0.660  0.3266 -1.2041 -0.8356
13987TIP3    H263453   1.821   0.935   0.797  0.8461  1.6798 -0.8647
13988TIP3   OH263454   1.062   2.577   2.843  0.6345 -0.1792 -0.3335
13988TIP3    H163455   0.997   2.647   2.843  0.5541 -0.2208  1.1380
13988TIP3    H263456   1.015   2.500   2.810  0.1407 -0.0162 -0.0259
13989TIP3   OH263457   1.153   3.820   0.503  0.3935  0.0431  0.9024
13989TIP3    H163458   1.230   3.861   0.464  0.2746 -0.4576  0.1079
13989TIP3    H263459   1.150   3.733   0.463 -1.4274  0.5760 -0.2579
13990TIP3   OH263460   4.681   1.645  14.683  0.4190 -0.0723 -1.0950
13990TIP3    H163461   4.707   1.585  14.613  2.0509 -0.9779  0.2048
13990TIP3    H263462   4.587   1.633  14.692  0.3712 -0.7946 -2.3399
13991TIP3   OH263463   0.191   3.989  13.368  0.5799  0.5640  0.1730
13991TIP3    H163464   0.190   3.992  13.272  2.0165  0.0400  0.1147
13991TIP3    H263465   0.273   3.945  13.389 -0.6523 -1.1558  1.6149
13992TIP3   OH263466   4.103   1.394   1.760  0.6224  0.4014 -0.1019
13992TIP3    H163467   4.166   1.462   1.787 -0.6682  1.6531 -0.0829
13992TIP3    H263468   4.151   1.339   1.699  1.7679  1.2429  0.0099
13993TIP3   OH263469   0.564   6.749   6.224 -0.3404 -0.0857 -0.2206
13993TIP3    H163470   0.525   6.804   6.291  1.7922  0.9253  0.2836
13993TIP3    H263471   0.491   6.724   6.167 -1.6557  1.8099  0.5430
13994TIP3   OH263472   2.338   6.112   4.144 -0.0507 -0.0832 -0.0767
13994TIP3    H163473   2.252   6.072   4.157 -0.0188 -0.9808 -2.1181
13994TIP3    H263474   2.395   6.065   4.204 -0.1810 -2.7509 -1.8418
13995TIP3   OH263475   0.966   3.342  12.601  0.1764 -0.3311 -0.4036
13995TIP3    H163476   1.057   3.353  12.630 -0.9594  2.2787  2.6715
13995TIP3    H263477   0.922   3.299  12.674 -1.2126 -1.3121 -1.7365
13996TIP3   OH263478   6.324   2.700   6.026  0.2304 -0.2303  0.2082
13996TIP3    H163479   6.353   2.785   6.061  0.3497  0.0433 -0.5260
13996TIP3    H263480   6.233   2.715   6.000  0.7734  0.2163 -1.5714
13997TIP3   OH263481   3.688   0.774  13.281 -0.2075  0.1630  0.2049
13997TIP3    H163482   3.713   0.682  13.271  0.4386  0.3472  0.0361
13997TIP3    H263483   3.602   0.781  13.242 -0.0017 -0.2519 -0.3280
13998TIP3   OH263484   3.909   2.934   6.637  0.4054 -0.6613  0.0666
13998TIP3    H163485   3.981   2.990   6.665  0.4301 -0.5492 -0.2231
13998TIP3    H263486   3.840   2.995   6.611  0.0884 -0.7660  0.6450
13999TIP3   OH263487   4.810   4.400  16.216  0.2054 -0.1934 -0.0822
13999TIP3    H163488   4.831   4.373  16.305  2.4986  1.8642  0.0835
13999TIP3    H263489   4.717   4.377  16.205  0.1195 -1.3411  2.4529
14000TIP3   OH263490   1.934   0.679  11.453 -0.8397 -0.3245 -0.1851
14000TIP3    H163491   1.874   0.752  11.471  1.1883  1.9535 -1.9725
14000TIP3    H263492   1.926   0.665  11.358  0.8402 -0.5071 -0.3213
14001TIP3   OH263493   0.979   3.052  12.137 -0.3814  0.1537  0.1213
14001TIP3    H163494   1.055   2.994  12.137 -0.8061 -0.4699  1.7763
14001TIP3    H263495   0.965   3.073  12.229 -0.9371  1.9948 -0.3451
14002TIP3   OH263496   3.900   1.815   2.571 -0.1469 -0.0841 -0.4516
14002TIP3    H163497   3.959   1.861   2.630 -1.6817  0.7052  0.5064
14002TIP3    H263498   3.897   1.869   2.492 -0.7353  0.6570  0.0726
14003TIP3   OH263499   4.438   0.031   5.892 -0.2452  0.6241 -0.1885
14003TIP3    H163500   4.511   0.067   5.841 -0.4897  1.0637 -0.2252
14003TIP3    H263501   4.480  -0.008   5.969  0.4568 -2.3968 -1.9204
14004TIP3   OH263502   0.746   5.661  12.622  0.0629 -0.2270  0.2268
14004TIP3    H163503   0.811   5.726  12.595  0.0805 -0.3302  0.0161
14004TIP3    H263504   0.782   5.578  12.592 -0.2451 -0.2668 -0.0390
14005TIP3   OH263505   2.766   0.326  14.654  0.1087  0.2293  0.4220
14005TIP3    H163506   2.729   0.268  14.720 -0.0066  1.1713  1.2193
14005TIP3    H263507   2.860   0.325  14.672  0.0677  0.5535  0.6655
14006TIP3   OH263508   4.635   6.812   4.598  0.0073  0.4570  0.0389
14006TIP3    H163509   4.686   6.835   4.521 -1.4342  1.1568 -0.7613
14006TIP3    H263510   4.591   6.894   4.623 -0.1828  0.0494  1.1058
14007TIP3   OH263511   3.003   3.471  11.615  0.0019 -0.0064  0.0005
14007TIP3    H163512   2.936   3.537  11.597  0.7829  1.0861  0.9457
14007TIP3    H263513   3.037   3.494  11.701  0.5485 -1.4494  0.2004
14008TIP3   OH263514   2.441   1.942   2.685 -0.0072 -0.0722  0.3234
14008TIP3    H163515   2.423   1.964   2.594  0.6042 -0.4170  0.1107
14008TIP3    H263516   2.440   1.846   2.687  1.9293 -0.1446  0.2361
14009TIP3   OH263517   0.658   4.262   2.246  0.1347  0.2143 -0.2702
14009TIP3    H163518   0.640   4.276   2.153  0.3501 -1.3964 -0.5944
14009TIP3    H263519   0.573   4.242   2.285  0.3401 -1.5716 -0.6450
14010TIP3   OH263520   3.973   5.989   2.889 -0.3948  0.0364  0.4091
14010TIP3    H163521   3.891   6.035   2.902 -0.6896  0.1302 -1.5051
14010TIP3    H263522   4.023   6.044   2.829  1.4845  0.4200  2.1981
14011TIP3   OH263523   5.298   1.503   2.493  0.0108  0.0326 -0.3996
14011TIP3    H163524   5.379   1.463   2.523  0.3865  1.8499  1.1972
14011TIP3    H263525   5.243   1.429   2.467  1.7313 -1.2964 -0.4190
14012TIP3   OH263526   2.733   6.392  14.224 -0.4034  0.0642  0.4230
14012TIP3    H163527   2.650   6.348  14.204  0.0237 -0.6488  0.1912
14012TIP3    H263528   2.789   6.322  14.258 -0.6965  0.9801  3.0092
14013TIP3   OH263529   0.969   0.121   0.454  0.2434 -0.5731 -0.0156
14013TIP3    H163530   0.887   0.149   0.496 -0.1877 -0.1082 -1.1371
14013TIP3    H263531   1.032   0.190   0.476 -0.1408 -0.0229 -0.6426
14014TIP3   OH263532   5.469   6.241  14.585  0.1297  0.6157 -0.7445
14014TIP3    H163533   5.412   6.234  14.509 -2.1274  0.4975  0.8580
14014TIP3    H263534   5.537   6.175  14.570 -0.9800 -0.2793 -2.0550
14015TIP3   OH263535   6.107   1.755  13.778  0.2451  0.6423  0.6273
14015TIP3    H163536   6.034   1.730  13.721 -0.7302  1.4914  1.4604
14015TIP3    H263537   6.109   1.688  13.846 -1.1431  1.7240  1.7868
14016TIP3   OH263538   4.222   4.572  11.228 -0.0181 -0.2561  0.4661
14016TIP3    H163539   4.156   4.584  11.297  0.7763  0.4108  1.1235
14016TIP3    H263540   4.172   4.536  11.154 -1.0068 -0.3572  1.1545
14017TIP3   OH263541   4.707   2.639   5.740  0.0789 -0.0112  0.8829
14017TIP3    H163542   4.790   2.592   5.741 -0.7188 -1.5003  1.5660
14017TIP3    H263543   4.690   2.656   5.647 -0.9170 -3.6735  0.2226
14018TIP3   OH263544   4.222   2.162   1.951 -0.0023 -0.1351  0.1322
14018TIP3    H163545   4.316   2.181   1.958  0.0821 -0.4532 -0.1202
14018TIP3    H263546   4.190   2.170   2.040  0.6354 -1.9330  0.5581
14019TIP3   OH263547   5.695   3.908  12.132  0.0943  0.2855 -0.2319
14019TIP3    H163548   5.622   3.865  12.175  1.6034 -0.1449  2.0423
14019TIP3    H263549   5.688   3.881  12.040 -0.8969 -2.1265  0.4864
14020TIP3   OH263550   4.749   3.348  12.091 -0.0267  0.2508 -0.4895
14020TIP3    H163551   4.737   3.431  12.138 -1.7843  0.2671 -0.8883
14020TIP3    H263552   4.681   3.348  12.024  2.0540 -0.0358 -2.7525
14021TIP3   OH263553   6.667   0.424  12.979  0.2675 -0.6679  0.3286
14021TIP3    H163554   6.595   0.434  12.916  2.4095  1.4775 -2.0126
14021TIP3    H263555   6.660   0.500  13.036  1.0068 -0.0430 -0.3739
14022TIP3   OH263556   3.931   0.411  10.219  0.3741 -0.1554  0.9758
14022TIP3    H163557   3.839   0.407  10.192  0.2086 -0.8599  1.6330
14022TIP3    H263558   3.952   0.505  10.218  0.7237 -0.1215 -2.7286
14023TIP3   OH263559   4.054   6.262   1.486  0.3243 -0.2807 -0.1079
14023TIP3    H163560   4.014   6.188   1.441  0.6896  0.1191 -1.1033
14023TIP3    H263561   4.123   6.291   1.428  1.1422 -0.0610  0.9420
14024TIP3   OH263562   0.663   4.173   5.430 -0.2534  0.0805 -0.4464
14024TIP3    H163563   0.711   4.139   5.506  0.2100  1.1333 -0.2528
14024TIP3    H263564   0.707   4.256   5.409 -2.3547  1.4274  0.1465
14025TIP3   OH263565   2.771   5.090  10.839  0.0716  0.5855  0.1562
14025TIP3    H163566   2.816   5.006  10.845 -0.5888  0.0539 -1.6412
14025TIP3    H263567   2.817   5.147  10.900  0.7761 -0.9637  1.1212
14026TIP3   OH263568   2.452   1.714  13.388 -0.2380 -0.5318 -0.1280
14026TIP3    H163569   2.399   1.635  13.373 -0.5747 -0.1911 -0.7745
14026TIP3    H263570   2.402   1.784  13.348  0.4368 -0.1057 -0.2371
14027TIP3   OH263571   4.652   6.548  11.442 -0.3028 -0.1400 -0.3750
14027TIP3    H163572   4.604   6.590  11.513  0.8214  0.2681  0.1673
14027TIP3    H263573   4.706   6.482  11.485  0.7037  0.3958 -0.7778
14028TIP3   OH263574   4.552   1.534  14.018 -0.2190  0.1937  0.2539
14028TIP3    H163575   4.528   1.576  14.101  0.4448 -1.7339  1.4988
14028TIP3    H263576   4.471   1.493  13.988 -1.2610  3.3607 -1.7354
14029TIP3   OH263577   0.699   5.014  13.509 -0.2929  0.2592  0.4553
14029TIP3    H163578   0.633   5.080  13.488 -0.1896  0.5046  0.8847
14029TIP3    H263579   0.782   5.057  13.490 -0.2028 -1.3728 -4.1808
14030TIP3   OH263580   0.560   4.417  13.688 -0.3318  0.6204 -0.2706
14030TIP3    H163581   0.520   4.406  13.774  0.6225 -0.3210  0.0732
14030TIP3    H263582   0.633   4.477  13.703  1.1196 -1.1313  0.0401
14031TIP3   OH263583   0.036   5.009   1.244 -0.2445  0.4062 -0.0001
14031TIP3    H163584   0.087   4.932   1.219  0.4750  1.2244 -1.1575
14031TIP3    H263585  -0.053   4.990   1.215 -0.2278 -0.2903  0.3993
14032TIP3   OH263586   5.316   2.404   5.342 -0.2952  0.2199  0.1371
14032TIP3    H163587   5.287   2.358   5.421 -0.3863  2.4112  1.4778
14032TIP3    H263588   5.301   2.342   5.271  3.9125 -3.7448  2.1714
14033TIP3   OH263589   3.331   6.679   2.493 -0.4799  0.1155  0.0710
14033TIP3    H163590   3.263   6.649   2.433 -0.4347  0.7986 -0.3426
14033TIP3    H263591   3.410   6.685   2.438  0.2221 -1.8300  0.8168
14034TIP3   OH263592   2.101   0.629   1.554  0.6598 -0.9641  0.6853
14034TIP3    H163593   2.016   0.615   1.595  0.5621 -2.1531  0.1441
14034TIP3    H263594   2.085   0.614   1.461  1.2489 -0.1561  0.4463
14035TIP3   OH263595   2.779   5.047  16.290  0.2383  0.5299 -0.0518
14035TIP3    H163596   2.739   5.106  16.354 -0.3545 -0.0504  0.1254
14035TIP3    H263597   2.873   5.060  16.301  0.1501  0.4896  0.9097
14036TIP3   OH263598   3.399   4.305   2.743 -0.7512 -0.2999  0.1313
14036TIP3    H163599   3.402   4.223   2.693 -3.2773 -0.0618 -0.5341
14036TIP3    H263600   3.465   4.294   2.812  0.1054 -2.2047 -0.9304
14037TIP3   OH263601   0.306   0.468  16.066  0.4944  0.1372 -0.4296
14037TIP3    H163602   0.343   0.497  15.983  1.3170 -0.0610 -0.1381
14037TIP3    H263603   0.224   0.517  16.074 -0.9370 -1.6929 -2.5685
14038TIP3   OH263604   3.325   4.013   0.462 -0.0818  0.4561 -0.0989
14038TIP3    H163605   3.359   4.102   0.455  0.4685  0.1419 -2.1996
14038TIP3    H263606   3.399   3.961   0.495 -0.1399  0.6438  0.3223
14039TIP3   OH263607   2.982   6.319   5.109  0.4749  0.2560  0.1011
14039TIP3    H163608   2.963   6.412   5.116 -1.6510 -0.2185  2.5695
14039TIP3    H263609   3.071   6.309   5.143  0.3369  1.2841  0.7907
14040TIP3   OH263610   3.280   6.431   5.493  0.0134 -0.1375  0.1350
14040TIP3    H163611   3.342   6.379   5.443  0.4353 -1.0701  1.5577
14040TIP3    H263612   3.323   6.516   5.503  0.4170 -0.3089 -0.1325
14041TIP3   OH263613   0.869   2.298   4.537 -0.0778  0.1846  0.0196
14041TIP3    H163614   0.869   2.387   4.574 -0.8350 -0.0233  0.5260
14041TIP3    H263615   0.941   2.254   4.583 -0.7327  0.0584  0.9441
14042TIP3   OH263616   1.112   1.811   5.289  0.4001 -0.0266  0.1160
14042TIP3    H163617   1.127   1.865   5.366  1.0558  2.1760 -1.4473
14042TIP3    H263618   1.029   1.766   5.306  2.0072 -2.1384  3.3875
14043TIP3   OH263619   5.185   0.802  10.837  0.1644 -0.4114 -0.1329
14043TIP3    H163620   5.107   0.748  10.834 -0.0477 -0.2926  1.7382
14043TIP3    H263621   5.237   0.766  10.909  0.9477  0.6462 -0.1280
14044TIP3   OH263622   0.901   0.813   5.866 -0.4163  0.5360 -0.5464
14044TIP3    H163623   0.944   0.895   5.840 -2.0647  1.0595 -1.7352
14044TIP3    H263624   0.892   0.820   5.961  1.8271  0.5234 -0.2810
14045TIP3   OH263625   1.713   1.187  16.243  0.0027 -0.1212 -0.1951
14045TIP3    H163626   1.618   1.186  16.235  0.0750 -0.5963 -1.1508
14045TIP3    H263627   1.730   1.147  16.329 -0.6594  0.1349  0.0617
14046TIP3   OH263628   1.782   3.034   0.607 -0.1636  0.0818 -0.2163
14046TIP3    H163629   1.706   2.984   0.577 -0.4980  0.6849 -0.3999
14046TIP3    H263630   1.839   3.039   0.530 -2.0356  3.5780 -1.6208
14047TIP3   OH263631   1.876   0.087   4.029  0.5514  0.2947 -0.0054
14047TIP3    H163632   1.842   0.005   4.066  2.0149  0.3761  1.6803
14047TIP3    H263633   1.966   0.066   4.003  1.2687  1.5417  1.3062
14048TIP3   OH263634   0.608   5.520  16.776  0.6135  0.4745  0.1012
14048TIP3    H163635   0.677   5.464  16.812 -0.0855  0.4367  1.4481
14048TIP3    H263636   0.603   5.594  16.836  3.1560  3.3923 -2.8981
14049TIP3   OH263637   4.572   0.752   1.530  0.2083 -0.6681  0.0728
14049TIP3    H163638   4.576   0.659   1.508  1.3558 -0.2595 -1.6155
14049TIP3    H263639   4.486   0.780   1.499 -1.1295 -1.5936  2.6697
14050TIP3   OH263640   2.608   0.852   4.773  0.6354  0.1684 -0.0783
14050TIP3    H163641   2.613   0.868   4.679 -1.7534 -0.9465 -0.4466
14050TIP3    H263642   2.564   0.929   4.809 -1.2902 -0.7541 -0.3616
14051TIP3   OH263643   5.029   3.462  13.825 -0.4787 -0.0323 -1.0031
14051TIP3    H163644   5.050   3.435  13.914  1.3971 -1.2938 -1.7704
14051TIP3    H263645   5.046   3.556  13.823  1.2214 -0.3025 -0.4660
14052TIP3   OH263646   2.875   0.906  15.365  0.3770 -0.3618  0.2786
14052TIP3    H163647   2.907   0.962  15.435 -1.1987  0.4731  0.3733
14052TIP3    H263648   2.936   0.920  15.293  0.9415  0.2074  0.8548
14053TIP3   OH263649   0.270   2.583   3.549  0.2097 -0.1478  0.2499
14053TIP3    H163650   0.185   2.618   3.578  1.0444  2.0132  0.2875
14053TIP3    H263651   0.298   2.643   3.480  1.3339 -1.3380 -0.3755
14054TIP3   OH263652   3.648   4.220  13.119  0.3363 -0.2802  0.6282
14054TIP3    H163653   3.741   4.243  13.112 -0.2456  2.0533 -0.7060
14054TIP3    H263654   3.630   4.217  13.213  1.7276 -0.7696  0.9043
14055TIP3   OH263655   6.533   3.871  14.926  0.1306  0.0086  0.3673
14055TIP3    H163656   6.586   3.863  14.847  0.2039 -0.6044  0.4767
14055TIP3    H263657   6.494   3.958  14.920 -0.1460 -0.1718 -0.5072
14056TIP3   OH263658   3.837   3.450  16.042 -0.1528  0.1279  0.5324
14056TIP3    H163659   3.866   3.420  15.955  0.1065 -1.5776  1.1643
14056TIP3    H263660   3.908   3.426  16.101 -1.4879 -1.3173  1.6418
14057TIP3   OH263661   3.731   3.848  11.197  0.0762 -0.4676  0.0933
14057TIP3    H163662   3.815   3.825  11.158  0.3882  1.0353 -0.1803
14057TIP3    H263663   3.721   3.942  11.179 -0.6540 -0.1453  2.0095
14058TIP3   OH263664   0.778   1.719   5.054 -0.1493 -0.3085  0.3823
14058TIP3    H163665   0.729   1.719   4.972  1.8444 -2.1478 -0.9431
14058TIP3    H263666   0.803   1.810   5.067 -0.1824 -0.0232 -1.2933
14059TIP3   OH263667   1.151   5.194  16.944 -0.2386 -0.1742  0.1365
14059TIP3    H163668   1.200   5.144  16.880  0.3782 -0.4376  0.8025
14059TIP3    H263669   1.059   5.182  16.919 -0.0495 -0.9486 -0.1993
14060TIP3   OH263670   4.793   0.358  11.100 -0.0324  0.1999  0.3390
14060TIP3    H163671   4.796   0.346  11.005  1.1943 -3.2436  0.6789
14060TIP3    H263672   4.750   0.279  11.133  0.7826  0.6735  2.7385
14061TIP3   OH263673   1.925   1.846  11.559 -0.0128  0.4671 -0.1245
14061TIP3    H163674   1.833   1.855  11.535  0.4706  0.5865 -2.1123
14061TIP3    H263675   1.966   1.927  11.529  1.3865 -1.0997 -2.8934
14062TIP3   OH263676   1.138   4.139   1.235 -0.3020 -0.4811 -0.6695
14062TIP3    H163677   1.215   4.142   1.178  1.5692 -0.0504  1.7200
14062TIP3    H263678   1.159   4.071   1.299 -1.2658  0.6470  0.8890
14063TIP3   OH263679   0.589   6.795   2.946 -0.0981  0.0029 -0.0687
14063TIP3    H163680   0.619   6.818   3.034  1.8843  0.0459 -0.7142
14063TIP3    H263681   0.645   6.846   2.887 -0.5067 -1.0176 -1.3870
14064TIP3   OH263682   0.586   1.224  12.945 -0.8292  0.1457  0.1951
14064TIP3    H163683   0.511   1.282  12.958 -0.9512  0.3402 -1.2703
14064TIP3    H263684   0.613   1.239  12.855 -0.0444 -1.1386  0.1920
14065TIP3   OH263685   1.434   2.056  16.123  0.0768 -0.2672 -0.2750
14065TIP3    H163686   1.456   1.981  16.178 -0.2519  1.1028  1.8432
14065TIP3    H263687   1.347   2.082  16.151 -0.1138  0.4980 -1.4837
14066TIP3   OH263688   1.400   5.346  12.237 -0.0410  0.1137 -0.3476
14066TIP3    H163689   1.365   5.328  12.324  0.3396  0.3727 -0.1385
14066TIP3    H263690   1.460   5.274  12.219 -0.3857 -0.1318 -0.5528
14067TIP3   OH263691   5.450   0.615   2.174 -0.0365  0.0901  0.2110
14067TIP3    H163692   5.524   0.576   2.126 -0.2445  0.7225 -0.6435
14067TIP3    H263693   5.374   0.564   2.145  0.1586 -1.1289  1.7445
14068TIP3   OH263694   2.687   6.807  10.358 -0.1564 -0.0265  0.0461
14068TIP3    H163695   2.778   6.779  10.356  0.0187  0.5644 -0.7143
14068TIP3    H263696   2.679   6.854  10.442  0.0025 -0.7989  0.5043
14069TIP3   OH263697   0.466   0.233  11.455 -0.5043 -0.3851 -0.3253
14069TIP3    H163698   0.541   0.226  11.395  0.4031 -0.5361  0.7994
14069TIP3    H263699   0.393   0.259  11.398  1.0201  2.9124 -1.0139
14070TIP3   OH263700   4.674   6.688   1.041  0.2315 -0.2551  0.4851
14070TIP3    H163701   4.598   6.721   1.089 -0.0164 -2.1582  1.4524
14070TIP3    H263702   4.667   6.730   0.955 -0.6434  1.3382  1.2890
14071TIP3   OH263703   2.301   6.401  12.273  0.2715  0.5576  0.4036
14071TIP3    H163704   2.286   6.495  12.260  1.6503  0.7336 -0.0328
14071TIP3    H263705   2.336   6.394  12.362  0.4953  0.5018  0.3119
14072TIP3   OH263706   3.739   3.898   5.616 -0.4508 -0.0318 -0.2529
14072TIP3    H163707   3.752   3.887   5.522  0.3621 -3.0351  0.1152
14072TIP3    H263708   3.825   3.921   5.650 -0.6888  0.7835 -0.1660
14073TIP3   OH263709   5.102   3.341   2.716 -0.4346 -0.1275  0.2226
14073TIP3    H163710   5.190   3.334   2.678 -1.1684  0.5997 -1.7572
14073TIP3    H263711   5.062   3.255   2.700 -0.2084 -0.3413  0.7986
14074TIP3   OH263712   6.615   1.178  11.005 -0.2805 -0.1714 -0.2126
14074TIP3    H163713   6.617   1.094  10.959 -0.1401 -0.1406 -0.2655
14074TIP3    H263714   6.680   1.231  10.960 -0.8633  0.2011 -0.6226
14075TIP3   OH263715   5.962   4.185  12.875 -0.0351  0.1877  0.0780
14075TIP3    H163716   5.890   4.236  12.913 -1.6544 -1.4527 -0.6718
14075TIP3    H263717   5.977   4.114  12.938 -0.0999 -0.3431 -0.5019
14076TIP3   OH263718   1.074   6.316  11.068  0.0310  0.1233 -0.2256
14076TIP3    H163719   0.988   6.275  11.083  0.8152 -1.1714  1.0403
14076TIP3    H263720   1.078   6.388  11.131 -0.2179  0.3518 -0.4685
14077TIP3   OH263721   0.076   2.194  14.641  1.1639 -0.4395  0.0351
14077TIP3    H163722   0.012   2.264  14.652  0.7701 -0.3124 -2.3666
14077TIP3    H263723   0.136   2.204  14.715 -1.1649 -0.1500  2.0114
14078TIP3   OH263724   5.002   6.344   1.419 -0.2305 -0.5657 -0.5602
14078TIP3    H163725   4.988   6.251   1.406 -0.0533 -0.5583 -0.8009
14078TIP3    H263726   5.089   6.351   1.458 -0.1279 -0.4818 -0.8040
14079TIP3   OH263727   4.186   4.318  13.155  0.1056 -0.6345  0.1211
14079TIP3    H163728   4.250   4.247  13.152 -0.4059 -1.1506  0.8318
14079TIP3    H263729   4.106   4.276  13.186 -0.0479  0.3735  1.1603
14080TIP3   OH263730   1.475   0.331   3.891 -0.1869  0.2518 -0.1427
14080TIP3    H163731   1.544   0.336   3.825 -0.2280 -1.4234 -0.3471
14080TIP3    H263732   1.510   0.382   3.965  1.8281 -1.4848  0.2012
14081TIP3   OH263733   2.428   2.050  15.012  0.5327  0.7292 -0.1942
14081TIP3    H163734   2.443   1.974  14.956 -2.6000  0.5648 -1.0077
14081TIP3    H263735   2.436   2.016  15.101  2.8100  0.3513 -0.4985
14082TIP3   OH263736   3.429   5.351  16.302 -0.4125 -0.0475 -0.6580
14082TIP3    H163737   3.359   5.389  16.356 -0.4573 -0.8275 -0.1603
14082TIP3    H263738   3.396   5.359  16.213  0.0250  2.0539 -0.6969
14083TIP3   OH263739   3.474   3.601   1.186  0.3488 -0.0890 -0.1210
14083TIP3    H163740   3.423   3.526   1.156 -0.1054  0.7522 -1.5332
14083TIP3    H263741   3.454   3.608   1.280 -0.1601 -1.2766 -0.1278
14084TIP3   OH263742   2.516   0.719  13.978  0.1322 -0.2146  0.1216
14084TIP3    H163743   2.482   0.637  13.941 -0.4395 -1.2868  2.8222
14084TIP3    H263744   2.611   0.710  13.971  0.1590 -1.9238  1.8302
14085TIP3   OH263745   1.748   3.425   2.367 -0.5550 -0.1134  0.1324
14085TIP3    H163746   1.702   3.471   2.437 -0.0832  0.3414  0.1511
14085TIP3    H263747   1.700   3.448   2.287 -0.5370  0.1236  0.1892
14086TIP3   OH263748   0.475   2.918   4.349 -0.1925  0.0268 -0.5170
14086TIP3    H163749   0.394   2.964   4.372  0.6904  1.1387  0.4935
14086TIP3    H263750   0.483   2.850   4.416 -1.0183 -1.0425 -1.4707
14087TIP3   OH263751   5.896   4.896  15.727 -0.3658 -0.8843 -0.1493
14087TIP3    H163752   5.968   4.953  15.756 -0.0771 -1.2260 -0.1821
14087TIP3    H263753   5.904   4.818  15.782 -1.9978 -0.0830  1.3179
14088TIP3   OH263754   5.244   6.476   4.428  0.1862 -0.5645 -0.0044
14088TIP3    H163755   5.332   6.511   4.437 -0.7147  2.3611 -1.5670
14088TIP3    H263756   5.199   6.503   4.508 -0.1144  0.6731 -0.5785
14089TIP3   OH263757   6.795   3.482   2.630 -0.4984  0.4470  0.0843
14089TIP3    H163758   6.782   3.538   2.553 -0.3645 -2.5185 -2.3118
14089TIP3    H263759   6.715   3.429   2.634  1.2660 -2.4735 -0.8365
14090TIP3   OH263760   1.229   4.110   3.252 -0.2539 -0.3483 -0.0800
14090TIP3    H163761   1.295   4.114   3.184 -0.0678 -2.0941 -0.0582
14090TIP3    H263762   1.200   4.200   3.263  0.5494  0.1369 -1.6287
14091TIP3   OH263763   3.812   2.265   0.919  0.9670 -0.2781  0.1676
14091TIP3    H163764   3.849   2.317   0.990  0.6807  1.0451 -0.6127
14091TIP3    H263765   3.766   2.193   0.962  0.0849  0.9569  1.3584
14092TIP3   OH263766   2.066   6.708  13.849 -0.2176  0.0420  0.2315
14092TIP3    H163767   2.085   6.671  13.763 -1.8985  0.8618 -0.5447
14092TIP3    H263768   1.971   6.721  13.849  0.0584  2.6971  1.0983
14093TIP3   OH263769   4.336   5.456   5.180 -0.7110  0.1751 -0.1304
14093TIP3    H163770   4.407   5.404   5.215 -1.3304  0.4041  1.5403
14093TIP3    H263771   4.372   5.495   5.100  2.1329  2.7797  2.1877
14094TIP3   OH263772   2.502   0.245   4.433  0.1784 -0.1774 -0.7028
14094TIP3    H163773   2.448   0.298   4.373  1.8527  1.4092 -0.9049
14094TIP3    H263774   2.592   0.261   4.404  1.0818  0.7330  2.2256
14095TIP3   OH263775   3.011   4.747   4.138  0.0956 -0.2817  0.2954
14095TIP3    H163776   3.044   4.660   4.158  2.6435  0.6150  0.4200
14095TIP3    H263777   3.000   4.789   4.223  0.3974  0.0113  0.1928
14096TIP3   OH263778   3.629   1.272   0.977  0.2514 -0.6200  0.0519
14096TIP3    H163779   3.633   1.293   0.884  0.5768 -1.7812 -0.2063
14096TIP3    H263780   3.720   1.264   1.005  0.1573 -0.2723  0.4808
14097TIP3   OH263781   0.446   2.025   3.714 -1.1433 -0.6009 -0.2334
14097TIP3    H163782   0.379   2.028   3.782 -1.1530  3.6686 -0.1853
14097TIP3    H263783   0.399   2.005   3.633 -2.8952  3.1481 -0.3584
14098TIP3   OH263784   1.934   1.936  13.239  0.6098  0.6602 -0.6207
14098TIP3    H163785   2.026   1.940  13.267  0.3402 -0.9318  0.6328
14098TIP3    H263786   1.938   1.949  13.144  2.3793 -1.3654 -0.9092
14099TIP3   OH263787   4.748   2.826   5.226  0.4525 -0.3990  0.2104
14099TIP3    H163788   4.709   2.854   5.143  0.0619 -1.2677  0.0987
14099TIP3    H263789   4.717   2.737   5.239 -2.4618  0.8195  3.0866
14100TIP3   OH263790   5.563   5.919  14.053 -0.3342  0.3769 -0.2014
14100TIP3    H163791   5.471   5.937  14.075 -0.6810 -0.5124 -0.9085
14100TIP3    H263792   5.611   5.951  14.130 -1.2406  0.6772  0.2673
14101TIP3   OH263793   1.928   1.337   1.949  0.1439 -0.4790 -0.3654
14101TIP3    H163794   1.959   1.283   1.876  0.3527 -0.2137 -0.4760
14101TIP3    H263795   1.833   1.325   1.949  0.3047 -2.0017  0.5386
14102TIP3   OH263796   4.598   2.070  12.065 -0.2740 -0.2031  0.3560
14102TIP3    H163797   4.676   2.088  12.012 -0.6258 -0.3544 -0.2238
14102TIP3    H263798   4.614   2.116  12.148 -1.1010  2.8540 -1.0180
14103TIP3   OH263799   4.509   3.202  16.002  0.0689 -0.4259  0.3788
14103TIP3    H163800   4.441   3.201  15.936 -0.7995 -0.4912  1.2444
14103TIP3    H263801   4.499   3.287  16.046 -0.3026 -0.9424  1.3352
14104TIP3   OH263802   2.794   4.157  14.123  0.3712  0.1182 -0.0605
14104TIP3    H163803   2.711   4.165  14.171  0.9117  0.3414  0.8662
14104TIP3    H263804   2.817   4.064  14.132  0.4741  0.1609  0.1048
14105TIP3   OH263805   6.733   5.736   0.891 -0.0726 -0.2403  0.1259
14105TIP3    H163806   6.750   5.816   0.842  0.0920  1.2055  2.3845
14105TIP3    H263807   6.644   5.748   0.925  0.5269 -0.2280  1.7885
14106TIP3   OH263808   1.810   4.129   3.573  0.1733  0.0278  0.2126
14106TIP3    H163809   1.753   4.058   3.544  0.0404  0.7144 -1.2956
14106TIP3    H263810   1.897   4.089   3.579 -0.3022 -0.8596  1.8824
14107TIP3   OH263811   1.391   1.764   0.991 -0.2610 -0.4115 -0.0772
14107TIP3    H163812   1.320   1.757   1.055  0.0536  1.4161  0.5403
14107TIP3    H263813   1.349   1.752   0.906 -1.1821 -0.1021  0.3251
14108TIP3   OH263814   4.155   2.436   2.961 -0.6408  0.2169  0.5186
14108TIP3    H163815   4.092   2.504   2.982  0.1302  1.0666  0.1348
14108TIP3    H263816   4.139   2.367   3.025 -3.0376 -0.3220 -0.5479
14109TIP3   OH263817   0.782   4.720   1.092 -0.4327 -0.3787 -0.8533
14109TIP3    H163818   0.827   4.650   1.045  0.1388  0.4354 -1.5437
14109TIP3    H263819   0.694   4.720   1.056 -1.4463 -2.7055  1.2634
14110TIP3   OH263820   0.848   0.546  16.557  0.6108 -0.0016 -0.1754
14110TIP3    H163821   0.768   0.497  16.575 -0.0855  0.6067 -1.4426
14110TIP3    H263822   0.906   0.526  16.630 -0.9761  0.1426  1.1847
14111TIP3   OH263823   1.171   6.520   5.878 -0.2160  0.3956 -0.7995
14111TIP3    H163824   1.076   6.518   5.889 -0.1876  1.5781 -0.1799
14111TIP3    H263825   1.185   6.533   5.785 -0.6281 -1.1586 -1.1019
14112TIP3   OH263826   0.355   5.168  13.030 -0.8125 -0.2463  0.4487
14112TIP3    H163827   0.426   5.226  13.004 -0.4513  0.2797  2.3953
14112TIP3    H263828   0.299   5.161  12.953  1.3639 -0.7405 -1.1693
14113TIP3   OH263829   3.405   1.770  14.608 -0.2120 -0.1910 -0.4355
14113TIP3    H163830   3.479   1.804  14.658 -0.7628 -0.6506  0.7350
14113TIP3    H263831   3.365   1.848  14.569  0.3498  0.1590 -0.3197
14114TIP3   OH263832   0.307   5.771  10.671  0.3421 -0.1091 -0.2661
14114TIP3    H163833   0.250   5.811  10.606 -0.3342  0.7605  0.8187
14114TIP3    H263834   0.318   5.680  10.641 -0.9455 -0.0650 -0.9369
14115TIP3   OH263835   5.938   5.736   5.352 -0.3031  0.2476  0.4975
14115TIP3    H163836   5.846   5.760   5.362 -0.1900  0.4608  1.1078
14115TIP3    H263837   5.944   5.648   5.388 -0.2581  0.2545  0.5061
14116TIP3   OH263838   4.182   2.207  14.754  0.2822  0.2524 -0.4134
14116TIP3    H163839   4.135   2.179  14.676  1.8865  0.1913 -1.3995
14116TIP3    H263840   4.127   2.178  14.827 -0.4855 -1.1003 -1.4878
14117TIP3   OH263841   4.877   5.625   0.151  0.3259 -0.1829  0.1585
14117TIP3    H163842   4.869   5.633   0.246  2.7210  1.7908  0.2898
14117TIP3    H263843   4.880   5.530   0.135 -1.4230 -0.5812  1.8553
14118TIP3   OH263844   5.194   5.465   1.708 -0.1683 -0.0125  0.0512
14118TIP3    H163845   5.236   5.539   1.751 -0.9895  0.0749  0.7436
14118TIP3    H263846   5.262   5.426   1.653  1.6297 -1.4224  3.0022
14119TIP3   OH263847   2.000   0.197  15.252  0.1460 -0.2108 -0.4864
14119TIP3    H163848   2.044   0.115  15.226 -0.8926 -0.4096 -1.6717
14119TIP3    H263849   1.909   0.184  15.227 -0.3077  0.7835  0.5987
14120TIP3   OH263850   6.225   1.544  15.903 -0.1296 -0.0526  0.0748
14120TIP3    H163851   6.309   1.549  15.858 -0.8831 -0.8091 -1.5268
14120TIP3    H263852   6.174   1.481  15.851 -1.8967  0.8646  0.6203
14121TIP3   OH263853   3.036   1.299  12.800  0.3241 -0.5109 -0.1450
14121TIP3    H163854   3.068   1.349  12.876  1.1513 -0.8930 -0.2335
14121TIP3    H263855   3.038   1.362  12.728 -2.1453  0.3786  0.4673
14122TIP3   OH263856   6.661   2.052  12.661  0.0636  0.3470 -0.1344
14122TIP3    H163857   6.693   2.025  12.747  0.4375  0.1994 -0.3189
14122TIP3    H263858   6.588   2.111  12.680  1.0664  1.5000  0.3221
14123TIP3   OH263859   3.163   6.645   4.168 -0.2722  0.5879 -0.4125
14123TIP3    H163860   3.243   6.609   4.130 -1.0532 -1.9744  0.1705
14123TIP3    H263861   3.105   6.659   4.092  0.1785  1.0085 -0.6851
14124TIP3   OH263862   3.256   6.541   1.768 -0.7219  0.2002 -0.1079
14124TIP3    H163863   3.181   6.564   1.713 -1.1515  1.1040  0.8378
14124TIP3    H263864   3.286   6.457   1.732 -1.3658  0.4650 -1.3239
14125TIP3   OH263865   3.000   6.883  13.767 -0.0572  0.0198 -0.0873
14125TIP3    H163866   2.970   6.804  13.811  1.4256 -0.8477 -0.5504
14125TIP3    H263867   3.008   6.948  13.836 -0.0968 -0.6068  0.5119
14126TIP3   OH263868   3.225   1.981   0.465  0.4521  0.4889 -0.0717
14126TIP3    H163869   3.244   2.007   0.375  1.5144 -0.4472 -0.1406
14126TIP3    H263870   3.307   1.943   0.497 -0.8841 -2.6223  0.0567
14127TIP3   OH263871   1.934   4.756   0.829 -0.7203  0.1046  0.5058
14127TIP3    H163872   1.969   4.669   0.849 -0.2440 -0.0925 -1.0653
14127TIP3    H263873   1.841   4.750   0.852 -0.5084 -0.5372  1.2299
14128TIP3   OH263874   1.514   3.647  13.205 -0.2374  0.1953  0.2485
14128TIP3    H163875   1.479   3.559  13.192 -1.0968  0.5687 -0.0056
14128TIP3    H263876   1.447   3.693  13.254 -0.1647  0.9578 -0.3502
14129TIP3   OH263877   5.423   1.403  16.420  0.6125 -0.3933 -0.3139
14129TIP3    H163878   5.358   1.416  16.350 -0.1731 -1.1128  0.2666
14129TIP3    H263879   5.388   1.449  16.495  1.1917 -0.0805 -0.2297
14130TIP3   OH263880   6.834   3.955   3.916  0.2507  0.0132 -0.3222
14130TIP3    H163881   6.884   4.037   3.914 -1.3801  1.0322 -0.9638
14130TIP3    H263882   6.785   3.954   3.834 -1.6904 -0.3292  0.7689
14131TIP3   OH263883   1.137   1.267  15.235 -0.4798  0.2981 -0.1535
14131TIP3    H163884   1.230   1.282  15.223 -0.5432  0.3525 -0.6012
14131TIP3    H263885   1.099   1.277  15.148 -1.3180  3.0811  0.4508
14132TIP3   OH263886   2.346   6.091  14.355  0.1808  0.2669 -0.4708
14132TIP3    H163887   2.290   6.073  14.279 -0.0898 -0.6057 -0.0736
14132TIP3    H263888   2.333   6.185  14.372 -2.6672 -0.2126  0.7311
14133TIP3   OH263889   5.083   2.029   3.573  0.6026  0.4852  0.0145
14133TIP3    H163890   5.033   2.088   3.517 -1.5734 -0.5527  0.7194
14133TIP3    H263891   5.034   2.029   3.656  0.5685 -2.1651  0.0749
14134TIP3   OH263892   1.477   0.825   5.794 -0.0611  0.3937  0.1569
14134TIP3    H163893   1.388   0.840   5.826  0.2893  1.0274  0.8612
14134TIP3    H263894   1.528   0.898   5.829  1.4868 -1.7193  2.7239
14135TIP3   OH263895   4.289   6.661  11.987 -0.3680 -0.0352  0.1036
14135TIP3    H163896   4.259   6.610  11.911  0.7828 -0.6834  0.0523
14135TIP3    H263897   4.239   6.742  11.983  0.2117  0.2757 -1.8062
14136TIP3   OH263898   3.803   5.752  16.637  0.4222  0.1777 -0.4066
14136TIP3    H163899   3.737   5.797  16.585 -0.6270 -0.9115 -0.0662
14136TIP3    H263900   3.782   5.774  16.727  0.3849 -0.3675 -0.2819
14137TIP3   OH263901   6.873   2.827   0.856 -0.2849 -0.0178  0.1008
14137TIP3    H163902   6.952   2.859   0.814 -0.9240  0.8528 -0.4763
14137TIP3    H263903   6.803   2.848   0.794 -0.8083 -2.2151 -0.1636
14138TIP3   OH263904   1.340   5.273  12.534  0.1399  0.3369 -0.2278
14138TIP3    H163905   1.423   5.316  12.555 -0.3649  1.0370  0.3726
14138TIP3    H263906   1.278   5.307  12.598 -0.3618 -1.0442  0.0470
14139TIP3   OH263907   1.687   2.959   0.214  0.6352 -0.0116  0.1121
14139TIP3    H163908   1.638   3.027   0.168  0.4141 -0.3215 -0.1232
14139TIP3    H263909   1.756   3.005   0.260  2.1064  0.1431 -2.0982
14140TIP3   OH263910   4.166   6.559  12.847  0.1352  0.2739  0.2539
14140TIP3    H163911   4.253   6.575  12.811 -0.6524  2.0546 -0.9796
14140TIP3    H263912   4.182   6.503  12.923  2.3683  0.6687  0.1437
14141TIP3   OH263913   6.258   2.775  11.137 -0.4953 -0.1174 -0.3217
14141TIP3    H163914   6.303   2.711  11.082 -3.0456 -1.6602 -0.7891
14141TIP3    H263915   6.278   2.860  11.097  2.8364 -0.5438  0.2190
14142TIP3   OH263916   3.733   5.670  12.712 -0.3813  0.3573  0.3590
14142TIP3    H163917   3.728   5.663  12.807  0.8418 -0.2034  0.4149
14142TIP3    H263918   3.689   5.591  12.680  2.5225 -1.5605  0.6344
14143TIP3   OH263919   6.317   2.617   2.815 -0.6617  0.2054 -0.0807
14143TIP3    H163920   6.326   2.542   2.873  0.9853  0.9492  0.7080
14143TIP3    H263921   6.236   2.601   2.766  1.8345 -4.4734 -3.5056
14144TIP3   OH263922   5.299   3.979   6.163 -0.0502  0.4769  0.2246
14144TIP3    H163923   5.264   3.931   6.087 -0.1093 -0.0276  0.5610
14144TIP3    H263924   5.345   4.053   6.125  0.0495  0.1467 -0.3180
14145TIP3   OH263925   2.564   5.910  12.811  0.0539  0.5811  0.1193
14145TIP3    H163926   2.617   5.833  12.792  2.8696  2.1918  0.9212
14145TIP3    H263927   2.528   5.937  12.727  1.0977 -0.2011 -0.5929
14146TIP3   OH263928   2.071   3.259   5.934 -0.0012 -0.0667  0.0517
14146TIP3    H163929   1.991   3.310   5.947 -0.2875 -0.5485  0.2118
14146TIP3    H263930   2.117   3.304   5.863  0.2362  0.9896  0.8570
14147TIP3   OH263931   2.979   2.439  16.949  0.6234  1.1216 -0.5267
14147TIP3    H163932   2.933   2.444  17.033 -1.6493 -1.3288 -1.4610
14147TIP3    H263933   3.061   2.394  16.969 -0.1943 -0.0535  0.3421
14148TIP3   OH263934   2.156   4.068   5.398 -0.1592 -0.0275 -0.0822
14148TIP3    H163935   2.243   4.107   5.396 -0.4983  0.7188 -1.2151
14148TIP3    H263936   2.126   4.072   5.308 -1.9594  1.0926  0.5168
14149TIP3   OH263937   5.520   0.573   4.993 -0.3206  0.6197 -0.0063
14149TIP3    H163938   5.443   0.599   5.044 -0.9822 -0.6394 -0.3254
14149TIP3    H263939   5.594   0.613   5.040 -1.0415  0.6934  1.1094
14150TIP3   OH263940   2.493   2.129  16.363 -0.4608 -0.1703  0.3205
14150TIP3    H163941   2.517   2.074  16.437  0.7937  0.4748  0.4371
14150TIP3    H263942   2.575   2.141  16.315 -1.2857 -0.7291 -1.3000
14151TIP3   OH263943   2.094   6.227   4.734  0.5509  0.1661 -0.2668
14151TIP3    H163944   2.039   6.289   4.781 -0.9178 -1.4674  0.2965
14151TIP3    H263945   2.164   6.206   4.796  0.3948  0.3736 -0.0168
14152TIP3   OH263946   3.942   1.662   6.041  0.0370  0.1542  0.0059
14152TIP3    H163947   3.883   1.593   6.010  0.0605  0.5669 -1.0091
14152TIP3    H263948   3.935   1.660   6.136 -0.9398 -0.3908 -0.0728
14153TIP3   OH263949   1.930   3.606   5.903 -0.3541  0.1955  0.4256
14153TIP3    H163950   1.835   3.611   5.908 -0.2587  2.0286  1.3325
14153TIP3    H263951   1.960   3.690   5.937  1.5630  0.1818 -1.0502
14154TIP3   OH263952   4.359   5.645   3.233 -0.3071  0.3105 -0.0471
14154TIP3    H163953   4.392   5.709   3.297  0.0818  0.8210 -0.7440
14154TIP3    H263954   4.345   5.696   3.154  1.5558 -0.7351 -1.1230
14155TIP3   OH263955   1.677   5.814  15.525  0.8463 -0.1704 -0.2034
14155TIP3    H163956   1.598   5.763  15.540  0.3880  0.8985  1.0716
14155TIP3    H263957   1.745   5.767  15.574  1.1970 -1.4508 -1.8108
14156TIP3   OH263958   5.933   4.909   2.034  0.3768 -0.0017 -0.2619
14156TIP3    H163959   5.889   4.826   2.052  1.2692 -0.2780  0.7084
14156TIP3    H263960   5.865   4.975   2.043  0.0591 -0.4631  0.8118
14157TIP3   OH263961   3.597   3.197  15.202  0.0820 -0.2275 -0.5192
14157TIP3    H163962   3.681   3.232  15.230  0.1569  0.6880 -1.7954
14157TIP3    H263963   3.615   3.154  15.118 -0.6614 -0.2711 -0.6657
14158TIP3   OH263964   4.741   4.465   1.029 -0.5020 -0.2989  0.0816
14158TIP3    H163965   4.829   4.448   0.997 -1.2472 -3.3605 -0.6862
14158TIP3    H263966   4.743   4.437   1.121 -0.8184 -1.1493 -0.1559
14159TIP3   OH263967   0.432   6.365  16.661 -1.1230 -0.0811 -0.3985
14159TIP3    H163968   0.411   6.458  16.662 -0.6411  0.0345  0.9139
14159TIP3    H263969   0.421   6.337  16.752  1.0875 -0.7579 -0.2796
14160TIP3   OH263970   3.934   5.548  11.255  0.4899 -0.2256  0.4518
14160TIP3    H163971   4.001   5.482  11.274  1.3651  1.2838  3.2245
14160TIP3    H263972   3.855   5.498  11.238  1.7104 -2.0082 -0.2799
14161TIP3   OH263973   4.336   0.059  14.499  0.0052 -0.7985  0.0806
14161TIP3    H163974   4.391  -0.014  14.470  0.6277 -0.0231 -0.7433
14161TIP3    H263975   4.374   0.086  14.582  0.6356 -0.5257 -0.2906
14162TIP3   OH263976   2.196   4.410   0.103  0.5398 -0.0928 -0.2564
14162TIP3    H163977   2.246   4.386   0.025  1.3725  0.0074  0.2411
14162TIP3    H263978   2.141   4.483   0.074  0.6640 -0.2102 -0.8118
14163TIP3   OH263979   0.435   6.232   1.410 -0.3361 -0.3200  0.0091
14163TIP3    H163980   0.354   6.216   1.459  0.3230 -3.0559  0.3870
14163TIP3    H263981   0.439   6.160   1.347  2.1215 -0.6453  0.4598
14164TIP3   OH263982   0.288   2.478  13.741  0.0438  0.0563  0.0301
14164TIP3    H163983   0.292   2.574  13.739 -0.4823  0.0747 -0.5877
14164TIP3    H263984   0.373   2.450  13.707  0.4205  0.2978  0.7636
14165TIP3   OH263985   5.660   3.120   0.039 -0.1710  0.3705 -0.2347
14165TIP3    H163986   5.686   3.077   0.120 -2.2540 -1.2189 -0.3252
14165TIP3    H263987   5.674   3.213   0.055 -2.6594  0.3694  2.8964
14166TIP3   OH263988   6.380   6.773  14.883  0.1594 -0.0447  0.1323
14166TIP3    H163989   6.437   6.709  14.927  0.1019 -0.2879 -0.1448
14166TIP3    H263990   6.440   6.828  14.833  0.4299  1.4593  2.0033
14167TIP3   OH263991   1.798   5.256   5.432 -0.0801 -0.0018  0.0140
14167TIP3    H163992   1.714   5.302   5.424  1.5649  3.0432 -1.6523
14167TIP3    H263993   1.792   5.184   5.369 -0.9887  0.9972 -1.0836
14168TIP3   OH263994   3.359   3.795  10.622  0.1122 -0.0056  0.5636
14168TIP3    H163995   3.286   3.834  10.573 -0.0312  0.2185  0.9416
14168TIP3    H263996   3.426   3.863  10.622 -0.2350  0.3613  1.4420
14169TIP3   OH263997   0.639   3.554  13.931  0.3413 -0.3466  0.4277
14169TIP3    H163998   0.584   3.564  13.853  0.6636  1.7860  0.4043
14169TIP3    H263999   0.583   3.581  14.003  0.6091 -0.5264  0.7052
14170TIP3   OH264000   1.858   6.203  11.502 -0.3046 -0.2552  0.6487
14170TIP3    H164001   1.815   6.196  11.587 -0.3771 -2.5208  0.4917
14170TIP3    H264002   1.951   6.209  11.521 -0.4494  1.6928  0.9116
14171TIP3   OH264003   4.060   2.323  12.642 -0.5920  0.4774  0.0638
14171TIP3    H164004   4.064   2.410  12.683  2.3771  0.2024  0.5270
14171TIP3    H264005   4.064   2.342  12.548 -0.7737  0.8633  0.1283
14172TIP3   OH264006   3.222   3.547  12.557 -0.2096  0.4197 -0.5200
14172TIP3    H164007   3.231   3.468  12.610 -2.2488 -0.0422 -0.7718
14172TIP3    H264008   3.180   3.610  12.615 -0.7613  0.5202 -1.0192
14173TIP3   OH264009   4.259   5.575   4.145 -0.7361 -0.0974 -0.5047
14173TIP3    H164010   4.265   5.490   4.102 -1.1508 -1.8181  2.6291
14173TIP3    H264011   4.180   5.571   4.198  0.1585  1.5514  1.0984
14174TIP3   OH264012   5.989   0.402  15.715  0.3697 -0.7048 -0.1489
14174TIP3    H164013   5.999   0.325  15.772  3.8282 -0.6935 -0.5186
14174TIP3    H264014   6.063   0.458  15.739 -1.0431  1.7306 -1.1453
14175TIP3   OH264015   2.927   0.898   2.306  0.9677 -0.2599  0.4048
14175TIP3    H164016   2.837   0.906   2.336  1.1903 -0.4750  1.1535
14175TIP3    H264017   2.920   0.878   2.213  0.2627  0.7612  0.2196
14176TIP3   OH264018   1.664   2.078  14.403  0.3244  0.0894  0.4449
14176TIP3    H164019   1.685   2.022  14.328 -0.0550 -0.7570  0.9459
14176TIP3    H264020   1.574   2.106  14.387 -0.3784 -1.4880  1.3831
14177TIP3   OH264021   0.354   0.404   3.931  0.2222 -0.3653 -0.0714
14177TIP3    H164022   0.397   0.421   4.015 -0.0616  0.2220 -0.0437
14177TIP3    H264023   0.337   0.310   3.931 -1.3946 -0.1114  1.3049
14178TIP3   OH264024   5.812   5.318   0.964  0.1393  0.1410 -0.0492
14178TIP3    H164025   5.873   5.321   1.037  0.7377  2.8253 -0.5326
14178TIP3    H264026   5.746   5.385   0.985 -0.0037  0.5488 -1.6674
14179TIP3   OH264027   1.590   4.339  16.752 -0.4117  0.1250 -0.1116
14179TIP3    H164028   1.630   4.337  16.839 -0.9755 -2.5797  0.1691
14179TIP3    H264029   1.526   4.410  16.757  0.8383  1.2379  1.0346
14180TIP3   OH264030   3.515   6.143  13.366  0.5480  0.3316  0.4163
14180TIP3    H164031   3.487   6.235  13.366  0.3927  0.2986  1.5197
14180TIP3    H264032   3.556   6.131  13.281  0.8988  1.5359  0.3890
14181TIP3   OH264033   1.261   2.298   2.630 -0.3438  0.4070  0.2093
14181TIP3    H164034   1.354   2.300   2.607 -0.5332  1.9214 -0.5078
14181TIP3    H264035   1.220   2.245   2.562  0.0608 -0.7920  0.8712
14182TIP3   OH264036   1.670   4.875   1.430  0.5250  0.5992  0.1276
14182TIP3    H164037   1.628   4.961   1.423 -0.0001  0.3557  0.2456
14182TIP3    H264038   1.623   4.831   1.500  0.1951 -0.1229 -0.5405
14183TIP3   OH264039   6.611   2.374   1.008  0.4473  0.0369 -0.2008
14183TIP3    H164040   6.561   2.317   1.066 -0.1659 -1.2518 -1.9104
14183TIP3    H264041   6.700   2.339   1.011  0.6361  0.5471  0.6202
14184TIP3   OH264042   0.599   4.271  15.763 -0.0782  0.4616  0.6452
14184TIP3    H164043   0.566   4.356  15.792 -0.6470 -0.2234  2.1182
14184TIP3    H264044   0.596   4.216  15.841  0.5642 -0.8407 -0.2013
14185TIP3   OH264045   4.197   5.310   5.370 -0.3589 -0.1434  0.0614
14185TIP3    H164046   4.119   5.260   5.348  0.5085 -1.3841 -0.3419
14185TIP3    H264047   4.215   5.362   5.293 -0.6277 -0.0815  0.0422
14186TIP3   OH264048   5.185   5.520   0.128  0.0494  0.7484 -0.0017
14186TIP3    H164049   5.175   5.614   0.144 -0.5906  0.4179  1.6629
14186TIP3    H264050   5.101   5.482   0.153  0.1501 -0.2488 -1.0589
14187TIP3   OH264051   0.560   5.359   0.395  0.3281  0.3903 -0.4355
14187TIP3    H164052   0.579   5.385   0.305  0.7565  0.6565 -0.2733
14187TIP3    H264053   0.502   5.283   0.386 -1.8122  2.0013 -0.8982
14188TIP3   OH264054   4.368   1.684   2.709  0.6478  0.2492  0.6665
14188TIP3    H164055   4.399   1.774   2.700  0.3734  0.3681  0.8775
14188TIP3    H264056   4.300   1.689   2.776 -1.0175  0.2848 -0.9728
14189TIP3   OH264057   2.376   0.202  11.485  0.8068  0.3485  0.3826
14189TIP3    H164058   2.327   0.247  11.416  0.7532 -0.1398  0.0983
14189TIP3    H264059   2.309   0.156  11.535  0.9316  0.0326  0.2583
14190TIP3   OH264060   6.435   1.453   4.278  0.0940 -0.1368 -0.4076
14190TIP3    H164061   6.443   1.360   4.302  0.0153 -0.4849 -1.6660
14190TIP3    H264062   6.451   1.500   4.360 -0.7990 -1.2804  0.4580
14191TIP3   OH264063   1.643   5.210  13.383  0.0842 -0.4627  0.2050
14191TIP3    H164064   1.685   5.126  13.364 -1.8148 -1.3183 -0.4584
14191TIP3    H264065   1.649   5.219  13.478 -0.9674 -2.1051  0.4584
14192TIP3   OH264066   0.937   1.618  13.267  0.0629  0.3974 -0.4832
14192TIP3    H164067   0.935   1.709  13.237  1.2285  0.3131 -0.8524
14192TIP3    H264068   0.987   1.620  13.349  0.2850  0.0585 -0.6078
14193TIP3   OH264069   4.415   5.336   1.259 -0.0671  0.2413 -0.0148
14193TIP3    H164070   4.502   5.366   1.234  0.3041 -0.0258  0.9167
14193TIP3    H264071   4.363   5.343   1.179  0.9392 -0.0883 -0.7111
14194TIP3   OH264072   4.396   5.549  12.851  1.1988 -0.5576 -0.2160
14194TIP3    H164073   4.335   5.565  12.922 -1.0921  0.3018 -2.2136
14194TIP3    H264074   4.481   5.535  12.893 -0.6063 -3.7608  2.8801
14195TIP3   OH264075   0.430   5.306  13.672 -0.2672  0.1563  0.3975
14195TIP3    H164076   0.454   5.387  13.717  0.0801  0.2572  0.0366
14195TIP3    H264077   0.472   5.312  13.587  0.2494 -0.6668  0.5771
14196TIP3   OH264078   3.276   3.903   5.296  0.0937  0.3119 -0.3190
14196TIP3    H164079   3.319   3.934   5.375  0.0123  0.5688 -0.3744
14196TIP3    H264080   3.184   3.927   5.308 -0.4500 -1.9872  0.7045
14197TIP3   OH264081   0.683   3.405  12.584  0.3579 -0.1700 -0.3810
14197TIP3    H164082   0.758   3.375  12.635  0.0083 -0.6746 -0.1582
14197TIP3    H264083   0.623   3.443  12.648 -0.2784 -1.1988 -0.3334
14198TIP3   OH264084   4.597   2.775   1.653  0.1212 -0.1823 -0.4444
14198TIP3    H164085   4.606   2.747   1.562 -1.6751 -0.9588 -0.4317
14198TIP3    H264086   4.510   2.743   1.679 -0.3440  1.9811  0.8508
14199TIP3   OH264087   3.574   4.669  11.139  0.1240  0.1264  1.4016
14199TIP3    H164088   3.483   4.700  11.133 -0.0624 -0.5089  0.7547
14199TIP3    H264089   3.599   4.653  11.048  0.1754 -1.6773  1.6987
14200TIP3   OH264090   2.104   0.251  14.149 -0.0960  0.3667  0.6037
14200TIP3    H164091   2.013   0.233  14.173 -1.0990  1.0727 -2.3272
14200TIP3    H264092   2.113   0.346  14.163  0.7511  0.0615  2.4059
14201TIP3   OH264093   2.521   1.932  12.172  0.6604  0.1905 -0.7353
14201TIP3    H164094   2.495   1.882  12.249 -1.9238  0.8906 -1.0401
14201TIP3    H264095   2.502   2.023  12.195  0.7921  0.5094 -1.8418
14202TIP3   OH264096   3.072   0.317   5.627  0.2401 -0.1006 -0.7594
14202TIP3    H164097   3.068   0.316   5.723  0.7573  0.7567 -0.7167
14202TIP3    H264098   3.082   0.225   5.603  1.8848 -0.2051  0.1189
14203TIP3   OH264099   3.900   6.558  12.812 -0.3434 -0.6697 -0.4065
14203TIP3    H164100   3.989   6.593  12.819  0.7760 -2.9238 -2.0686
14203TIP3    H264101   3.844   6.635  12.819  1.6834  0.7766  1.1253
14204TIP3   OH264102   1.779   4.730   5.679  0.1669 -0.0333  0.3989
14204TIP3    H164103   1.768   4.798   5.613 -0.3963 -0.3074  0.2118
14204TIP3    H264104   1.776   4.777   5.762  0.6361  0.2795  0.2460
14205TIP3   OH264105   5.791   3.695   5.013  0.0820 -0.5633  0.6815
14205TIP3    H164106   5.702   3.708   5.045 -0.3963 -1.5041 -0.2300
14205TIP3    H264107   5.810   3.776   4.964 -0.7946 -0.9093 -0.2678
14206TIP3   OH264108   4.687   2.262   3.471  0.1289 -0.3738 -0.6855
14206TIP3    H164109   4.631   2.316   3.414  1.1274 -0.0737 -1.4088
14206TIP3    H264110   4.765   2.246   3.418  1.3763  0.4531  0.8251
14207TIP3   OH264111   0.584   0.778  11.146  0.0239  0.1196  0.5803
14207TIP3    H164112   0.610   0.716  11.078 -1.1473  1.9842 -1.7275
14207TIP3    H264113   0.541   0.724  11.213  1.5399 -1.8339  0.0753
14208TIP3   OH264114   4.625   1.609  11.836 -0.7593  0.1517  0.3568
14208TIP3    H164115   4.601   1.686  11.889 -1.2357  1.7718 -2.0215
14208TIP3    H264116   4.721   1.609  11.836 -0.5764  3.1774 -2.6004
14209TIP3   OH264117   4.308   5.992  14.476  0.1227 -0.2738 -0.1022
14209TIP3    H164118   4.386   5.936  14.480  0.7741  0.6839  2.1605
14209TIP3    H264119   4.313   6.033  14.390  2.4008  0.1113  0.1557
14210TIP3   OH264120   3.640   3.191  14.773  0.5305  0.3052  0.1903
14210TIP3    H164121   3.722   3.207  14.726 -0.6458 -0.5449 -2.3726
14210TIP3    H264122   3.658   3.218  14.863  3.3380  0.9237 -0.4514
14211TIP3   OH264123   2.766   1.979  14.709  0.2263  0.2162 -0.1865
14211TIP3    H164124   2.678   1.941  14.715  1.0181 -1.5357  0.8424
14211TIP3    H264125   2.758   2.045  14.639 -2.6219  2.1870  1.7390
14212TIP3   OH264126   0.532   6.656   0.950  0.2415 -0.0388 -0.2710
14212TIP3    H164127   0.617   6.658   0.994  2.0480 -0.1479 -3.3929
14212TIP3    H264128   0.489   6.737   0.978  1.0958 -0.2640  1.8425
14213TIP3   OH264129   3.576   4.398  13.884  0.4029  0.2924 -0.1946
14213TIP3    H164130   3.639   4.448  13.832  1.4635  0.5489  1.2891
14213TIP3    H264131   3.564   4.317  13.834  2.9811 -0.3737  0.1257
14214TIP3   OH264132   5.842   2.746   4.559 -0.0932 -0.2673  0.2858
14214TIP3    H164133   5.807   2.830   4.589  0.4102 -0.1922  0.6742
14214TIP3    H264134   5.764   2.694   4.538 -0.4166  0.1588  0.4119
14215TIP3   OH264135   6.578   5.536  11.132  0.5912  0.0037  0.1335
14215TIP3    H164136   6.655   5.504  11.179  0.3792  0.8368  1.0799
14215TIP3    H264137   6.613   5.574  11.051  0.8988 -2.0194 -0.7477
14216TIP3   OH264138   5.924   5.648  14.692  0.4286  0.4621  0.2645
14216TIP3    H164139   5.911   5.742  14.679  0.7222  0.3775 -0.6798
14216TIP3    H264140   6.016   5.634  14.672  0.3039 -0.0916  0.0756
14217TIP3   OH264141   6.080   2.044   0.690 -0.0959  0.3050 -0.1507
14217TIP3    H164142   6.013   2.108   0.713 -0.8505 -0.3905 -0.3608
14217TIP3    H264143   6.117   2.017   0.774 -1.2465 -0.5308  0.1125
14218TIP3   OH264144   1.842   4.470  13.893  0.6050 -0.2995 -0.8479
14218TIP3    H164145   1.757   4.441  13.924  0.6535 -1.1914 -1.4957
14218TIP3    H264146   1.872   4.534  13.958 -0.9951  0.8138 -1.1354
14219TIP3   OH264147   6.375   2.364   2.022 -0.1911 -0.3318 -0.1848
14219TIP3    H164148   6.328   2.420   1.960  1.3533  1.1385 -0.0791
14219TIP3    H264149   6.329   2.378   2.105  0.1040  0.7188 -0.1847
14220TIP3   OH264150   1.421   6.516   5.993  0.0414  0.0774  0.0237
14220TIP3    H164151   1.328   6.510   5.969  0.4363 -0.6912 -1.3786
14220TIP3    H264152   1.450   6.425   5.998  0.7150  0.3117  0.5499
14221TIP3   OH264153   2.957   6.261  15.804  0.4214  0.0592  0.0048
14221TIP3    H164154   2.911   6.273  15.721  1.2284  0.6239 -0.3790
14221TIP3    H264155   2.992   6.172  15.800 -0.6754 -0.3942  0.3281
14222TIP3   OH264156   3.470   6.676  16.323  0.5302  0.1079  0.2135
14222TIP3    H164157   3.383   6.696  16.356  0.2853  0.4298 -0.6036
14222TIP3    H264158   3.478   6.728  16.243  1.4246 -0.0074  0.2160
14223TIP3   OH264159   1.396   3.150  16.145  0.1799 -0.0649 -0.4541
14223TIP3    H164160   1.310   3.125  16.111 -0.3217 -0.4379  1.0173
14223TIP3    H264161   1.393   3.245  16.151 -0.9640 -0.1631  1.5517
14224TIP3   OH264162   5.385   4.351   3.066  0.3842 -0.2463 -0.0153
14224TIP3    H164163   5.374   4.258   3.087 -0.9267  0.3208  2.0588
14224TIP3    H264164   5.477   4.359   3.043  0.7974 -1.8463  0.9113
14225TIP3   OH264165   0.036   6.837  12.632 -0.2824 -0.1253  0.3387
14225TIP3    H164166   0.063   6.796  12.549  0.3247  0.4765  0.2333
14225TIP3    H264167   0.085   6.789  12.699  1.8355  1.5100  0.0933
14226TIP3   OH264168   6.683   5.683  15.317 -0.2778  0.1766  0.1747
14226TIP3    H164169   6.705   5.675  15.409 -1.5806  0.5500  0.5431
14226TIP3    H264170   6.755   5.733  15.279  1.4821 -2.0039  0.4547
14227TIP3   OH264171   0.230   4.260   5.909  0.7662 -0.7191 -0.0095
14227TIP3    H164172   0.175   4.217   5.974  1.2190 -1.1252  0.1100
14227TIP3    H264173   0.319   4.239   5.935  0.9475 -1.2559 -1.0032
14228TIP3   OH264174   5.198   4.076   2.896 -0.3010  0.5772 -0.0330
14228TIP3    H164175   5.249   4.089   2.976  0.1993 -1.9279  0.1376
14228TIP3    H264176   5.116   4.123   2.911  0.5181  1.6568  1.1893
14229TIP3   OH264177   1.305   6.470   5.181 -0.1429 -0.4475  0.3326
14229TIP3    H164178   1.216   6.471   5.147  0.6711 -0.6057 -1.9173
14229TIP3    H264179   1.357   6.430   5.112  2.0809  1.8568  0.5565
14230TIP3   OH264180   2.461   3.598  11.635 -0.7304 -0.3224  0.4064
14230TIP3    H164181   2.530   3.585  11.700 -0.2728 -0.1880 -0.0492
14230TIP3    H264182   2.495   3.559  11.555 -1.8151 -1.6539  0.5495
14231TIP3   OH264183   0.128   4.320  11.154  0.8458  0.2134 -0.0777
14231TIP3    H164184   0.066   4.333  11.226  1.7043 -0.6001  0.8351
14231TIP3    H264185   0.209   4.360  11.184  0.2353  3.5494 -2.2603
14232TIP3   OH264186   3.065   4.005  14.800  0.6450 -0.2402  0.1698
14232TIP3    H164187   3.088   4.029  14.710 -0.4814 -2.9952 -0.9635
14232TIP3    H264188   3.141   3.955  14.831 -0.0832 -1.7457 -0.3613
14233TIP3   OH264189   6.216   5.757  16.259 -0.4749 -0.2230 -0.4681
14233TIP3    H164190   6.291   5.792  16.212 -0.9109  2.2903  0.5494
14233TIP3    H264191   6.219   5.800  16.344 -2.4064 -0.9421  0.0094
14234TIP3   OH264192   1.007   6.414  12.228  0.4365  0.3475  0.3265
14234TIP3    H164193   0.949   6.487  12.202 -0.1154  0.2600  1.2757
14234TIP3    H264194   1.011   6.420  12.323  0.7731 -0.5839  0.3749
14235TIP3   OH264195   2.101   4.961   3.571 -0.5414  0.6063  0.1683
14235TIP3    H164196   2.143   4.877   3.589 -0.0916  0.3556 -1.8649
14235TIP3    H264197   2.145   5.023   3.630  2.0050  0.1541 -1.1494
14236TIP3   OH264198   5.942   6.022   1.125  0.2238  0.2349  0.5450
14236TIP3    H164199   5.851   6.053   1.127 -0.0858 -0.5919 -0.0770
14236TIP3    H264200   5.950   5.979   1.040  0.6891 -1.1947  1.2803
14237TIP3   OH264201   2.655   3.352  13.516  0.2885 -0.3300 -0.1302
14237TIP3    H164202   2.653   3.417  13.586 -1.9156 -0.9372  0.4632
14237TIP3    H264203   2.716   3.387  13.451  0.3331  1.5507  0.8818
14238TIP3   OH264204   6.536   1.836  13.374  0.1727 -0.3258  0.1838
14238TIP3    H164205   6.602   1.895  13.409 -0.2916 -0.2722  1.0054
14238TIP3    H264206   6.585   1.760  13.343  0.5252 -1.0529  2.3634
14239TIP3   OH264207   4.892   5.559  10.655 -0.2727 -0.1604 -0.1729
14239TIP3    H164208   4.866   5.481  10.705 -0.6525 -0.3970 -0.7209
14239TIP3    H264209   4.984   5.544  10.636  0.0744  0.2834  1.0733
14240TIP3   OH264210   2.307   0.223  16.615 -0.0665 -0.0134  0.0319
14240TIP3    H164211   2.239   0.250  16.677 -0.3585  0.0155 -0.2956
14240TIP3    H264212   2.386   0.267  16.645 -0.5768  1.4401 -0.6225
14241TIP3   OH264213   2.426   0.487   0.976 -0.5267  0.0375  0.3287
14241TIP3    H164214   2.519   0.508   0.973 -0.1424 -1.6234  0.0520
14241TIP3    H264215   2.418   0.421   1.045 -1.6057  0.6131  0.7843
14242TIP3   OH264216   1.344   1.499  13.873 -0.5406 -0.0227  0.6629
14242TIP3    H164217   1.424   1.533  13.911 -0.2960 -0.2599  0.3695
14242TIP3    H264218   1.374   1.435  13.807 -0.9831 -0.7044  1.1120
14243TIP3   OH264219   0.301   3.536  14.279  0.3788  0.0209 -0.3928
14243TIP3    H164220   0.357   3.538  14.357 -1.2939  0.0896  0.8693
14243TIP3    H264221   0.354   3.574  14.209  1.5357  1.0145  0.9816
14244TIP3   OH264222   0.069   3.674   0.129 -0.2378 -0.2600  0.2653
14244TIP3    H164223   0.033   3.590   0.158 -1.1246  0.5129  1.4800
14244TIP3    H264224   0.151   3.684   0.177  0.2796 -0.7755 -0.4820
14245TIP3   OH264225   3.184   6.449   1.456 -0.3394 -0.2003 -0.2711
14245TIP3    H164226   3.144   6.533   1.434 -0.9854 -0.6894 -0.9894
14245TIP3    H264227   3.161   6.391   1.384 -1.0331 -1.3721  0.8465
14246TIP3   OH264228   6.700   5.368  13.641  0.0252 -0.3499 -0.2675
14246TIP3    H164229   6.626   5.351  13.582  0.4038 -0.4547 -0.7155
14246TIP3    H264230   6.667   5.344  13.727 -1.2124  1.6835 -0.0987
14247TIP3   OH264231   1.894   4.438   3.778  0.5004 -0.5934 -0.1991
14247TIP3    H164232   1.903   4.529   3.751  0.7337 -0.0196  1.6805
14247TIP3    H264233   1.821   4.438   3.839  1.4451 -1.3849  0.9691
14248TIP3   OH264234   2.816   0.231   1.963 -0.3932 -0.3690 -0.3821
14248TIP3    H164235   2.810   0.136   1.977 -0.1513 -0.3383 -0.0525
14248TIP3    H264236   2.850   0.265   2.046  0.3031 -0.0868 -0.7727
14249TIP3   OH264237   4.435   3.687  15.695 -0.2915  0.5387  0.2547
14249TIP3    H164238   4.514   3.736  15.673  0.0275 -0.5550 -1.2009
14249TIP3    H264239   4.464   3.620  15.757  0.0905 -0.2946 -0.7989
14250TIP3   OH264240   6.121   2.970  15.787 -0.0054  0.1796  0.0854
14250TIP3    H164241   6.134   3.050  15.738 -0.8655 -1.2183 -2.6074
14250TIP3    H264242   6.164   2.902  15.735 -0.2343 -1.3027  1.7107
14251TIP3   OH264243   1.435   3.908   5.042 -0.3561  1.0667  0.0801
14251TIP3    H164244   1.530   3.919   5.048 -0.5386  1.8000  2.5241
14251TIP3    H264245   1.404   3.991   5.004 -0.1173  1.2340  0.2497
14252TIP3   OH264246   4.090   2.192  13.982 -0.0791 -0.2781 -0.5124
14252TIP3    H164247   3.995   2.183  13.987 -0.2994  0.1026 -3.0214
14252TIP3    H264248   4.123   2.102  13.980 -0.4110 -0.4085 -0.3066
14253TIP3   OH264249   5.994   5.497   4.861  0.3201  0.1370  0.3521
14253TIP3    H164250   5.956   5.583   4.845  2.5113  0.8397 -1.6523
14253TIP3    H264251   5.928   5.436   4.830 -1.1015  1.0678  1.4320
14254TIP3   OH264252   1.758   6.115  10.842 -0.5431  0.5961  0.6001
14254TIP3    H164253   1.818   6.055  10.887 -1.4696  0.0492  1.1353
14254TIP3    H264254   1.793   6.121  10.753  0.1645  0.0939  0.8335
14255TIP3   OH264255   6.750   1.281  15.192  0.3502  0.1315  0.3487
14255TIP3    H164256   6.713   1.369  15.185  1.7446  0.6482 -1.1555
14255TIP3    H264257   6.839   1.295  15.223 -0.1273 -0.9748  2.4138
14256TIP3   OH264258   3.872   3.341   3.037 -0.6760  0.8472  0.2841
14256TIP3    H164259   3.946   3.376   2.986  0.9644 -1.1377  1.1681
14256TIP3    H264260   3.861   3.403   3.109  0.1797  1.1210  0.1882
14257TIP3   OH264261   1.325   2.751  12.895  0.6585  0.0056 -0.5042
14257TIP3    H164262   1.291   2.715  12.813  0.4610  0.2653 -0.5361
14257TIP3    H264263   1.387   2.685  12.926  0.8639 -0.0183 -0.9510
14258TIP3   OH264264   6.302   1.445  12.958 -0.4572  0.1532  0.1691
14258TIP3    H164265   6.289   1.539  12.973 -0.3821 -0.1609  2.6455
14258TIP3    H264266   6.397   1.434  12.957 -0.4599  0.1579 -0.6551
14259TIP3   OH264267   4.686   3.588  10.446  1.0277  0.4920  0.6808
14259TIP3    H164268   4.620   3.627  10.502  1.3917  0.2742  1.2641
14259TIP3    H264269   4.664   3.495  10.443 -0.7924  0.8763 -1.9759
14260TIP3   OH264270   4.823   1.144  10.455 -0.1859  0.2644 -0.7462
14260TIP3    H164271   4.739   1.189  10.452  0.4705  1.5394 -0.8488
14260TIP3    H264272   4.878   1.192  10.392  0.8326 -0.0662 -0.1316
14261TIP3   OH264273   4.755   3.589  14.763  0.2107  0.0844  0.3098
14261TIP3    H164274   4.823   3.556  14.822  0.7788 -0.5255 -0.6555
14261TIP3    H264275   4.745   3.681  14.787  1.7589  0.3257  0.1291
14262TIP3   OH264276   2.019   4.591  13.323  0.0880 -1.5563  0.2633
14262TIP3    H164277   2.078   4.635  13.263  0.1870 -1.6086  0.3201
14262TIP3    H264278   1.941   4.570  13.271  0.4146 -2.1388 -0.0094
14263TIP3   OH264279   2.086   3.668  11.902 -0.1766  0.2312 -0.3453
14263TIP3    H164280   2.169   3.632  11.932 -0.1918  1.0851  0.8132
14263TIP3    H264281   2.062   3.732  11.970 -1.8556 -0.1102 -0.5758
14264TIP3   OH264282   5.636   3.860   3.009 -0.2601  0.2083  0.1424
14264TIP3    H164283   5.694   3.932   3.036  0.1394 -0.4456  1.0981
14264TIP3    H264284   5.565   3.862   3.074 -1.0352  0.6477 -0.6914
14265TIP3   OH264285   1.936   5.290   6.226  0.6069  0.0891 -0.1110
14265TIP3    H164286   1.892   5.359   6.275  0.2021 -0.4166  0.2517
14265TIP3    H264287   1.880   5.213   6.237 -0.9811  0.5387 -3.5640
14266TIP3   OH264288   4.722   2.680  14.154  0.3344 -0.7301 -0.2787
14266TIP3    H164289   4.765   2.737  14.090 -2.1365  0.7131 -0.7974
14266TIP3    H264290   4.737   2.724  14.238 -0.4453  0.0114 -0.5125
14267TIP3   OH264291   2.678   0.131  13.651  0.6129  0.5271 -0.2771
14267TIP3    H164292   2.607   0.086  13.607  0.5487  0.1274  0.2203
14267TIP3    H264293   2.714   0.066  13.712  1.1955  0.8214 -0.2948
14268TIP3   OH264294   0.658   2.561   1.009  0.3311 -0.2562  0.2124
14268TIP3    H164295   0.745   2.533   1.040  0.8778  0.2398 -0.8130
14268TIP3    H264296   0.641   2.505   0.933  0.3235  0.4952 -0.3492
14269TIP3   OH264297   4.692   2.365   6.108 -0.1680  0.2445  0.3797
14269TIP3    H164298   4.662   2.353   6.198 -1.7934  1.5648  0.0745
14269TIP3    H264299   4.667   2.455   6.087 -0.4930 -0.2694 -1.6183
14270TIP3   OH264300   3.542   4.117  16.538 -0.3043 -0.1398  0.3293
14270TIP3    H164301   3.584   4.100  16.622 -1.5580  0.5837  1.1177
14270TIP3    H264302   3.595   4.068  16.475  1.6323  0.6318  1.2875
14271TIP3   OH264303   1.102   2.314   1.505  0.1500 -0.1699  0.8216
14271TIP3    H164304   1.014   2.288   1.531  0.7163  0.0187  3.1053
14271TIP3    H264305   1.092   2.404   1.474 -0.4764 -0.2158  0.8792
14272TIP3   OH264306   5.977   0.855  12.058 -0.2562 -0.1655 -0.6384
14272TIP3    H164307   6.018   0.899  12.133  0.3356 -1.2605 -0.2905
14272TIP3    H264308   6.028   0.884  11.983 -0.6012  0.6320 -0.5699
14273TIP3   OH264309   6.326   1.858   4.412  0.1860  0.1497 -0.0507
14273TIP3    H164310   6.390   1.929   4.406 -0.9512  1.1340 -1.1034
14273TIP3    H264311   6.241   1.902   4.411 -0.5649 -1.2543 -1.1141
14274TIP3   OH264312   1.898   2.569  11.510  0.1547 -0.0631 -0.3222
14274TIP3    H164313   1.841   2.572  11.587  0.4236  0.3891 -0.1410
14274TIP3    H264314   1.986   2.558  11.545  0.1370 -1.4133 -0.6230
14275TIP3   OH264315   0.292   1.227   5.371 -0.2816  0.3914  0.0380
14275TIP3    H164316   0.296   1.180   5.287 -0.8472 -0.0840  0.2617
14275TIP3    H264317   0.309   1.318   5.349  1.5694 -0.0126 -0.3110
14276TIP3   OH264318   2.073   6.585   2.268  0.2201 -0.5476  0.3815
14276TIP3    H164319   2.016   6.539   2.206 -1.0867  0.3770  0.8453
14276TIP3    H264320   2.161   6.572   2.234 -0.3700 -1.0657 -1.0135
14277TIP3   OH264321   1.068   5.828   0.850  0.0066 -0.5803 -0.4834
14277TIP3    H164322   1.033   5.792   0.931 -0.2802 -0.1559 -0.4140
14277TIP3    H264323   1.055   5.758   0.786 -1.3329 -0.3097 -0.5456
14278TIP3   OH264324   1.126   2.245   3.782  0.0510  0.0709  0.0873
14278TIP3    H164325   1.145   2.309   3.713  1.4003  0.7987  1.0867
14278TIP3    H264326   1.068   2.181   3.740  0.7610  0.5267 -1.6934
14279TIP3   OH264327   1.072   3.489   0.797 -0.1301 -0.5585 -0.2475
14279TIP3    H164328   1.100   3.441   0.719  1.1079 -0.3210  0.0452
14279TIP3    H264329   1.101   3.578   0.783  1.0316 -0.7263  0.9324
14280TIP3   OH264330   6.267   5.618   1.325 -0.4028  0.2880  0.2854
14280TIP3    H164331   6.322   5.583   1.254 -0.9816  0.2177 -0.1407
14280TIP3    H264332   6.326   5.672   1.377  0.4739 -1.1627  0.8526
14281TIP3   OH264333   2.901   4.861   5.138  1.0214 -0.8715  0.2325
14281TIP3    H164334   2.963   4.928   5.110 -1.5399  0.3596 -3.0145
14281TIP3    H264335   2.925   4.784   5.086 -0.4708 -0.1692 -1.6094
14282TIP3   OH264336   1.523   0.209  13.936 -0.2782  0.3344 -0.1614
14282TIP3    H164337   1.539   0.304  13.934  1.0562  0.1230  0.0610
14282TIP3    H264338   1.479   0.191  13.853 -0.7941  1.1884 -0.0880
14283TIP3   OH264339   4.027   1.620  10.518  0.2945  0.3364 -0.6558
14283TIP3    H164340   4.026   1.534  10.559 -2.8536 -0.1817 -1.5353
14283TIP3    H264341   4.120   1.637  10.499  1.0719 -2.5989  0.0178
14284TIP3   OH264342   5.993   3.563  11.644  0.1083 -0.0769  0.0586
14284TIP3    H164343   6.076   3.550  11.597  0.1083 -0.7373  0.2266
14284TIP3    H264344   5.978   3.657  11.641  1.3182  0.1637  0.7656
14285TIP3   OH264345   0.063   1.844   2.789 -0.5600 -0.2640 -0.1254
14285TIP3    H164346   0.142   1.877   2.746 -0.2739  2.2281  2.0437
14285TIP3    H264347   0.089   1.831   2.880 -2.0470 -1.8306  0.1102
14286TIP3   OH264348   2.466   2.638   5.899  0.4935  0.3690 -0.3672
14286TIP3    H164349   2.465   2.662   5.991  0.1225  0.6951 -0.4520
14286TIP3    H264350   2.526   2.564   5.894 -0.9421 -0.9007  0.4423
14287TIP3   OH264351   4.403   3.560   3.334 -0.5244 -0.6925  0.3612
14287TIP3    H164352   4.448   3.500   3.274 -0.1347 -0.8884  0.8375
14287TIP3    H264353   4.328   3.592   3.284 -0.7021 -1.5257  0.0689
14288TIP3   OH264354   1.915   6.389   4.860 -0.2097 -0.3896  0.4055
14288TIP3    H164355   1.883   6.456   4.921  2.0670  1.1799  0.0286
14288TIP3    H264356   1.839   6.368   4.805 -1.2028  1.3495  1.0362
14289TIP3   OH264357   1.862   1.122   3.197 -0.1055 -0.7038 -0.5743
14289TIP3    H164358   1.939   1.081   3.158  0.1602 -0.4755 -0.2954
14289TIP3    H264359   1.852   1.205   3.150  0.2748 -0.3818 -0.0948
14290TIP3   OH264360   1.929   1.825  16.638  0.8868 -0.2478 -0.0862
14290TIP3    H164361   2.010   1.875  16.647  0.0226  1.3505 -0.7957
14290TIP3    H264362   1.946   1.765  16.565  1.3607  0.2464 -0.3946
14291TIP3   OH264363   5.909   3.113   5.197 -0.2719  0.3072  0.0724
14291TIP3    H164364   5.988   3.064   5.175 -0.1935  0.3591  0.2338
14291TIP3    H264365   5.883   3.080   5.283 -2.1616 -1.8986 -1.2323
14292TIP3   OH264366   2.334   6.747   3.275 -0.0154 -0.3366 -0.3631
14292TIP3    H164367   2.263   6.720   3.333  0.5649 -0.0858  0.4824
14292TIP3    H264368   2.346   6.672   3.216 -1.2802 -0.1940 -0.8298
14293TIP3   OH264369   0.622   5.123  10.759 -0.2385  0.6813 -0.2430
14293TIP3    H164370   0.528   5.121  10.741 -0.3255  1.0524  0.1674
14293TIP3    H264371   0.656   5.194  10.705 -0.1096  0.2191 -0.7774
14294TIP3   OH264372   1.413   4.395   3.727  0.1220 -0.4676 -0.0966
14294TIP3    H164373   1.421   4.422   3.635 -1.0072  0.3195  0.0084
14294TIP3    H264374   1.365   4.312   3.723 -2.9289  1.1302 -0.1487
14295TIP3   OH264375   3.228   2.469   1.695  0.8045 -0.7151 -0.4473
14295TIP3    H164376   3.267   2.410   1.631  0.5662 -1.9994  0.5484
14295TIP3    H264377   3.294   2.479   1.763  1.3394  1.2265 -1.2001
14296TIP3   OH264378   0.481   1.786  11.738 -0.2258 -0.1706  0.4226
14296TIP3    H164379   0.552   1.723  11.724  1.0479  1.2459  0.1992
14296TIP3    H264380   0.448   1.804  11.650  1.2380  1.4336  0.1367
14297TIP3   OH264381   4.758   4.198   6.279 -0.1077  0.3291  0.4787
14297TIP3    H164382   4.698   4.271   6.267 -0.5835 -0.2683 -0.9414
14297TIP3    H264383   4.737   4.137   6.208  1.6294 -0.2635  0.4188
14298TIP3   OH264384   1.562   6.595   3.338 -0.1300 -0.6784  0.0490
14298TIP3    H164385   1.629   6.556   3.282  0.5571  1.6289 -0.8864
14298TIP3    H264386   1.589   6.572   3.427  2.2018  0.4774 -0.2690
14299TIP3   OH264387   3.647   4.299  11.793  0.0007 -0.2801 -0.3316
14299TIP3    H164388   3.694   4.357  11.853  1.2511 -1.2046 -0.3721
14299TIP3    H264389   3.685   4.213  11.809  1.3420 -0.3818 -3.3502
14300TIP3   OH264390   4.582   6.192   1.100  0.1071  0.6791 -0.2687
14300TIP3    H164391   4.499   6.159   1.135 -1.6678  2.7357 -2.2145
14300TIP3    H264392   4.646   6.173   1.168 -1.6107 -2.3782  0.6797
14301TIP3   OH264393   0.915   2.078   2.231 -0.4636  0.1263  0.4730
14301TIP3    H164394   0.839   2.032   2.266 -0.4984  0.5145  0.9009
14301TIP3    H264395   0.965   2.009   2.186 -2.7692  0.3705 -2.8749
14302TIP3   OH264396   4.468   4.103  13.546  0.2802  0.2950 -0.3877
14302TIP3    H164397   4.542   4.145  13.503  1.0484 -1.6530 -1.0914
14302TIP3    H264398   4.504   4.072  13.630 -0.7818  2.6267  1.0395
14303TIP3   OH264399   2.586   1.700   2.253 -0.0497 -0.2738  0.0192
14303TIP3    H164400   2.605   1.611   2.224  2.2421 -0.4886  1.8781
14303TIP3    H264401   2.509   1.691   2.310 -0.6755 -0.8021 -0.8788
14304TIP3   OH264402   2.564   3.429   4.470 -0.0470  0.2004  0.3462
14304TIP3    H164403   2.548   3.519   4.442  2.4359  0.5950 -0.0031
14304TIP3    H264404   2.587   3.382   4.390  0.6176 -0.2511  0.7936
14305TIP3   OH264405   0.189   0.251  13.104  0.2676 -0.7390 -0.1690
14305TIP3    H164406   0.256   0.183  13.114  1.2719  0.3262  0.6540
14305TIP3    H264407   0.111   0.215  13.145  0.9251 -1.2247  0.6791
14306TIP3   OH264408   4.874   1.836  13.408 -0.7541  0.1101 -0.0988
14306TIP3    H164409   4.872   1.812  13.501 -0.0187  0.7867  0.1056
14306TIP3    H264410   4.950   1.790  13.373  0.0938  1.3009  0.0830
14307TIP3   OH264411   5.228   4.908  14.671  0.8336  0.1863  0.5603
14307TIP3    H164412   5.195   4.835  14.723  2.3579 -0.3393  0.8536
14307TIP3    H264413   5.323   4.897  14.672  1.0258  1.4749 -0.4375
14308TIP3   OH264414   6.461   0.144  13.721 -0.1489 -0.0759  0.4072
14308TIP3    H164415   6.466   0.234  13.687 -0.2679 -0.1155  0.2812
14308TIP3    H264416   6.367   0.130  13.734 -0.0717  0.1128  1.2263
14309TIP3   OH264417   0.141   5.435  14.348 -0.6294  0.0629  0.1038
14309TIP3    H164418   0.213   5.479  14.393 -1.2290  0.4348  0.7090
14309TIP3    H264419   0.169   5.344  14.340  0.0729  0.2838 -0.0178
14310TIP3   OH264420   1.427   0.800  11.548  0.1348 -0.5608  0.3258
14310TIP3    H164421   1.437   0.844  11.463 -0.5766 -0.6758  0.1755
14310TIP3    H264422   1.438   0.870  11.612 -0.1116 -0.3200  0.1094
14311TIP3   OH264423   1.219   4.967  11.490  0.0487  0.6854  0.3225
14311TIP3    H164424   1.265   4.884  11.504  0.2202  0.4176 -1.5945
14311TIP3    H264425   1.269   5.032  11.539  1.5407  0.1216 -0.4086
14312TIP3   OH264426   0.633   1.630   5.292 -0.5548 -0.8639  0.2169
14312TIP3    H164427   0.708   1.592   5.338  0.4398 -0.8283 -1.3028
14312TIP3    H264428   0.670   1.665   5.211 -1.8893  0.9661  0.3390
14313TIP3   OH264429   6.306   1.518   5.020 -0.0420  0.2833 -0.2200
14313TIP3    H164430   6.383   1.525   5.076  0.1983 -0.6773 -0.4017
14313TIP3    H264431   6.338   1.543   4.933  0.3222 -0.9793 -0.4796
14314TIP3   OH264432   1.798   2.914  12.995 -0.4267 -0.0541 -0.0914
14314TIP3    H164433   1.877   2.954  12.961 -0.8805 -0.2487 -1.4228
14314TIP3    H264434   1.779   2.842  12.935 -1.4022 -0.2539  0.4245
14315TIP3   OH264435   1.577   4.309  12.271 -0.4312 -0.1936  0.5118
14315TIP3    H164436   1.582   4.215  12.253 -1.1397 -0.2503  0.5574
14315TIP3    H264437   1.584   4.350  12.185 -0.9302 -0.3306  0.4019
14316TIP3   OH264438   4.604   3.591  14.136 -0.5924  0.3738 -0.0904
14316TIP3    H164439   4.647   3.550  14.061  0.5515  1.3435  0.0071
14316TIP3    H264440   4.674   3.637  14.182 -1.0355 -1.1424  2.2668
14317TIP3   OH264441   1.437   2.590  16.804  0.1949 -0.1792 -0.1687
14317TIP3    H164442   1.384   2.656  16.761 -0.0949 -0.3925 -0.1404
14317TIP3    H264443   1.497   2.639  16.860  1.8777  0.2317 -2.2179
14318TIP3   OH264444   2.702   2.127   0.093  0.6481 -0.6601  0.6887
14318TIP3    H164445   2.655   2.043   0.089  1.0156 -0.9146  1.4729
14318TIP3    H264446   2.711   2.145   0.187 -0.1479  0.6795  0.5349
14319TIP3   OH264447   3.829   2.682   1.215 -0.5527 -0.2651 -0.0974
14319TIP3    H164448   3.760   2.737   1.178 -1.5543 -1.3331  0.1045
14319TIP3    H264449   3.786   2.636   1.287  0.8940  0.4569  1.2867
14320TIP3   OH264450   1.533   4.874   1.141  0.5061 -0.4767  0.2629
14320TIP3    H164451   1.446   4.913   1.139  0.2984 -0.9696 -0.9621
14320TIP3    H264452   1.585   4.935   1.193 -0.7359 -0.5612  1.6482
14321TIP3   OH264453   5.189   2.993   2.313  0.4522  0.1737  0.1744
14321TIP3    H164454   5.210   2.903   2.288 -0.8944  0.1531 -1.0102
14321TIP3    H264455   5.212   2.997   2.406 -0.1627 -1.6227  0.4539
14322TIP3   OH264456   4.901   5.901  11.286  0.4218  0.0966 -0.5932
14322TIP3    H164457   4.931   5.934  11.201  0.3357 -0.8349 -0.9950
14322TIP3    H264458   4.982   5.874  11.331  0.7862  3.0761  0.7616
14323TIP3   OH264459   1.051   1.624   4.783 -0.2248 -0.3368 -0.0157
14323TIP3    H164460   1.143   1.647   4.771 -0.8906  1.5906 -2.3584
14323TIP3    H264461   1.049   1.576   4.866  2.9305 -0.9737 -0.1587
14324TIP3   OH264462   4.316   6.048  15.112  0.2906  0.2894 -0.0150
14324TIP3    H164463   4.307   6.004  15.027  1.6341 -0.2427  0.0916
14324TIP3    H264464   4.362   5.985  15.167 -2.0566 -0.0725  1.7019
14325TIP3   OH264465   0.172   1.847   0.508  0.4586  0.6768 -0.2915
14325TIP3    H164466   0.158   1.761   0.548 -0.5499  1.2513  0.6135
14325TIP3    H264467   0.211   1.827   0.423 -0.3477 -0.7121 -0.3613
14326TIP3   OH264468   6.342   2.258  14.539 -0.1343  0.1837 -0.0267
14326TIP3    H164469   6.276   2.206  14.586 -0.5045  0.7765  0.1285
14326TIP3    H264470   6.325   2.348  14.567  1.1974  0.2795  0.5597
14327TIP3   OH264471   3.421   0.702  13.276  0.0991 -0.4365 -0.1216
14327TIP3    H164472   3.384   0.787  13.299 -0.8455 -0.4783 -1.3510
14327TIP3    H264473   3.401   0.645  13.350  1.7114  0.6467  1.2135
14328TIP3   OH264474   6.117   2.231  15.249 -0.0441  0.1053 -0.1184
14328TIP3    H164475   6.021   2.239  15.245  0.0623  0.9921 -1.7116
14328TIP3    H264476   6.149   2.317  15.222  1.2102 -0.4719 -0.5523
14329TIP3   OH264477   2.395   4.315  16.391  0.6219  0.4373  0.1798
14329TIP3    H164478   2.453   4.285  16.461  0.5695  0.8271  0.3933
14329TIP3    H264479   2.392   4.242  16.330  2.6426  0.9735 -0.6703
14330TIP3   OH264480   4.469   0.494   4.167  0.3240  0.0180  0.0562
14330TIP3    H164481   4.513   0.517   4.249 -0.1344  0.3771  0.2047
14330TIP3    H264482   4.379   0.475   4.194 -0.3596  2.0578 -0.6160
14331TIP3   OH264483   2.562   3.477  12.511  0.4472  0.2831 -0.5086
14331TIP3    H164484   2.568   3.411  12.581  0.4897  1.4096  0.5729
14331TIP3    H264485   2.639   3.533  12.524 -0.2726  1.3130 -0.6253
14332TIP3   OH264486   6.858   1.568   0.915  0.3329 -0.0397  0.2931
14332TIP3    H164487   6.785   1.581   0.855  1.6314 -1.0317 -1.6294
14332TIP3    H264488   6.867   1.473   0.923  1.0511  0.0676  0.9691
14333TIP3   OH264489   2.751   6.374   2.151  0.4012  0.3882 -0.3094
14333TIP3    H164490   2.771   6.282   2.133 -0.5907 -0.0161  0.5241
14333TIP3    H264491   2.707   6.405   2.071 -0.0862 -0.1350 -0.2544
14334TIP3   OH264492   3.955   3.243   1.625 -0.2898 -0.3633  0.0107
14334TIP3    H164493   3.876   3.188   1.631  1.0295 -2.4044 -0.2417
14334TIP3    H264494   3.930   3.315   1.567 -1.7965 -1.2669 -0.5347
14335TIP3   OH264495   2.123   0.311   4.076  0.7119 -0.0089 -0.7837
14335TIP3    H164496   2.087   0.346   3.994  2.5471  1.1236 -1.1705
14335TIP3    H264497   2.203   0.265   4.049  2.6552  2.3503  0.4643
14336TIP3   OH264498   6.736   2.449   1.425 -0.2928 -0.0998 -0.3403
14336TIP3    H164499   6.823   2.435   1.388  0.2778 -0.8193  1.1722
14336TIP3    H264500   6.682   2.381   1.385 -0.1971  0.4152 -1.3679
14337TIP3   OH264501   6.248   0.513  12.171 -0.1193 -0.4171  0.6004
14337TIP3    H164502   6.250   0.592  12.225  0.1850 -0.3815  0.5392
14337TIP3    H264503   6.228   0.545  12.083  1.5618 -0.2178  0.2599
14338TIP3   OH264504   5.160   5.976   1.959 -0.2076 -0.1554 -0.4133
14338TIP3    H164505   5.228   6.006   2.019  0.1562  2.3180 -1.8908
14338TIP3    H264506   5.185   6.012   1.874 -2.9499  0.2529 -1.1618
14339TIP3   OH264507   5.738   6.305   5.395 -0.3960  0.4125  0.2596
14339TIP3    H164508   5.806   6.242   5.374 -0.7054  0.4199 -0.8572
14339TIP3    H264509   5.656   6.257   5.381 -0.6407  0.3888  1.6250
14340TIP3   OH264510   2.456   4.587   1.461 -0.2698 -0.0654 -0.3848
14340TIP3    H164511   2.547   4.614   1.446 -0.7399  1.2369 -0.9655
14340TIP3    H264512   2.462   4.523   1.533  1.1324 -0.2616 -0.6397
14341TIP3   OH264513   2.160   5.064  13.778 -0.1681 -0.1730  0.0709
14341TIP3    H164514   2.159   5.028  13.689  0.3458 -0.1231  0.0430
14341TIP3    H264515   2.087   5.126  13.779 -0.4240 -0.4642 -0.1947
14342TIP3   OH264516   5.866   2.325   3.741 -0.0318 -0.2084 -0.3701
14342TIP3    H164517   5.882   2.233   3.766 -0.9912 -0.3491 -0.2535
14342TIP3    H264518   5.933   2.374   3.789  1.1762 -0.9407 -1.2636
14343TIP3   OH264519   3.048   1.923  14.094  0.2891  0.0008 -0.1073
14343TIP3    H164520   2.974   1.967  14.052  0.1246 -1.3632 -1.2849
14343TIP3    H264521   3.120   1.930  14.031  0.2907 -1.2971 -0.2685
14344TIP3   OH264522   6.609   1.741   5.446 -0.1909  0.4595 -0.0115
14344TIP3    H164523   6.632   1.814   5.389  0.7666  1.7693  1.9477
14344TIP3    H264524   6.514   1.738   5.444 -0.2481  1.7533 -0.1769
14345TIP3   OH264525   1.279   4.768   2.148  0.1085  0.1742 -0.2149
14345TIP3    H164526   1.350   4.707   2.168 -0.0567  0.3964  1.1976
14345TIP3    H264527   1.319   4.836   2.094  1.2730  0.8438  1.3946
14346TIP3   OH264528   5.522   6.550   1.068  0.3004  0.2099  0.0078
14346TIP3    H164529   5.446   6.607   1.072 -1.3786 -1.9097 -0.3412
14346TIP3    H264530   5.538   6.526   1.159  0.4223  0.4490  0.0524
14347TIP3   OH264531   3.879   6.277  16.050 -0.4795 -0.7888 -0.2360
14347TIP3    H164532   3.876   6.243  16.139  0.1168 -1.8198 -0.5791
14347TIP3    H264533   3.972   6.288  16.032 -0.6318  2.6294  0.3814
14348TIP3   OH264534   5.655   5.037  11.395  0.0402  0.0371  0.0954
14348TIP3    H164535   5.603   5.111  11.426  2.3304  2.0983 -0.6960
14348TIP3    H264536   5.593   4.983  11.347 -2.4536 -0.4695  3.5354
14349TIP3   OH264537   5.442   3.664  15.372 -0.6630 -0.2095  1.1179
14349TIP3    H164538   5.401   3.660  15.286  0.2867 -1.9676  0.7140
14349TIP3    H264539   5.380   3.621  15.431 -1.2868  0.9437  1.3542
14350TIP3   OH264540   5.200   3.390   5.945  0.0913  0.2309 -0.4602
14350TIP3    H164541   5.174   3.462   5.887 -2.0584 -0.9919 -1.1285
14350TIP3    H264542   5.252   3.432   6.014 -1.9805  2.6189 -0.2205
14351TIP3   OH264543   1.888   0.041  15.891  0.8683  0.2332 -0.3488
14351TIP3    H164544   1.880   0.063  15.984  1.5870  1.7791 -0.6178
14351TIP3    H264545   1.912   0.124  15.849  2.4625 -0.8207 -1.6419
14352TIP3   OH264546   6.842   5.135   6.100 -0.0947  0.1809  0.4260
14352TIP3    H164547   6.841   5.044   6.128  0.6629  0.5258  1.6419
14352TIP3    H264548   6.822   5.132   6.006 -2.2435 -1.0457  0.8809
14353TIP3   OH264549   3.981   1.231   5.290 -1.1163  0.0264  0.0172
14353TIP3    H164550   3.943   1.231   5.202 -0.2177  2.0693 -0.4441
14353TIP3    H264551   3.909   1.207   5.348 -2.3571  0.9408 -1.0923
14354TIP3   OH264552   4.589   4.698   3.755 -0.5513 -0.3350 -0.2314
14354TIP3    H164553   4.527   4.770   3.745 -1.0719 -0.8578 -0.7948
14354TIP3    H264554   4.605   4.693   3.849 -0.2001  0.7693 -0.2112
14355TIP3   OH264555   5.631   5.781   5.751 -0.3366 -0.0885 -0.2080
14355TIP3    H164556   5.711   5.730   5.740 -1.2144 -1.2627 -1.4973
14355TIP3    H264557   5.570   5.721   5.794 -1.4250 -0.2510 -1.8739
14356TIP3   OH264558   5.084   2.092   0.300 -0.4000  0.5002 -0.1317
14356TIP3    H164559   5.156   2.104   0.361 -1.0160  0.2354  0.6612
14356TIP3    H264560   5.005   2.105   0.353 -0.9577 -0.4635 -0.7043
14357TIP3   OH264561   1.844   3.060  15.809  0.6457 -0.1476 -0.3064
14357TIP3    H164562   1.936   3.035  15.817  0.2597 -1.0380  2.1478
14357TIP3    H264563   1.815   3.018  15.727  2.3701  0.1090 -1.0921
14358TIP3   OH264564   0.269   6.240  14.025  0.0552 -0.1150 -0.5356
14358TIP3    H164565   0.345   6.290  13.996 -0.1967 -0.5859 -2.1200
14358TIP3    H264566   0.195   6.284  13.984 -0.5923  0.4911  1.1914
14359TIP3   OH264567   2.953   1.495  15.582 -0.0820  0.0946 -0.2069
14359TIP3    H164568   3.034   1.461  15.618 -0.5325  0.4002  1.1514
14359TIP3    H264569   2.913   1.420  15.537 -0.1501 -0.6871  1.1106
14360TIP3   OH264570   5.850   6.476   4.292 -0.1561 -0.6020 -0.1215
14360TIP3    H164571   5.931   6.425   4.298  1.2198  1.4129 -0.4983
14360TIP3    H264572   5.870   6.558   4.338 -2.3023 -0.3937  0.5423
14361TIP3   OH264573   4.309   4.590  13.321  0.1641 -0.3823 -0.1647
14361TIP3    H164574   4.363   4.543  13.384  0.5527 -0.9786 -0.9248
14361TIP3    H264575   4.340   4.681  13.325 -0.0543 -0.3451  0.7405
14362TIP3   OH264576   4.290   1.195   4.974  0.5518 -0.1304  0.2591
14362TIP3    H164577   4.206   1.229   4.943  0.6863  0.5626  0.6240
14362TIP3    H264578   4.300   1.232   5.062 -0.5633 -3.2825  1.8471
14363TIP3   OH264579   1.539   5.110   1.353  0.3646 -0.0149 -0.3212
14363TIP3    H164580   1.567   5.174   1.287 -1.5666  0.2514 -0.9418
14363TIP3    H264581   1.446   5.128   1.366  0.5077 -0.5780  1.9236
14364TIP3   OH264582   5.208   6.779   4.200  0.7716  0.4996 -0.3946
14364TIP3    H164583   5.181   6.754   4.288  1.3780 -2.5667 -0.9669
14364TIP3    H264584   5.126   6.785   4.151  0.4782  1.6321  0.1937
14365TIP3   OH264585   4.281   6.774  12.604  0.6003 -0.4942  0.3454
14365TIP3    H164586   4.232   6.761  12.523  0.9912  0.4696 -0.0574
14365TIP3    H264587   4.369   6.796  12.576  1.0576 -1.3452  1.0565
14366TIP3   OH264588   1.980   2.138  16.835 -0.2759  0.0566 -0.5593
14366TIP3    H164589   1.928   2.139  16.754 -2.2992  0.3389  0.6538
14366TIP3    H264590   1.945   2.212  16.886  1.1261  0.0420  0.4719
14367TIP3   OH264591   2.946   3.772  14.999  0.0204  0.6025 -0.4278
14367TIP3    H164592   2.882   3.746  15.065 -0.2593 -1.8503 -1.5558
14367TIP3    H264593   2.914   3.856  14.965 -1.2361  0.6010  0.6989
14368TIP3   OH264594   2.576   3.410  11.497  0.0811  0.0336 -0.5624
14368TIP3    H164595   2.657   3.367  11.524 -0.8436  0.1402  2.9318
14368TIP3    H264596   2.507   3.345  11.515 -0.8762  1.1177 -0.1913
14369TIP3   OH264597   4.187   2.680  14.947 -0.4355  0.2305 -0.1434
14369TIP3    H164598   4.120   2.690  14.880  1.7107  0.5619 -2.3871
14369TIP3    H264599   4.265   2.722  14.909  0.9535  0.2495  2.4932
14370TIP3   OH264600   2.430   5.955  14.812 -0.7939  0.5220  0.1394
14370TIP3    H164601   2.416   5.919  14.725  0.9610  0.4492 -0.1454
14370TIP3    H264602   2.351   6.007  14.830 -1.7776 -0.5644 -0.9007
14371TIP3   OH264603   6.143   5.886  15.599 -0.4181  0.1839 -0.2855
14371TIP3    H164604   6.144   5.913  15.690 -3.3023  1.9967 -0.6666
14371TIP3    H264605   6.055   5.850  15.585 -0.4701  1.0297 -2.5858
14372TIP3   OH264606   3.546   3.635  16.607 -0.0643 -0.2283 -0.0144
14372TIP3    H164607   3.618   3.694  16.632 -1.0216  0.0998  2.1422
14372TIP3    H264608   3.571   3.550  16.643 -0.1361 -0.4407 -0.4585
14373TIP3   OH264609   5.192   5.667  12.017 -0.2269  0.0345  0.5268
14373TIP3    H164610   5.230   5.613  12.086  0.5707  0.0562  0.1135
14373TIP3    H264611   5.148   5.738  12.064  0.8514  0.4041  1.0013
14374TIP3   OH264612   1.213   3.453   4.118  0.3205  0.5447 -0.3078
14374TIP3    H164613   1.216   3.543   4.149  3.7376  0.4198  0.1412
14374TIP3    H264614   1.232   3.401   4.196 -0.3136 -0.4887 -0.8221
14375TIP3   OH264615   1.546   6.289   1.380 -0.3966 -0.3321 -0.8195
14375TIP3    H164616   1.591   6.211   1.413 -2.5640 -1.0746  0.6208
14375TIP3    H264617   1.547   6.280   1.285 -1.2419 -2.5473 -0.6742
14376TIP3   OH264618   0.786   5.205   6.258  0.3121  0.1650  0.1473
14376TIP3    H164619   0.862   5.263   6.260  0.6558 -0.2901  0.6005
14376TIP3    H264620   0.717   5.254   6.304  0.7052  0.0778  0.8503
14377TIP3   OH264621   2.991   2.517  15.374 -0.3175  0.4304  0.2764
14377TIP3    H164622   2.897   2.518  15.357 -0.5372 -0.8972  1.2838
14377TIP3    H264623   3.008   2.430  15.411  1.4451  0.3251 -0.6656
14378TIP3   OH264624   0.194   5.754  15.857 -0.3142 -0.1295  0.2938
14378TIP3    H164625   0.280   5.755  15.897  0.0177  0.2829 -0.4054
14378TIP3    H264626   0.197   5.682  15.794 -0.2018  0.3929 -0.3068
14379TIP3   OH264627   0.959   6.157  16.823  0.7470  0.4037  0.7302
14379TIP3    H164628   0.917   6.220  16.764  1.1019  0.3448  0.4043
14379TIP3    H264629   0.964   6.202  16.907 -2.6964 -0.6628  1.6622
14380TIP3   OH264630   3.772   1.971  11.748 -0.0826  0.1652  0.2519
14380TIP3    H164631   3.730   1.887  11.729  0.8292 -0.4004  0.6340
14380TIP3    H264632   3.704   2.023  11.790 -0.0264 -1.2593  2.2840
14381TIP3   OH264633   4.548   4.110  14.548  0.1545 -0.7743  0.3012
14381TIP3    H164634   4.463   4.152  14.563  0.0120 -1.0441  0.2634
14381TIP3    H264635   4.598   4.128  14.627  0.9560  1.4836 -0.6448
14382TIP3   OH264636   1.890   0.003  11.013  0.0896 -0.3919 -0.5534
14382TIP3    H164637   1.880  -0.051  10.935  2.0606  0.1188 -1.2156
14382TIP3    H264638   1.979   0.037  11.007  0.1465 -0.0004  1.7063
14383TIP3   OH264639   5.587   3.253  15.656  0.4255  0.3042 -0.2426
14383TIP3    H164640   5.676   3.286  15.662 -0.1205  1.8933 -0.4274
14383TIP3    H264641   5.545   3.281  15.737 -1.0319  3.3155 -1.8634
14384TIP3   OH264642   1.920   6.109   6.405  0.3576 -0.1886 -0.0019
14384TIP3    H164643   1.913   6.170   6.331  1.3262 -3.0266 -2.6173
14384TIP3    H264644   1.836   6.119   6.452 -0.7349  1.0062 -2.0579
14385TIP3   OH264645   1.911   1.324  15.309 -0.2412 -0.3292 -0.1104
14385TIP3    H164646   1.916   1.257  15.377 -1.7543 -0.2810  0.0789
14385TIP3    H264647   2.002   1.339  15.283  0.2904 -0.9466  1.3142
14386TIP3   OH264648   0.207   3.601  16.166  0.0638 -0.2362 -0.8006
14386TIP3    H164649   0.171   3.656  16.096 -1.9395  0.0047  0.3254
14386TIP3    H264650   0.222   3.661  16.239 -1.9921 -1.0590  0.3891
14387TIP3   OH264651   0.586   3.819   2.507  0.9613 -0.1433  0.0375
14387TIP3    H164652   0.587   3.860   2.593 -2.5653  1.1634 -0.3812
14387TIP3    H264653   0.583   3.725   2.525 -0.3192  0.1313  1.4027
14388TIP3   OH264654   2.994   1.354   4.146  0.4400 -0.1550  0.4244
14388TIP3    H164655   3.042   1.281   4.108  0.2066  0.9787 -2.2649
14388TIP3    H264656   2.902   1.336   4.125  0.0628 -0.3577  2.0887
14389TIP3   OH264657   4.854   0.802   1.330  0.4737  0.7002  0.1635
14389TIP3    H164658   4.776   0.843   1.293  0.1565  0.1890  0.2566
14389TIP3    H264659   4.868   0.848   1.413  0.8870  1.5018 -0.3370
14390TIP3   OH264660   4.908   5.590  11.960 -0.9015  0.3767  0.9130
14390TIP3    H164661   4.976   5.539  11.916 -0.9110  0.1041  1.2076
14390TIP3    H264662   4.947   5.678  11.970 -1.0895  0.5801 -0.0748
14391TIP3   OH264663   2.911   2.031  11.819  0.4748 -0.3131  0.3504
14391TIP3    H164664   2.837   2.059  11.874 -0.2791 -0.7985 -0.3824
14391TIP3    H264665   2.879   2.044  11.730  1.0082 -1.2208  0.0226
14392TIP3   OH264666   2.862   5.838  10.841  0.2821  0.1766  0.0647
14392TIP3    H164667   2.820   5.920  10.867 -1.2612 -1.1205  2.0129
14392TIP3    H264668   2.792   5.786  10.803  0.3307 -1.5153  2.0886
14393TIP3   OH264669   1.081   5.696  11.563 -0.5931 -0.2363 -0.2469
14393TIP3    H164670   1.079   5.778  11.612 -0.1158 -0.5152  0.2619
14393TIP3    H264671   1.148   5.644  11.607 -1.4785 -1.2289 -0.0397
14394TIP3   OH264672   0.951   3.056   3.529  0.5565 -0.0622  0.4669
14394TIP3    H164673   0.905   3.021   3.453 -2.1014  2.2487  0.8548
14394TIP3    H264674   1.021   3.110   3.492 -1.1474  1.6239 -0.4702
14395TIP3   OH264675   3.760   3.807   0.075 -0.1218 -0.0201  0.1720
14395TIP3    H164676   3.855   3.798   0.079  0.0315  0.5101 -1.6723
14395TIP3    H264677   3.727   3.718   0.091  0.7206 -0.4350 -0.3041
14396TIP3   OH264678   0.334   1.831  14.590 -0.3380  0.2808 -0.5962
14396TIP3    H164679   0.375   1.814  14.505  0.5503 -1.1952  0.0917
14396TIP3    H264680   0.378   1.910  14.622  0.3045  0.0536 -0.9042
14397TIP3   OH264681   4.925   6.319   0.492 -0.3388 -0.8247  0.1475
14397TIP3    H164682   4.882   6.240   0.526  1.6600 -0.9364  2.7468
14397TIP3    H264683   4.912   6.384   0.561  0.3734  0.2937 -0.7492
14398TIP3   OH264684   5.183   0.077  12.524 -0.0739 -0.0582  0.3534
14398TIP3    H164685   5.122   0.016  12.484  0.7549 -0.7474  0.1096
14398TIP3    H264686   5.188   0.050  12.616 -0.0865 -0.0419  0.3588
14399TIP3   OH264687   6.208   6.649  16.248 -0.1523  0.3234 -0.6256
14399TIP3    H164688   6.143   6.717  16.230  0.6518  0.7836 -1.9509
14399TIP3    H264689   6.178   6.573  16.197  0.4846  0.6284 -1.4688
14400TIP3   OH264690   4.506   1.553   5.211  0.6162  0.4766 -0.0519
14400TIP3    H164691   4.577   1.533   5.151  0.6079 -0.0255  0.1048
14400TIP3    H264692   4.509   1.648   5.221  1.0367  0.4918 -0.3246
14401TIP3   OH264693   5.459   2.645  10.426 -0.3216 -1.0732  0.1329
14401TIP3    H164694   5.489   2.577  10.487  1.7654 -0.5684 -0.2423
14401TIP3    H264695   5.422   2.596  10.352 -0.9240 -1.7350  0.8516
14402TIP3   OH264696   5.898   2.683  13.874  0.0184 -0.2266 -0.5825
14402TIP3    H164697   5.959   2.619  13.910 -0.5255 -0.5346 -0.2013
14402TIP3    H264698   5.870   2.735  13.949 -2.5354 -2.0411 -0.1629
14403TIP3   OH264699   2.565   2.012  10.700  0.2273  0.8975 -0.2746
14403TIP3    H164700   2.637   2.072  10.722  1.4864 -0.4223 -0.6519
14403TIP3    H264701   2.575   1.996  10.606 -0.3275  0.3784 -0.2504
14404TIP3   OH264702   0.219   4.848  11.874 -0.2149 -0.2257 -0.4703
14404TIP3    H164703   0.147   4.838  11.937  0.7949 -1.6336  0.5133
14404TIP3    H264704   0.177   4.843  11.788 -1.1559 -2.8125  0.0446
14405TIP3   OH264705   5.396   5.723   6.151 -0.3630 -0.5626 -0.1078
14405TIP3    H164706   5.436   5.726   6.238  1.9717 -0.1645 -1.1142
14405TIP3    H264707   5.431   5.643   6.111 -0.8446 -0.3690 -0.9463
14406TIP3   OH264708   4.908   5.050  13.641 -0.4116  0.0036  0.0863
14406TIP3    H164709   4.952   4.985  13.696 -1.1757 -0.4730  0.1558
14406TIP3    H264710   4.850   4.998  13.584 -0.7702  0.5954 -0.1002
14407TIP3   OH264711   2.679   6.226  13.119 -0.0164  0.1832  0.1129
14407TIP3    H164712   2.730   6.281  13.179  2.1919 -0.9224 -0.6235
14407TIP3    H264713   2.717   6.139  13.128 -0.0591 -0.1694 -2.3428
14408TIP3   OH264714   6.831   2.927   4.806 -0.9148 -0.1369 -0.2223
14408TIP3    H164715   6.886   2.956   4.733  1.0907  1.8794  1.9539
14408TIP3    H264716   6.871   2.845   4.836  1.5576  1.6876  1.8156
14409TIP3   OH264717   3.628   6.122  14.582 -0.2569  0.0312  0.2488
14409TIP3    H164718   3.703   6.103  14.525  1.1637  1.6308  1.5033
14409TIP3    H264719   3.552   6.094  14.530  1.0648 -0.0864 -1.7540
14410TIP3   OH264720   0.031   1.254   3.431 -0.0751 -0.3667  0.1002
14410TIP3    H164721  -0.061   1.281   3.440  0.2433  0.4740  0.9553
14410TIP3    H264722   0.035   1.169   3.473 -0.4368 -0.3573  0.1636
14411TIP3   OH264723   3.818   2.354  11.804 -0.2137  0.2236  0.0013
14411TIP3    H164724   3.833   2.300  11.881  0.0932  1.5299  0.8943
14411TIP3    H264725   3.740   2.405  11.825 -1.8292 -1.3880 -1.7214
14412TIP3   OH264726   1.278   3.544  12.554 -0.0770  0.2639  0.1179
14412TIP3    H164727   1.197   3.524  12.507  0.0858  0.1144 -0.1031
14412TIP3    H264728   1.272   3.492  12.634 -0.8768  1.4010  0.8087
14413TIP3   OH264729   4.003   1.647   1.072 -0.0768 -0.3111  0.4504
14413TIP3    H164730   3.974   1.738   1.074 -2.8569 -1.0931  0.5168
14413TIP3    H264731   3.949   1.603   1.138  2.2605 -1.7781  1.5142
14414TIP3   OH264732   5.352   2.514   1.975 -0.1110  0.5668 -0.2548
14414TIP3    H164733   5.360   2.609   1.965  0.7377  0.4261 -1.1600
14414TIP3    H264734   5.366   2.480   1.886  0.0253 -0.4191  0.1358
14415TIP3   OH264735   6.757   5.283   1.005  0.2356  0.1584  0.2618
14415TIP3    H164736   6.743   5.213   1.069  2.2492  0.4606  1.1271
14415TIP3    H264737   6.852   5.297   1.006  0.0198  2.0253 -0.8322
14416TIP3   OH264738   4.460   4.800  16.927 -0.4805  0.0130  0.4090
14416TIP3    H164739   4.465   4.717  16.976  0.7764 -0.2051 -0.0498
14416TIP3    H264740   4.475   4.775  16.836  1.3831  0.8875  0.4362
14417TIP3   OH264741   6.058   2.859   0.377  1.1398  0.3384 -0.1265
14417TIP3    H164742   6.021   2.774   0.399 -0.2481  0.7715 -0.6732
14417TIP3    H264743   5.982   2.915   0.360  1.9994  1.8484  0.7473
14418TIP3   OH264744   0.472   2.556  10.757  0.4478 -0.0872 -0.9761
14418TIP3    H164745   0.554   2.566  10.804  0.5813 -0.2466 -1.1762
14418TIP3    H264746   0.488   2.598  10.672 -0.0298  0.8741 -0.6027
14419TIP3   OH264747   2.320   5.900   0.041  0.1714  0.5086 -0.1764
14419TIP3    H164748   2.354   5.837   0.104 -0.4595  1.3624  1.0565
14419TIP3    H264749   2.389   5.908  -0.025  1.6499  0.9331  1.3558
14420TIP3   OH264750   5.887   2.406  15.320 -0.3343  0.4114  0.0187
14420TIP3    H164751   5.928   2.485  15.355 -0.5190  1.0894 -1.2621
14420TIP3    H264752   5.829   2.377  15.390  0.7748  0.6003  1.0534
14421TIP3   OH264753   1.300   4.878   4.859  0.3527 -0.4134 -0.2921
14421TIP3    H164754   1.353   4.816   4.811  0.4009 -2.4990  2.2177
14421TIP3    H264755   1.212   4.869   4.821  1.1700  1.2168 -2.7733
14422TIP3   OH264756   1.680   4.505  11.395 -0.2054  0.1417 -0.1600
14422TIP3    H164757   1.749   4.529  11.332 -1.0989  0.3164 -1.0995
14422TIP3    H264758   1.655   4.588  11.435  0.2163  0.0578  0.2973
14423TIP3   OH264759   0.774   0.528  14.380 -0.1560 -0.5041 -0.2143
14423TIP3    H164760   0.755   0.620  14.395 -2.6973 -0.7852 -1.2454
14423TIP3    H264761   0.732   0.507  14.297  1.6603 -2.2661 -0.7839
14424TIP3   OH264762   1.293   2.744   0.398  0.4655  0.3125 -0.5954
14424TIP3    H164763   1.256   2.767   0.313 -0.5491 -1.9709 -0.8669
14424TIP3    H264764   1.220   2.702   0.444  1.6821 -0.8197  0.3629
14425TIP3   OH264765   0.779   3.754  14.479 -0.0109 -0.5563 -0.3241
14425TIP3    H164766   0.717   3.763  14.551  2.4038 -0.7980  1.9500
14425TIP3    H264767   0.831   3.677  14.500  1.4107 -0.0887 -1.8276
14426TIP3   OH264768   1.949   3.732   3.427  0.1400 -0.1385  0.4287
14426TIP3    H164769   1.928   3.711   3.336  0.0892  3.2451 -0.4812
14426TIP3    H264770   2.044   3.745   3.427  0.1577 -0.2499  0.8958
14427TIP3   OH264771   0.120   2.249  14.199 -0.0288  0.0770  0.4533
14427TIP3    H164772   0.172   2.231  14.120 -0.3160  1.0358  0.0399
14427TIP3    H264773   0.032   2.221  14.176  0.0321 -0.3150  0.6928
14428TIP3   OH264774   3.480   2.310  15.812  0.2823 -0.2599  0.1521
14428TIP3    H164775   3.476   2.282  15.903  0.2968 -0.7335  0.0079
14428TIP3    H264776   3.393   2.290  15.776  0.0087  0.6472  0.2618
14429TIP3   OH264777   4.772   4.737  14.970  0.4858 -0.0302 -0.2598
14429TIP3    H164778   4.768   4.661  14.912  0.0497  0.1311 -0.4423
14429TIP3    H264779   4.737   4.809  14.918 -1.3654 -0.1920  0.6914
14430TIP3   OH264780   0.120   6.644  13.221 -0.5854 -0.3840  0.1723
14430TIP3    H164781   0.203   6.677  13.188 -1.3686  0.2185 -1.2750
14430TIP3    H264782   0.096   6.705  13.292 -0.3829  0.1602 -0.2236
14431TIP3   OH264783   6.876   0.045   5.508  0.0567  0.5452 -0.5115
14431TIP3    H164784   6.942  -0.024   5.505  0.2300  0.6352  0.5728
14431TIP3    H264785   6.921   0.122   5.474  0.6458  0.6875  0.5342
14432TIP3   OH264786   6.744   2.462  13.337  0.0827 -0.1582 -0.4743
14432TIP3    H164787   6.832   2.477  13.373  1.6338 -2.2885 -3.0122
14432TIP3    H264788   6.711   2.386  13.386  0.6736 -0.7942 -1.0303
14433TIP3   OH264789   3.684   6.047  12.426  0.3680 -0.0928 -0.0511
14433TIP3    H164790   3.640   6.132  12.425 -0.1207 -0.3354 -1.1939
14433TIP3    H264791   3.716   6.035  12.337  0.4629 -1.0870  0.0988
14434TIP3   OH264792   2.481   4.964   0.545 -0.2132  0.1656 -0.4196
14434TIP3    H164793   2.473   4.873   0.519  0.4171  0.0115 -0.0845
14434TIP3    H264794   2.414   5.009   0.494 -1.2470 -0.6316  0.2038
14435TIP3   OH264795   5.517   1.203   3.697  0.4428 -0.4183  0.7073
14435TIP3    H164796   5.491   1.244   3.614  0.9910 -0.1851  0.6442
14435TIP3    H264797   5.500   1.270   3.763 -0.7700 -0.8923  0.9038
14436TIP3   OH264798   2.426   4.077   5.186  0.2358  0.2338  0.0709
14436TIP3    H164799   2.455   4.160   5.150  0.0444  0.6569  0.8714
14436TIP3    H264800   2.424   4.091   5.280 -2.4722  0.2450  0.1016
14437TIP3   OH264801   5.323   6.616  12.783 -0.4814 -0.1316 -0.6587
14437TIP3    H164802   5.380   6.539  12.786 -1.2973 -0.7504  0.0032
14437TIP3    H264803   5.266   6.601  12.707 -1.4123 -0.8001  0.1310
14438TIP3   OH264804   3.541   0.065   4.097  0.1502 -0.0164 -0.0940
14438TIP3    H164805   3.525  -0.015   4.147 -1.8451 -0.0837 -0.7456
14438TIP3    H264806   3.456   0.110   4.095  0.8961  1.4428 -0.9060
14439TIP3   OH264807   0.665   3.147  13.808  0.3496 -0.2212  0.0414
14439TIP3    H164808   0.624   3.151  13.894 -2.4444  1.8400 -1.2056
14439TIP3    H264809   0.598   3.107  13.752  1.4020  0.0509 -1.4765
14440TIP3   OH264810   2.027   3.460  14.851 -0.0939  0.2242 -0.3902
14440TIP3    H164811   1.951   3.403  14.861 -1.7839  1.5317 -4.0859
14440TIP3    H264812   2.070   3.430  14.771  1.6956  1.3043  0.0874
14441TIP3   OH264813   4.937   0.415   3.738  0.2685 -0.2967 -0.6553
14441TIP3    H164814   4.933   0.510   3.741 -0.1886 -0.2518 -2.0492
14441TIP3    H264815   4.906   0.392   3.651 -0.6367 -1.7878  0.0193
14442TIP3   OH264816   3.177   0.934   0.299 -0.5276 -0.5586 -0.7953
14442TIP3    H164817   3.213   0.863   0.246  0.3756  0.2746 -1.3515
14442TIP3    H264818   3.094   0.956   0.257 -0.0402 -0.2173 -1.6076
14443TIP3   OH264819   0.874   0.661  10.151 -0.3959  0.5444 -0.0248
14443TIP3    H164820   0.912   0.696  10.071 -0.0141  1.6973  0.6306
14443TIP3    H264821   0.928   0.698  10.221 -2.7870  2.3898  0.9643
14444TIP3   OH264822   6.205   1.391  12.721  0.3774 -0.0092 -0.1263
14444TIP3    H164823   6.150   1.314  12.734  0.0482 -0.2887 -2.7265
14444TIP3    H264824   6.247   1.405  12.806 -0.3757 -2.3871  0.7051
14445TIP3   OH264825   4.374   1.200  12.036  0.6289  0.0766 -0.4743
14445TIP3    H164826   4.385   1.227  12.127  3.9490 -1.6417 -0.2136
14445TIP3    H264827   4.369   1.105  12.040  0.2668 -0.0000 -2.0812
14446TIP3   OH264828   0.778   6.135   0.937  0.5689 -0.1379 -0.2730
14446TIP3    H164829   0.746   6.046   0.955 -0.3941 -0.1097 -1.6621
14446TIP3    H264830   0.871   6.123   0.917  1.2761 -0.3739  2.6706
14447TIP3   OH264831   2.411   3.352  14.291 -0.5832 -0.2152 -0.0122
14447TIP3    H164832   2.348   3.291  14.330 -0.5090  1.1562  2.4382
14447TIP3    H264833   2.492   3.336  14.339  0.0597  0.2734 -0.9033
14448TIP3   OH264834   6.188   0.886  16.153 -0.7057  0.4139  0.2146
14448TIP3    H164835   6.107   0.927  16.182 -0.5241  0.8966  0.0473
14448TIP3    H264836   6.254   0.954  16.162 -0.2478 -0.0786  0.6847
14449TIP3   OH264837   1.903   6.768   2.767 -0.0923  0.3427  0.2643
14449TIP3    H164838   1.979   6.778   2.824  0.5361 -0.4890 -0.3955
14449TIP3    H264839   1.937   6.784   2.679 -0.8916  0.8914  0.0437
14450TIP3   OH264840   3.216   4.310  15.087  0.1863 -0.2532 -0.2197
14450TIP3    H164841   3.191   4.395  15.051  1.9598  0.6944  0.6373
14450TIP3    H264842   3.143   4.252  15.065 -1.3124  1.5917 -0.3776
14451TIP3   OH264843   2.756   4.576   4.930  0.2829 -0.3356 -0.2923
14451TIP3    H164844   2.693   4.648   4.933  0.3420 -0.2291 -1.2305
14451TIP3    H264845   2.840   4.618   4.948  0.3053 -0.1803 -0.7473
14452TIP3   OH264846   4.911   5.081   4.891 -0.2583 -0.0603 -0.0715
14452TIP3    H164847   4.961   5.152   4.932  0.5892  0.9954 -2.7541
14452TIP3    H264848   4.820   5.109   4.897  0.0550  1.1996 -0.9510
14453TIP3   OH264849   3.375   4.327  13.474  0.5097 -0.2876  0.1162
14453TIP3    H164850   3.370   4.403  13.416  0.7766  0.2197  0.7486
14453TIP3    H264851   3.324   4.353  13.551 -0.0749 -1.0597  0.0046
14454TIP3   OH264852   2.713   3.316  11.810 -0.6495 -0.0117 -0.0719
14454TIP3    H164853   2.724   3.258  11.735  0.6515 -1.1077  0.9116
14454TIP3    H264854   2.799   3.318  11.852 -0.4176  3.2374 -0.4346
14455TIP3   OH264855   4.525   6.363   4.018  0.3779  0.0569  0.4918
14455TIP3    H164856   4.577   6.417   4.076  1.4192 -0.8817  0.4753
14455TIP3    H264857   4.478   6.303   4.076  0.2190  0.1326  0.4430
14456TIP3   OH264858   6.291   2.226  13.650  0.7489 -0.5668 -0.0639
14456TIP3    H164859   6.200   2.243  13.628  1.2200  0.3810 -1.3636
14456TIP3    H264860   6.286   2.167  13.726 -0.9292 -0.8701 -0.3648
14457TIP3   OH264861   2.332   2.043   4.566 -0.3198 -0.1010 -0.0603
14457TIP3    H164862   2.402   2.061   4.629 -1.4526 -0.7214  1.4352
14457TIP3    H264863   2.272   2.116   4.575 -0.9706 -0.6698  0.2902
14458TIP3   OH264864   6.100   2.885   3.803  0.1858 -0.0581  0.0225
14458TIP3    H164865   6.101   2.822   3.875 -0.4345  0.4854  0.5189
14458TIP3    H264866   6.127   2.968   3.843 -1.1192  0.4672 -0.1421
14459TIP3   OH264867   2.057   1.247   3.711  1.0774 -0.2026  0.1268
14459TIP3    H164868   2.095   1.322   3.758  1.7934 -1.0091  0.8705
14459TIP3    H264869   2.004   1.202   3.776  0.9977 -0.5834 -0.1993
14460TIP3   OH264870   2.396   3.588  16.921 -0.1832  0.0124 -0.3486
14460TIP3    H164871   2.398   3.669  16.973  0.2070  0.3750 -0.9123
14460TIP3    H264872   2.316   3.593  16.870 -0.5340 -0.3136  0.1637
14461TIP3   OH264873   3.966   4.541   5.912 -0.2689 -0.1472 -0.2480
14461TIP3    H164874   4.010   4.625   5.920 -1.7181  0.6899 -0.6072
14461TIP3    H264875   3.945   4.516   6.002 -2.2177  1.2625 -0.2293
14462TIP3   OH264876   5.985   0.613   2.026 -0.4368 -0.2184  0.0865
14462TIP3    H164877   5.949   0.607   1.938 -0.4950  0.5094  0.0505
14462TIP3    H264878   6.076   0.588   2.017 -0.2692  0.5076 -0.3115
14463TIP3   OH264879   6.477   3.746  12.157 -0.1159  0.1758 -0.3331
14463TIP3    H164880   6.475   3.655  12.186 -1.0125 -0.0966 -1.1632
14463TIP3    H264881   6.394   3.783  12.188  0.2058  0.6912 -0.0684
14464TIP3   OH264882   3.278   1.549   4.984  0.3020  1.0829 -0.2035
14464TIP3    H164883   3.336   1.575   5.056  1.2838 -0.0593 -0.5510
14464TIP3    H264884   3.335   1.503   4.923 -0.9905 -0.1146 -0.5417
14465TIP3   OH264885   2.420   5.844   6.419  1.0007 -0.0893 -0.1607
14465TIP3    H164886   2.398   5.750   6.423 -1.1756  0.3864  0.1680
14465TIP3    H264887   2.363   5.879   6.350  1.5036  1.0873 -0.0031
14466TIP3   OH264888   6.775   0.319   1.611  0.1893  0.8423 -0.1584
14466TIP3    H164889   6.825   0.371   1.548 -1.6002  0.6148 -1.8665
14466TIP3    H264890   6.749   0.240   1.563 -1.2745  0.6784  0.8115
14467TIP3   OH264891   5.729   0.828   3.714  0.0199 -0.3435 -0.4770
14467TIP3    H164892   5.635   0.846   3.708  0.2797  1.2504 -0.2435
14467TIP3    H264893   5.771   0.909   3.685  1.3302 -0.6729  0.4103
14468TIP3   OH264894   5.544   0.237  11.437 -0.0887  0.4654  0.3280
14468TIP3    H164895   5.598   0.158  11.446  0.6328  0.7680 -1.1194
14468TIP3    H264896   5.458   0.211  11.471 -0.0649 -1.1843 -0.7583
14469TIP3   OH264897   4.074   1.962  14.966  0.0555 -0.0474  0.4284
14469TIP3    H164898   4.162   1.939  14.993 -0.4424 -1.2566  1.1251
14469TIP3    H264899   4.040   1.882  14.925 -0.4628  0.6309 -0.5030
14470TIP3   OH264900   0.289   2.933  13.920 -0.4297  0.2769  0.0040
14470TIP3    H164901   0.325   2.950  14.007 -0.7739  0.4486  0.1162
14470TIP3    H264902   0.212   2.990  13.915  0.9481  2.1338 -1.3557
14471TIP3   OH264903   6.290   1.919  10.791 -0.1388  0.2215 -0.2580
14471TIP3    H164904   6.287   2.014  10.804  0.8245  0.2491 -0.0995
14471TIP3    H264905   6.377   1.904  10.752 -0.6790 -0.4895 -1.2395
14472TIP3   OH264906   4.638   1.636  11.038 -0.4534 -0.4347  0.0727
14472TIP3    H164907   4.552   1.672  11.015  0.3445  0.1412 -2.1988
14472TIP3    H264908   4.619   1.547  11.067 -1.9200  0.0740  0.7880
14473TIP3   OH264909   2.996   5.205  16.404  0.3467 -0.4949 -0.0765
14473TIP3    H164910   2.907   5.241  16.406  1.2327  1.8016  1.0144
14473TIP3    H264911   3.016   5.187  16.496  2.1062  2.1288  0.1712
14474TIP3   OH264912   5.778   4.888   0.559  0.2374  0.1467 -0.1849
14474TIP3    H164913   5.706   4.946   0.535 -0.1454 -0.0315  0.5106
14474TIP3    H264914   5.857   4.935   0.530 -0.1867  0.0206 -1.5866
14475TIP3   OH264915   0.061   1.349   5.581 -0.1015  0.1804 -0.3087
14475TIP3    H164916   0.122   1.276   5.588  0.7356  0.9353  0.5425
14475TIP3    H264917   0.104   1.421   5.627 -1.2768  0.9686 -0.3954
14476TIP3   OH264918   1.607   4.121  14.437  0.0067 -0.3262 -0.2717
14476TIP3    H164919   1.588   4.145  14.346 -1.0676 -0.0083  0.0203
14476TIP3    H264920   1.551   4.179  14.489  2.2941  1.1179  0.7073
14477TIP3   OH264921   6.390   4.830  12.311  0.2036  0.1743 -0.1304
14477TIP3    H164922   6.383   4.735  12.322  0.8742  0.1386  0.0549
14477TIP3    H264923   6.301   4.858  12.292  0.1738 -0.6256 -1.2627
14478TIP3   OH264924   0.248   0.666   4.103 -0.0355  0.1101  0.1940
14478TIP3    H164925   0.183   0.670   4.172  0.3498  1.6259  0.5039
14478TIP3    H264926   0.203   0.624   4.030 -1.1830  0.5893  0.6019
14479TIP3   OH264927   6.265   5.141  13.983 -0.1868  0.5301  0.0288
14479TIP3    H164928   6.243   5.207  14.049 -0.5074  0.7187 -0.2674
14479TIP3    H264929   6.354   5.165  13.955 -0.1984  0.6749  0.1148
14480TIP3   OH264930   6.550   5.897  16.748 -0.0566  0.4282 -0.2899
14480TIP3    H164931   6.576   5.813  16.709 -3.0980 -1.4510  1.3701
14480TIP3    H264932   6.504   5.942  16.678 -0.9581 -0.6354 -0.4143
14481TIP3   OH264933   0.443   5.255   1.795  0.0108  0.0337  0.1453
14481TIP3    H164934   0.499   5.332   1.803  0.4459 -0.3825  1.2280
14481TIP3    H264935   0.380   5.278   1.726  0.0418  1.4124  0.5536
14482TIP3   OH264936   0.111   2.070  16.900 -0.3599 -0.0267 -0.9621
14482TIP3    H164937   0.037   2.019  16.865 -0.7287 -0.0507 -0.1647
14482TIP3    H264938   0.075   2.114  16.978  0.2413  0.6260 -1.0436
14483TIP3   OH264939   3.853   5.303  16.458  0.6309  0.1546  0.1064
14483TIP3    H164940   3.818   5.239  16.520  0.6391 -0.7313 -0.7854
14483TIP3    H264941   3.885   5.375  16.513 -2.0955  0.8016  1.0136
14484TIP3   OH264942   1.166   1.656  14.389 -0.0353  0.3030 -0.2285
14484TIP3    H164943   1.229   1.642  14.318 -1.0813 -2.3662 -0.7346
14484TIP3    H264944   1.200   1.602  14.461 -0.6337  0.5193  0.2188
14485TIP3   OH264945   5.448   2.456   3.058 -0.1365  1.0927  0.0121
14485TIP3    H164946   5.439   2.545   3.094  0.3191  0.2619  2.3559
14485TIP3    H264947   5.447   2.399   3.135  0.7928 -0.8642 -1.3460
14486TIP3   OH264948   6.419   4.765  14.820 -0.3141 -0.2647 -0.1859
14486TIP3    H164949   6.333   4.771  14.778 -0.5953  0.5118  0.4859
14486TIP3    H264950   6.452   4.679  14.792 -1.4218 -0.7065 -0.2324
14487TIP3   OH264951   3.150   1.159   2.146 -0.7057  0.2719 -0.4318
14487TIP3    H164952   3.092   1.178   2.220 -0.8110 -0.2681 -0.3736
14487TIP3    H264953   3.109   1.085   2.102 -0.5500  0.4823 -0.9339
14488TIP3   OH264954   2.595   3.656   4.096  0.1057  0.3434  0.0996
14488TIP3    H164955   2.525   3.595   4.119  0.3348  0.1888  0.4091
14488TIP3    H264956   2.674   3.602   4.093 -0.0501  0.1512 -2.1292
14489TIP3   OH264957   3.077   0.044   0.499  0.2703 -0.0001 -0.3896
14489TIP3    H164958   3.051   0.135   0.513 -0.1856  0.0020 -1.1675
14489TIP3    H264959   3.085   0.008   0.587 -1.8529  0.1577 -0.0807
14490TIP3   OH264960   1.354   5.874   2.015  0.0168 -0.1515  0.9372
14490TIP3    H164961   1.312   5.882   1.929 -0.8656  1.1263  1.4567
14490TIP3    H264962   1.448   5.876   1.995 -0.1455  1.8518  0.0845
14491TIP3   OH264963   6.583   0.712   0.722 -0.1932  0.2759 -0.1066
14491TIP3    H164964   6.542   0.727   0.807 -0.3774 -1.4360  0.1410
14491TIP3    H264965   6.645   0.642   0.737  1.0624  1.1369 -1.0354
14492TIP3   OH264966   5.338   2.631   3.439  0.4678 -0.5004 -0.6864
14492TIP3    H164967   5.302   2.547   3.411 -0.9192 -0.2567  0.2437
14492TIP3    H264968   5.374   2.671   3.359 -3.2217  0.1533 -2.2178
14493TIP3   OH264969   4.881   2.531   3.271  0.1030 -0.6978 -0.1623
14493TIP3    H164970   4.901   2.553   3.180 -0.1401  2.1271  0.3898
14493TIP3    H264971   4.785   2.535   3.277  0.1926  2.8924  0.9383
14494TIP3   OH264972   4.756   2.304   5.394  0.4239 -0.0772  0.1131
14494TIP3    H164973   4.780   2.227   5.445  0.3169  0.1326  0.4862
14494TIP3    H264974   4.833   2.361   5.399  0.2061  0.1870  0.5173
14495TIP3   OH264975   4.315   4.505   2.868 -0.0233  0.1648 -0.8730
14495TIP3    H164976   4.376   4.456   2.923 -1.8269 -1.0352  0.1962
14495TIP3    H264977   4.272   4.439   2.814 -1.9071  0.6207 -0.0179
14496TIP3   OH264978   0.012   3.810   2.408  0.4100  0.4605  0.4518
14496TIP3    H164979   0.084   3.853   2.455 -0.2426  0.5276  1.4326
14496TIP3    H264980  -0.059   3.806   2.473 -0.0252 -0.7859 -0.0741
14497TIP3   OH264981   5.237   3.161   4.097  0.2251 -0.3330  1.3437
14497TIP3    H164982   5.169   3.164   4.029  2.1822  0.4601 -0.7049
14497TIP3    H264983   5.230   3.073   4.134 -0.2169 -1.1917 -0.6416
14498TIP3   OH264984   1.735   0.690  15.041  0.0041  0.4123 -0.4070
14498TIP3    H164985   1.798   0.624  15.068  0.6353  1.0989 -0.1829
14498TIP3    H264986   1.730   0.682  14.946  2.1303  1.8145 -0.7071
14499TIP3   OH264987   5.177   1.811   1.388 -0.6970 -0.3513  0.0659
14499TIP3    H164988   5.263   1.769   1.396 -0.6461 -0.4855 -0.9584
14499TIP3    H264989   5.195   1.905   1.384 -0.3072 -0.4450 -2.6538
14500TIP3   OH264990   3.428   6.059  13.982  0.1403  0.0429 -0.5158
14500TIP3    H164991   3.442   6.125  13.914  0.4362  0.5199 -0.0049
14500TIP3    H264992   3.430   5.975  13.936  0.1573  0.3679 -1.1154
14501TIP3   OH264993   2.637   2.796  15.604  0.2595 -0.9219 -0.1744
14501TIP3    H164994   2.701   2.727  15.590 -0.9571 -1.9543 -0.9257
14501TIP3    H264995   2.635   2.809  15.699 -0.6440 -3.1270  0.1829
14502TIP3   OH264996   4.639   0.204   1.114  0.0727  0.1800 -0.2594
14502TIP3    H164997   4.685   0.211   1.030  0.0331  2.0911 -0.1714
14502TIP3    H264998   4.637   0.294   1.147 -1.8894 -0.1856  0.7414
14503TIP3   OH264999   4.047   5.436   3.607 -0.5507 -0.5081 -0.2210
14503TIP3    H165000   4.072   5.355   3.653  0.6602 -0.9387 -1.5400
14503TIP3    H265001   3.983   5.407   3.542  1.3133 -0.8358 -2.0199
14504TIP3   OH265002   4.518   2.917  12.213 -0.3287 -0.0845  0.2024
14504TIP3    H165003   4.477   2.940  12.130 -0.4983  0.6364  0.4722
14504TIP3    H265004   4.510   2.822  12.219  0.1649 -0.2049 -0.8477
14505TIP3   OH265005   3.269   5.920  14.697 -0.1627  0.6966  0.2281
14505TIP3    H165006   3.173   5.914  14.704 -0.1157 -0.5389  0.0379
14505TIP3    H265007   3.301   5.872  14.774  0.2944 -0.1149 -0.4546
14506TIP3   OH265008   3.166   0.648   2.639  0.0732 -0.6336  0.3312
14506TIP3    H165009   3.173   0.711   2.710  0.7728  0.1885 -0.4314
14506TIP3    H265010   3.255   0.643   2.604 -0.3018 -0.8751 -0.6057
14507TIP3   OH265011   5.787   4.668  11.939  0.2295  0.3650  0.3962
14507TIP3    H165012   5.773   4.599  12.004  0.3476  0.6133  0.6870
14507TIP3    H265013   5.868   4.642  11.894  0.7006  0.7143  1.0296
14508TIP3   OH265014   2.678   6.156  12.850 -0.6754  0.5547  0.2710
14508TIP3    H165015   2.659   6.173  12.943 -0.6787  0.5788  0.2659
14508TIP3    H265016   2.635   6.072  12.832 -1.4318  0.9757  0.0591
14509TIP3   OH265017   2.838   6.459  16.395 -0.4931  0.7732 -0.7693
14509TIP3    H165018   2.766   6.449  16.457  1.6148  0.8234  1.8394
14509TIP3    H265019   2.846   6.373  16.353 -1.4532  0.4986 -0.4135
14510TIP3   OH265020   1.091   1.405   1.536 -0.2719 -0.4304 -0.2633
14510TIP3    H165021   1.139   1.434   1.458 -0.1270 -1.5152 -0.5902
14510TIP3    H265022   1.152   1.349   1.583 -0.2715  0.4075  0.7821
14511TIP3   OH265023   0.584   3.749  11.468 -0.1793 -0.2551  0.1944
14511TIP3    H165024   0.591   3.844  11.455 -0.8751 -0.0802  1.0318
14511TIP3    H265025   0.633   3.733  11.549  3.7678 -1.2685 -2.1323
14512TIP3   OH265026   4.352   5.222  16.261 -0.2979  0.3392  0.0191
14512TIP3    H165027   4.378   5.248  16.349 -0.9943 -2.4397  1.1492
14512TIP3    H265028   4.262   5.191  16.271 -0.7076  0.8191 -1.8733
14513TIP3   OH265029   6.823   2.251  10.938  0.0512 -0.1519  0.0728
14513TIP3    H165030   6.763   2.185  10.903  0.4089 -0.4496  0.0106
14513TIP3    H265031   6.826   2.233  11.032 -0.9141  0.6510  0.2851
14514TIP3   OH265032   6.830   1.742   1.958  0.0999  0.7170 -0.3232
14514TIP3    H165033   6.887   1.676   1.996 -0.4435 -0.3874 -1.3664
14514TIP3    H265034   6.882   1.782   1.888 -0.4144 -0.3705 -1.3513
14515TIP3   OH265035   6.782   6.522   4.018  0.1549 -0.3115  0.2537
14515TIP3    H165036   6.689   6.505   4.033 -0.0169  0.1408 -0.2634
14515TIP3    H265037   6.791   6.617   4.029  0.3286 -0.1930 -0.8564
14516TIP3   OH265038   5.369   4.218  12.635 -0.0622 -0.1725  0.5221
14516TIP3    H165039   5.327   4.189  12.715  0.3075 -0.4093  0.6317
14516TIP3    H265040   5.307   4.279  12.596 -0.0626  0.2785  1.2051
14517TIP3   OH265041   6.059   4.762  16.385  0.2826  0.0145 -0.3785
14517TIP3    H165042   6.119   4.744  16.457  2.0053 -0.0999 -1.7701
14517TIP3    H265043   5.972   4.762  16.425  1.2365  0.8846  1.8498
14518TIP3   OH265044   0.137   3.200  11.864 -0.0496 -0.1509  0.8189
14518TIP3    H165045   0.171   3.288  11.880  1.5023 -0.4719 -0.5220
14518TIP3    H265046   0.057   3.195  11.917 -0.9833  2.5658 -0.1944
14519TIP3   OH265047   5.495   2.062  10.697 -0.8377  0.7154 -0.3981
14519TIP3    H165048   5.518   2.070  10.604  0.0672  1.0508 -0.1563
14519TIP3    H265049   5.434   2.135  10.713 -0.2849  1.2126 -0.5210
14520TIP3   OH265050   5.778   4.101   4.139  0.0176 -0.1216 -0.1177
14520TIP3    H165051   5.706   4.039   4.149  1.0828 -1.5454 -0.8836
14520TIP3    H265052   5.826   4.070   4.062  0.7446  1.5259 -0.3817
14521TIP3   OH265053   2.186   4.829   1.807  0.3684 -0.2948  0.6644
14521TIP3    H165054   2.252   4.824   1.876  0.9834 -1.2456  0.0235
14521TIP3    H265055   2.181   4.741   1.771 -0.3189  0.0625 -0.1626
14522TIP3   OH265056   2.597   6.415  12.406  0.6311 -0.1820 -0.0360
14522TIP3    H165057   2.674   6.366  12.376  0.3181 -0.4036 -0.4852
14522TIP3    H265058   2.578   6.379  12.492  1.8638  0.8286  0.6959
14523TIP3   OH265059   2.967   5.952   2.325  0.2897 -0.2540  0.0332
14523TIP3    H165060   2.987   5.880   2.386 -0.8880  1.3427  2.4731
14523TIP3    H265061   2.995   6.031   2.371 -1.7269  1.1344 -0.9555
14524TIP3   OH265062   1.484   0.532  14.559 -0.1400  0.4600  0.0883
14524TIP3    H165063   1.426   0.607  14.554 -2.0247 -1.0136 -2.7961
14524TIP3    H265064   1.567   0.563  14.522 -0.4759  1.4241  0.1174
14525TIP3   OH265065   3.288   0.104  14.080  0.7395 -0.0486  0.2813
14525TIP3    H165066   3.382   0.086  14.077  0.3542 -2.5487  1.0406
14525TIP3    H265067   3.278   0.163  14.154  1.7319  0.4674  0.0232
14526TIP3   OH265068   1.592   6.638  13.105 -0.5731 -0.6822 -0.6202
14526TIP3    H165069   1.595   6.554  13.152  2.1255  0.1769  0.9515
14526TIP3    H265070   1.548   6.698  13.165 -0.1222 -0.3824 -0.5785
14527TIP3   OH265071   2.785   0.379  15.305  0.5341 -0.9118 -0.3198
14527TIP3    H165072   2.792   0.355  15.212 -1.0884  0.5861 -0.8845
14527TIP3    H265073   2.842   0.456  15.314  0.2721 -0.7286 -0.2155
14528TIP3   OH265074   4.481   3.496  16.137  0.1218 -0.1545  0.0997
14528TIP3    H165075   4.400   3.478  16.185 -0.1032  1.9750  0.5956
14528TIP3    H265076   4.545   3.437  16.176 -0.7340 -0.5124  1.0182
14529TIP3   OH265077   5.503   2.840  14.822  0.1575  0.0499 -0.0164
14529TIP3    H165078   5.496   2.934  14.812 -0.4815 -0.0367 -0.4374
14529TIP3    H265079   5.506   2.826  14.917  1.1322  0.5451  0.0341
14530TIP3   OH265080   4.211   3.079  14.958 -0.8164 -0.0794 -0.0301
14530TIP3    H165081   4.179   2.990  14.948 -1.0331  0.0451 -0.5208
14530TIP3    H265082   4.153   3.119  15.023 -0.9247 -0.2018 -0.0516
14531TIP3   OH265083   4.251   5.059  12.131  0.4448 -0.4505  0.2740
14531TIP3    H165084   4.296   5.141  12.145 -0.0200 -0.3362  1.1686
14531TIP3    H265085   4.203   5.072  12.049  2.0831 -0.6225 -0.7687
14532TIP3   OH265086   6.880   3.766  12.732 -0.8549  0.6445  0.4309
14532TIP3    H165087   6.806   3.717  12.696 -2.1962  2.0727  1.1307
14532TIP3    H265088   6.955   3.741  12.677 -1.5777 -1.7161  0.4358
14533TIP3   OH265089   3.437   1.458   1.067  0.4128 -0.1695 -0.0284
14533TIP3    H165090   3.515   1.409   1.040 -1.3378 -3.2780  0.0798
14533TIP3    H265091   3.363   1.406   1.034 -1.6702  2.6309 -0.1429
14534TIP3   OH265092   5.902   6.248   3.876  0.3070 -0.7050  0.0500
14534TIP3    H165093   5.906   6.338   3.843  0.3351 -1.3356 -1.7791
14534TIP3    H265094   5.989   6.231   3.910  1.1838 -0.8878 -2.0958
14535TIP3   OH265095   6.551   3.407  16.221 -0.2024 -0.7837 -0.0747
14535TIP3    H165096   6.488   3.347  16.181 -1.0072 -0.4241  0.6155
14535TIP3    H265097   6.635   3.382  16.183 -0.6266 -1.8613 -0.3513
14536TIP3   OH265098   2.149   1.567  15.801 -0.4475 -0.3007  0.2820
14536TIP3    H165099   2.207   1.642  15.801  0.3334 -0.8758 -0.6367
14536TIP3    H265100   2.061   1.604  15.797 -0.1044  0.5657  0.6796
14537TIP3   OH265101   5.374   5.551  13.833  0.0768  0.6155  0.1445
14537TIP3    H165102   5.447   5.613  13.826 -0.8637  1.6561 -0.7922
14537TIP3    H265103   5.299   5.598  13.797 -0.6748 -1.0731 -0.5941
14538TIP3   OH265104   3.131   4.479   4.188  0.2248  0.1392 -0.3263
14538TIP3    H165105   3.181   4.494   4.108  0.9288  0.5079  0.1727
14538TIP3    H265106   3.196   4.456   4.253 -0.5321 -2.5784 -0.3787
14539TIP3   OH265107   3.963   6.582  11.557  0.1776 -0.5552 -0.3705
14539TIP3    H165108   3.940   6.597  11.465 -0.9110 -0.2134 -0.0532
14539TIP3    H265109   3.948   6.666  11.599  1.3396 -0.5167  0.0141
14540TIP3   OH265110   0.731   5.446   4.781  0.2083  0.1555 -0.1988
14540TIP3    H165111   0.753   5.393   4.704  1.8649 -1.3446  1.2146
14540TIP3    H265112   0.757   5.392   4.855 -1.6652  1.4057  1.4658
14541TIP3   OH265113   5.530   1.369  13.259 -0.3418  0.1355 -0.3716
14541TIP3    H165114   5.496   1.308  13.194  0.6284  0.8897 -1.6245
14541TIP3    H265115   5.620   1.386  13.231  0.1020  0.5006  1.1608
14542TIP3   OH265116   3.181   4.171  12.979  0.6946  0.1858 -1.0495
14542TIP3    H165117   3.259   4.226  12.985  0.8775 -0.1182 -0.5098
14542TIP3    H265118   3.162   4.147  13.070  1.3756 -1.6736 -1.3477
14543TIP3   OH265119   4.505   6.310  13.944  0.2976 -0.2164 -0.2590
14543TIP3    H165120   4.463   6.364  13.876 -1.6263 -0.0477  0.9961
14543TIP3    H265121   4.440   6.243  13.965  1.1943 -0.7725  0.8325
14544TIP3   OH265122   2.964   1.604  13.660  0.2041 -0.4346  0.1280
14544TIP3    H165123   2.871   1.616  13.643  0.0858 -0.3885  0.7813
14544TIP3    H265124   3.007   1.675  13.613 -0.1585  0.0502  0.5180
14545TIP3   OH265125   2.668   6.143   3.332  0.6434 -0.1230  0.0635
14545TIP3    H165126   2.647   6.050   3.331  1.0757 -0.2345  0.7060
14545TIP3    H265127   2.739   6.151   3.395 -0.3816  0.8431  1.1578
14546TIP3   OH265128   2.634   0.553  14.260  0.5564 -0.0474 -0.3731
14546TIP3    H165129   2.610   0.464  14.288  3.5589 -1.4047 -1.6310
14546TIP3    H265130   2.618   0.607  14.337 -2.3436 -1.3929  0.1228
14547TIP3   OH265131   4.339   4.156   2.513 -0.3585 -0.1735  0.7911
14547TIP3    H165132   4.376   4.220   2.453  1.2312 -0.5772  1.2797
14547TIP3    H265133   4.288   4.097   2.458  1.8172 -1.0951 -0.3574
14548TIP3   OH265134   2.396   6.242  16.722  0.7476 -0.3000 -0.2456
14548TIP3    H165135   2.328   6.198  16.672 -0.5105 -0.8205  1.8174
14548TIP3    H265136   2.387   6.334  16.698 -1.7576 -0.1168  1.0590
14549TIP3   OH265137   1.331   0.433  16.672 -0.2837 -0.0547 -0.4578
14549TIP3    H165138   1.244   0.471  16.658 -0.3404 -0.0962 -0.2262
14549TIP3    H265139   1.377   0.496  16.727 -0.0745  0.0921 -0.7969
14550TIP3   OH265140   2.089   5.600   0.218 -0.2576 -0.0148  0.1841
14550TIP3    H165141   2.178   5.576   0.194  0.2245  1.8079  0.0674
14550TIP3    H265142   2.036   5.573   0.142  1.0042  4.0090 -2.4538
14551TIP3   OH265143   6.326   0.562  10.941  0.6383 -0.3473  0.0471
14551TIP3    H165144   6.311   0.542  10.848 -1.2255 -1.0697  0.4579
14551TIP3    H265145   6.281   0.646  10.955 -0.8076 -1.1785  0.6799
14552TIP3   OH265146   5.301   6.503   3.159  0.0744  0.0344 -0.9073
14552TIP3    H165147   5.387   6.502   3.201 -0.6010  0.2272  0.5078
14552TIP3    H265148   5.262   6.419   3.184  0.0606 -0.3141 -2.0406
14553TIP3   OH265149   6.130   5.192   2.409 -0.4063  0.1334  0.3645
14553TIP3    H165150   6.168   5.271   2.449  0.5330 -0.8653  1.5256
14553TIP3    H265151   6.051   5.175   2.460 -0.4564  0.1630  0.2970
14554TIP3   OH265152   6.278   5.646   2.991 -0.0766  0.3781  0.3041
14554TIP3    H165153   6.329   5.585   3.044  0.3499  1.5397  1.3024
14554TIP3    H265154   6.192   5.647   3.032  0.0691  0.8114  0.6097
14555TIP3   OH265155   1.784   6.324  13.864  0.4579 -0.3166 -0.6387
14555TIP3    H165156   1.850   6.299  13.929  1.9500  1.1472 -1.5126
14555TIP3    H265157   1.728   6.387  13.909 -1.1300 -2.3948  0.4612
14556TIP3   OH265158   5.495   3.007   2.065  0.1063 -0.0760 -0.2656
14556TIP3    H165159   5.406   2.987   2.036 -0.1693  0.1345  0.4212
14556TIP3    H265160   5.484   3.071   2.135  0.6779 -1.4435  1.1366
14557TIP3   OH265161   4.115   4.986   3.903 -0.1848 -0.1489  0.1669
14557TIP3    H165162   4.158   4.901   3.903  0.1784  0.0316  0.0911
14557TIP3    H265163   4.183   5.047   3.930  0.0680  0.3628 -1.4827
14558TIP3   OH265164   1.177   4.919   0.489 -0.3600 -0.5376 -0.0344
14558TIP3    H165165   1.263   4.938   0.525 -1.0602 -1.1659  2.0976
14558TIP3    H265166   1.128   5.000   0.498  0.3750  0.3036 -2.6550
14559TIP3   OH265167   2.315   1.267  16.911  0.1874 -0.5935  0.1678
14559TIP3    H165168   2.338   1.218  16.990  0.5714  0.7530  0.9158
14559TIP3    H265169   2.325   1.204  16.840  0.2530 -1.7113  1.1416
14560TIP3   OH265170   4.136   1.218   1.530 -0.4708  0.2312 -0.0605
14560TIP3    H165171   4.208   1.227   1.467  0.0341  1.9520  0.7114
14560TIP3    H265172   4.059   1.249   1.483 -0.1358  1.2950  0.0571
14561TIP3   OH265173   1.460   3.942  16.508  0.0603  0.0915  0.5497
14561TIP3    H165174   1.542   3.989  16.494 -0.0789 -0.1031 -1.1817
14561TIP3    H265175   1.436   3.961  16.598  1.5440  0.8787  0.8046
14562TIP3   OH265176   1.358   3.530   4.817  0.9552 -0.0421 -0.0462
14562TIP3    H165177   1.279   3.547   4.869  1.0662 -0.2871  0.2040
14562TIP3    H265178   1.325   3.517   4.728  0.7524  0.2578 -0.0176
14563TIP3   OH265179   1.917   1.506  11.011  0.2354 -0.1331 -0.2268
14563TIP3    H165180   1.990   1.451  10.983  0.1902  0.1161 -0.8484
14563TIP3    H265181   1.958   1.587  11.042  0.3415 -0.7128  1.2262
14564TIP3   OH265182   4.201   2.170   0.931  0.4118 -0.1302  0.3090
14564TIP3    H165183   4.193   2.245   0.872 -1.4975 -0.1913  0.4261
14564TIP3    H265184   4.153   2.196   1.010 -0.4529 -1.5203  0.2789
14565TIP3   OH265185   5.478   0.190   3.162 -0.3459 -0.1197  0.2860
14565TIP3    H165186   5.400   0.155   3.206 -0.9486  0.1086 -0.5672
14565TIP3    H265187   5.500   0.124   3.097 -3.1242  2.0553 -3.2525
14566TIP3   OH265188   3.278   1.225   1.754  0.2357 -0.1209  0.7912
14566TIP3    H165189   3.357   1.202   1.803  0.0596 -0.2766  1.0037
14566TIP3    H265190   3.310   1.277   1.680  0.5171 -0.0271  0.9781
14567TIP3   OH265191   1.187   0.932  11.368 -0.0537 -0.0228  0.9710
14567TIP3    H165192   1.155   0.959  11.282 -2.7329 -1.3831  1.4135
14567TIP3    H265193   1.280   0.951  11.366 -0.1310  0.5852 -1.9861
14568TIP3   OH265194   0.031   0.881  11.973 -0.4772  0.1231  0.2895
14568TIP3    H165195  -0.041   0.944  11.964 -0.1646  0.6490  1.3331
14568TIP3    H265196   0.007   0.809  11.915 -0.6516  1.3605 -1.2281
14569TIP3   OH265197   6.495   3.665  16.262  0.1203 -0.0711  0.2859
14569TIP3    H165198   6.557   3.719  16.212 -0.1437 -0.3646 -0.3659
14569TIP3    H265199   6.522   3.575  16.245 -1.5482 -0.3087 -1.5001
14570TIP3   OH265200   6.047   2.976  14.201 -0.1812  0.2980 -0.3832
14570TIP3    H165201   6.111   2.967  14.131  1.3764 -0.7313  1.0935
14570TIP3    H265202   5.965   2.944  14.163  0.8919 -1.4424 -1.3669
14571TIP3   OH265203   3.662   2.977  15.038  0.5415  0.5566 -0.2985
14571TIP3    H165204   3.719   2.934  15.102 -0.4614  0.1450  0.3322
14571TIP3    H265205   3.713   2.978  14.957  1.1055 -0.5717  0.0310
14572TIP3   OH265206   6.260   2.965  14.036 -0.4832  0.3762 -0.2526
14572TIP3    H165207   6.279   2.899  13.969 -1.2495 -0.7934  0.6228
14572TIP3    H265208   6.334   3.025  14.034 -1.2091  1.3202 -3.2310
14573TIP3   OH265209   2.695   1.222   2.445 -0.7608  0.1216  0.3177
14573TIP3    H165210   2.719   1.255   2.532  2.2672  1.2190 -0.7787
14573TIP3    H265211   2.748   1.274   2.384 -3.5918  0.1577 -2.3290
14574TIP3   OH265212   0.194   5.371  11.186 -0.4188 -0.0272 -0.2047
14574TIP3    H165213   0.111   5.377  11.140 -0.8092  0.8946  0.5780
14574TIP3    H265214   0.192   5.443  11.249  0.1513 -1.1504  1.1536
14575TIP3   OH265215   5.134   6.025   4.243  0.3137 -0.1598  0.0579
14575TIP3    H165216   5.188   5.990   4.173  1.0607 -0.7486  0.9056
14575TIP3    H265217   5.193   6.081   4.293 -0.2531  0.3965  0.1193
14576TIP3   OH265218   1.220   4.503  11.479 -0.0491 -0.3174 -0.2629
14576TIP3    H165219   1.283   4.575  11.485  0.6105 -0.8579 -0.5254
14576TIP3    H265220   1.164   4.525  11.405 -0.6444  0.5224  0.4074
14577TIP3   OH265221   4.384   4.472  11.667  0.5333 -0.3772  0.3364
14577TIP3    H165222   4.470   4.513  11.672 -0.3477  1.7142 -0.4424
14577TIP3    H265223   4.389   4.415  11.590  1.5181 -1.1596  0.9415
14578TIP3   OH265224   1.141   1.997  10.899 -0.0108 -0.0892 -0.0526
14578TIP3    H165225   1.053   2.011  10.934  0.5329  0.0017  1.3514
14578TIP3    H265226   1.144   2.051  10.819 -1.7856 -1.4925 -1.1354
14579TIP3   OH265227   1.584   3.644  15.858  0.4947  0.1420  0.0745
14579TIP3    H165228   1.660   3.624  15.803 -0.7245  0.8975 -2.0147
14579TIP3    H265229   1.508   3.627  15.802 -1.0639 -2.5207  2.6864
14580TIP3   OH265230   3.095   2.790  11.343  1.1966  0.4126 -0.4923
14580TIP3    H165231   3.111   2.861  11.405  0.4964  1.1854 -1.1747
14580TIP3    H265232   3.169   2.793  11.282  0.6547  1.2442 -1.1328
14581TIP3   OH265233   1.129   0.301   3.113 -0.2302  0.2848 -0.1261
14581TIP3    H165234   1.194   0.273   3.049 -1.1957 -1.4059 -0.4293
14581TIP3    H265235   1.050   0.315   3.061 -0.7441 -0.0729  0.5513
14582TIP3   OH265236   2.523   4.743   4.305  0.1130 -0.1720 -0.2750
14582TIP3    H165237   2.537   4.750   4.400  0.6710 -1.4267 -0.2525
14582TIP3    H265238   2.567   4.820   4.269 -0.9938  0.8823  0.5505
14583TIP3   OH265239   3.111   5.680  15.374 -0.4045 -0.0015  0.1320
14583TIP3    H165240   3.088   5.768  15.344 -2.2236  0.0737  1.5885
14583TIP3    H265241   3.132   5.691  15.467  0.7086 -0.9145  0.0172
14584TIP3   OH265242   3.071   4.203  11.051 -0.5020 -0.1341 -0.0234
14584TIP3    H165243   3.108   4.116  11.064 -1.6617 -0.4975  0.9355
14584TIP3    H265244   3.144   4.263  11.070  0.3897 -0.8603 -0.9782
14585TIP3   OH265245   6.848   0.087  13.179 -0.2468 -0.0939 -0.0103
14585TIP3    H165246   6.761   0.063  13.147  0.2174  0.6941 -1.9914
14585TIP3    H265247   6.855   0.042  13.263 -2.1767 -0.9738 -0.2559
14586TIP3   OH265248   3.620   1.921   9.864 -0.3453 -0.4209 -0.0059
14586TIP3    H165249   3.642   1.943   9.954  0.5467  1.3685 -0.5921
14586TIP3    H265250   3.701   1.885   9.827 -0.5809 -0.7645 -0.1845
14587TIP3   OH265251   2.283   1.432   1.728  0.1058  0.1663  1.1313
14587TIP3    H165252   2.301   1.435   1.822 -1.6491  0.1562  1.5072
14587TIP3    H265253   2.247   1.519   1.708  1.1848  0.4322  0.2972
14588TIP3   OH265254   6.196   6.585  16.797 -0.1624 -0.0461 -0.2969
14588TIP3    H165255   6.186   6.537  16.714  2.1428  0.0287 -0.6946
14588TIP3    H265256   6.192   6.517  16.864  0.7892 -0.5372 -0.7040
14589TIP3   OH265257   2.026   3.741   5.383  0.3811 -0.1066 -0.0381
14589TIP3    H165258   1.968   3.779   5.449 -0.4575 -2.8360  0.9334
14589TIP3    H265259   1.989   3.769   5.299  0.2765  1.7609  0.5876
14590TIP3   OH265260   2.977   3.904  12.584  0.7399 -0.1969  0.2134
14590TIP3    H165261   3.055   3.933  12.537  0.8967 -1.2713 -0.2078
14590TIP3    H265262   2.999   3.918  12.677  0.4162  1.9610  0.0222
14591TIP3   OH265263   4.831   5.546  12.745  0.0454 -0.0762 -0.7514
14591TIP3    H165264   4.861   5.628  12.706  0.2696 -0.4723 -1.4299
14591TIP3    H265265   4.806   5.492  12.670  0.2103 -0.7449 -0.3319
14592TIP3   OH265266   4.269   0.172  15.069 -0.3123  0.3069 -0.0867
14592TIP3    H165267   4.229   0.090  15.098 -0.4451  0.5757  0.5063
14592TIP3    H265268   4.233   0.238  15.128  0.3983  0.6748 -0.0623
14593TIP3   OH265269   1.964   0.509  14.987  0.2028 -0.3874  0.2941
14593TIP3    H165270   1.963   0.439  14.922  0.1786  0.3057 -0.4824
14593TIP3    H265271   2.025   0.480  15.054 -0.6815 -1.6611  0.5874
14594TIP3   OH265272   1.730   6.374   2.567  0.7716 -0.7776 -0.3369
14594TIP3    H165273   1.776   6.456   2.549  1.0898 -0.9519 -0.3242
14594TIP3    H265274   1.681   6.391   2.647  0.8435 -0.6054 -0.3288
14595TIP3   OH265275   1.923   2.819   3.064 -0.2250  0.0706  0.0776
14595TIP3    H165276   1.994   2.877   3.038 -0.3834  0.6409  0.8953
14595TIP3    H265277   1.965   2.733   3.075  0.5141  0.5710  1.3625
14596TIP3   OH265278   1.139   3.021  16.086  0.4408  0.7469  0.3874
14596TIP3    H165279   1.146   2.985  15.997  0.2957  1.4656  0.0786
14596TIP3    H265280   1.045   3.028  16.102  0.4021 -1.2850  1.4019
14597TIP3   OH265281   0.297   2.217   2.524  0.3611  0.0771 -0.3773
14597TIP3    H165282   0.329   2.307   2.524  0.7475 -0.0397  0.7423
14597TIP3    H265283   0.232   2.214   2.594  1.6747 -0.9366  0.8611
14598TIP3   OH265284   6.852   1.862  11.669  0.3064 -0.2508 -0.1428
14598TIP3    H165285   6.896   1.835  11.589  0.6647  0.0176 -0.0415
14598TIP3    H265286   6.814   1.948  11.648  0.2924 -0.2377 -0.0662
14599TIP3   OH265287   5.257   6.348   4.940 -0.4008 -0.0597  0.2490
14599TIP3    H165288   5.226   6.276   4.885  0.4664 -0.4349  0.2363
14599TIP3    H265289   5.314   6.306   5.005  1.1464  0.7315 -0.5434
14600TIP3   OH265290   1.970   2.633   4.219  0.6175  0.0436  0.5551
14600TIP3    H165291   2.043   2.680   4.260  0.0944 -0.2121  1.8362
14600TIP3    H265292   1.892   2.677   4.252  0.1054 -1.6528  1.7655
14601TIP3   OH265293   4.516   5.690  11.261  0.0971  0.2885  0.1986
14601TIP3    H165294   4.553   5.712  11.347  1.6728  1.1448 -0.6516
14601TIP3    H265295   4.572   5.737  11.199  0.7885 -2.5248 -1.4814
14602TIP3   OH265296   4.916   1.405  13.478 -0.7716  0.3188  1.3987
14602TIP3    H165297   4.850   1.471  13.457 -0.9299 -0.3207 -0.2562
14602TIP3    H265298   4.990   1.455  13.512 -1.4323  1.1966  1.5903
14603TIP3   OH265299   2.114   5.176  13.070 -0.4828 -0.2247  0.2416
14603TIP3    H165300   2.139   5.101  13.123 -2.7277 -2.2535 -1.3724
14603TIP3    H265301   2.183   5.182  13.003  0.6054  0.2895  1.3691
14604TIP3   OH265302   3.861   5.172   6.428  0.2794  0.0953 -0.7254
14604TIP3    H165303   3.776   5.135   6.450  1.1903 -1.1637  0.9991
14604TIP3    H265304   3.853   5.265   6.447 -0.1867 -0.3192  1.3038
14605TIP3   OH265305   4.415   5.833   3.035  0.0169  0.9525  0.0480
14605TIP3    H165306   4.424   5.816   2.941 -1.8447  2.7157 -0.5386
14605TIP3    H265307   4.376   5.921   3.039  0.1498  0.9553  2.4845
14606TIP3   OH265308   2.587   1.926   6.349 -0.6877  0.1318 -0.1995
14606TIP3    H165309   2.505   1.970   6.371 -0.7120  0.2999 -0.6139
14606TIP3    H265310   2.654   1.973   6.399 -0.7837  0.2881 -0.2170
14607TIP3   OH265311   5.504   0.889   0.475  0.3896 -0.6525 -0.2132
14607TIP3    H165312   5.566   0.957   0.451  0.0258 -1.2764 -3.3565
14607TIP3    H265313   5.558   0.819   0.512  1.6677 -1.1815 -2.8654
14608TIP3   OH265314   0.495   5.431  15.546  0.1332  0.2140 -0.3338
14608TIP3    H165315   0.464   5.343  15.526  1.1653 -0.4309  0.7783
14608TIP3    H265316   0.571   5.418  15.603 -0.2518  1.8266  0.6304
14609TIP3   OH265317   1.657   1.691   3.256  0.4617 -0.0610 -0.5912
14609TIP3    H165318   1.733   1.656   3.302  0.2831 -0.5623 -0.6761
14609TIP3    H265319   1.584   1.681   3.318  0.5039  0.6207 -0.4245
14610TIP3   OH265320   5.465   6.671   3.664 -0.4517 -0.4775  0.2452
14610TIP3    H165321   5.473   6.682   3.758 -1.4091  2.3682  0.1064
14610TIP3    H265322   5.378   6.705   3.643  0.1797  0.0836 -1.7612
14611TIP3   OH265323   5.551   4.383  10.585  0.0895 -0.0901 -0.1007
14611TIP3    H165324   5.512   4.317  10.527 -0.0829 -0.9380  0.9459
14611TIP3    H265325   5.486   4.397  10.653  0.1172  1.2106 -0.3187
14612TIP3   OH265326   6.472   3.126  14.072  0.3499  0.0039 -0.4194
14612TIP3    H165327   6.558   3.138  14.031  0.8641  1.3961  0.9760
14612TIP3    H265328   6.452   3.210  14.111 -2.4735  0.2405 -2.1099
14613TIP3   OH265329   4.946   1.531   4.641  0.3867 -0.2301 -0.2305
14613TIP3    H165330   4.963   1.586   4.718 -0.4560 -1.9276  1.2453
14613TIP3    H265331   4.860   1.494   4.658  0.4434 -1.0868 -1.7493
14614TIP3   OH265332   5.636   6.024  14.302  0.7210  0.2033 -0.6993
14614TIP3    H165333   5.666   6.018  14.393 -1.4177 -0.1129  0.0569
14614TIP3    H265334   5.669   6.108  14.271  1.5138  0.3040  0.3477
14615TIP3   OH265335   0.854   5.385  14.278 -0.0154  0.2275 -0.3649
14615TIP3    H165336   0.889   5.318  14.219 -1.6985 -1.3488  0.3046
14615TIP3    H265337   0.921   5.395  14.345  1.2448  0.9186 -1.6609
14616TIP3   OH265338   2.450   4.137  11.361  0.8915  0.0990  0.4942
14616TIP3    H165339   2.414   4.225  11.355 -1.1611 -0.7353 -0.0617
14616TIP3    H265340   2.509   4.130  11.286  1.0260  0.9658  0.5118
14617TIP3   OH265341   4.998   0.034  14.241  0.1387  0.3275 -0.6436
14617TIP3    H165342   4.920   0.017  14.189 -0.6639 -1.8793  1.1449
14617TIP3    H265343   4.968   0.090  14.313 -0.3682 -2.1792  1.2095
14618TIP3   OH265344   3.942   5.621   1.662 -0.1242 -0.0451 -0.1864
14618TIP3    H165345   3.935   5.650   1.571 -2.3046  0.6016  0.1249
14618TIP3    H265346   3.864   5.568   1.676  0.0182  0.1389  1.3989
14619TIP3   OH265347   2.140   4.489   0.379  0.5289  0.2872  0.4406
14619TIP3    H165348   2.071   4.433   0.415 -1.8139  2.1913 -0.7902
14619TIP3    H265349   2.158   4.454   0.292  1.6400 -0.5817  0.9940
14620TIP3   OH265350   5.595   0.411  15.927 -0.4703  0.7644 -0.7520
14620TIP3    H165351   5.627   0.323  15.909  1.7268  2.0312 -3.7609
14620TIP3    H265352   5.528   0.399  15.995  0.1017 -3.0990 -0.6904
14621TIP3   OH265353   4.001   1.630   3.671 -0.2913 -0.0104  0.1318
14621TIP3    H165354   4.018   1.604   3.580  0.2214  0.3896  0.1142
14621TIP3    H265355   4.088   1.644   3.709 -0.4307 -1.5383  1.0923
14622TIP3   OH265356   3.259   6.302  16.950 -0.3560 -0.0563  0.9086
14622TIP3    H165357   3.239   6.208  16.948 -0.5226 -0.0580 -2.6303
14622TIP3    H265358   3.188   6.343  16.900 -1.3555  2.3174  3.9371
14623TIP3   OH265359   0.028   6.557   5.484  0.2650  0.3818  0.0892
14623TIP3    H165360   0.093   6.487   5.482  0.0394  0.1749 -0.0093
14623TIP3    H265361   0.055   6.617   5.415 -0.2007 -0.1997 -0.6075
14624TIP3   OH265362   1.638   1.611  15.958 -0.0398 -1.0024  0.4203
14624TIP3    H165363   1.644   1.643  16.048  0.3862  0.4602 -0.0916
14624TIP3    H265364   1.548   1.631  15.931  0.5649  0.9923 -0.2933
14625TIP3   OH265365   0.868   1.330   1.299 -0.7678 -0.2262 -0.2183
14625TIP3    H165366   0.920   1.250   1.289 -1.3809 -1.0821  2.5126
14625TIP3    H265367   0.932   1.398   1.320 -0.3653 -0.2360 -1.3418
14626TIP3   OH265368   2.338   3.891  16.941  0.1974  0.1343  0.1502
14626TIP3    H165369   2.279   3.962  16.917  0.7498  0.7328  0.5458
14626TIP3    H265370   2.398   3.929  17.005  0.3146 -0.7694  0.5986
14627TIP3   OH265371   2.506   0.142  15.350 -0.2621  0.2095  0.3371
14627TIP3    H165372   2.420   0.175  15.323 -0.7520 -1.6280 -0.5086
14627TIP3    H265373   2.563   0.159  15.275 -0.6598 -1.2719 -0.3518
14628TIP3   OH265374   4.888   3.301  11.730  0.0411  0.0941  0.0459
14628TIP3    H165375   4.937   3.225  11.762 -0.8236  0.8287  3.6277
14628TIP3    H265376   4.806   3.264  11.697 -0.7028 -0.5896  2.4636
14629TIP3   OH265377   3.227   4.648   1.209 -0.0283 -0.2115  0.1126
14629TIP3    H165378   3.157   4.583   1.195  0.0100 -0.3956  0.7246
14629TIP3    H265379   3.308   4.601   1.188  0.1404 -0.8914  2.0836
14630TIP3   OH265380   1.238   0.143  15.923 -0.4802 -0.1494  0.3057
14630TIP3    H165381   1.192   0.151  16.007 -0.5016 -0.2549  0.3043
14630TIP3    H265382   1.217   0.223  15.876 -2.5663 -1.1986 -0.6513
14631TIP3   OH265383   3.990   5.521   5.060  0.7060 -0.7463 -0.1433
14631TIP3    H165384   4.052   5.452   5.082  1.8307  0.6263  1.2623
14631TIP3    H265385   3.918   5.509   5.122  0.9507 -0.6059  0.1704
14632TIP3   OH265386   6.042   0.707  10.926  0.1130 -0.7304  0.3274
14632TIP3    H165387   6.111   0.774  10.928 -0.6094  0.2149 -2.5970
14632TIP3    H265388   5.961   0.757  10.915 -0.5588 -2.0238 -0.8013
14633TIP3   OH265389   0.913   1.648  15.251 -0.1874  0.0495 -0.2850
14633TIP3    H165390   0.817   1.648  15.247 -0.3053  1.6454  1.2617
14633TIP3    H265391   0.935   1.566  15.294 -0.7983 -0.6360 -1.2411
14634TIP3   OH265392   1.064   6.874   4.103 -0.2634 -0.7847 -0.0964
14634TIP3    H165393   1.101   6.809   4.044 -0.9373 -2.8986  1.6637
14634TIP3    H265394   1.123   6.874   4.179 -0.7775 -0.0070  0.3275
14635TIP3   OH265395   5.012   2.407  14.571  0.0038  0.0131  0.6574
14635TIP3    H165396   4.934   2.368  14.530  0.0962 -0.0128  0.5055
14635TIP3    H265397   5.012   2.373  14.660 -1.4225  1.7371  1.4015
14636TIP3   OH265398   3.496   0.934  16.166  0.4338  0.1581 -0.1827
14636TIP3    H165399   3.501   0.881  16.246  0.0160  1.1899  0.5550
14636TIP3    H265400   3.586   0.958  16.148  0.3783  1.4371  1.0574
14637TIP3   OH265401   1.804   1.108  16.517 -0.3177  0.2827 -0.0814
14637TIP3    H165402   1.811   1.013  16.508  1.3610  0.2933  0.7068
14637TIP3    H265403   1.834   1.126  16.606  0.6639  1.6441 -0.6589
14638TIP3   OH265404   3.806   0.817   4.873  0.1433 -0.1594 -0.0776
14638TIP3    H165405   3.745   0.888   4.855 -0.3449 -0.7966 -1.0073
14638TIP3    H265406   3.847   0.841   4.956 -0.1720  1.0916 -0.2663
14639TIP3   OH265407   5.518   4.251  15.642  0.5566 -0.0347  0.0215
14639TIP3    H165408   5.611   4.229  15.643  1.3646  2.4935  4.0920
14639TIP3    H265409   5.479   4.197  15.711 -0.3982  0.7286  0.1169
14640TIP3   OH265410   0.273   0.129   3.961 -0.3425 -0.0687  0.0642
14640TIP3    H165411   0.202   0.141   4.024 -0.5998  0.0583 -0.2528
14640TIP3    H265412   0.231   0.089   3.885 -0.3431  1.3030 -0.6759
14641TIP3   OH265413   1.897   3.869  13.716 -0.0127 -0.0461  0.0082
14641TIP3    H165414   1.952   3.945  13.736  0.3530 -0.2099 -0.3590
14641TIP3    H265415   1.926   3.841  13.629 -0.9149  0.0741 -0.3392
14642TIP3   OH265416   5.945   0.729   2.401  0.8863 -0.1550  0.0340
14642TIP3    H165417   5.930   0.817   2.365 -0.2416 -0.7345 -0.9771
14642TIP3    H265418   6.040   0.723   2.408  1.1205  0.3612 -1.9845
14643TIP3   OH265419   5.411   1.761  12.978 -0.4831 -0.0243 -0.2387
14643TIP3    H165420   5.400   1.854  12.999  2.4322  0.4260 -0.3938
14643TIP3    H265421   5.404   1.717  13.063  0.5949  0.6399  0.2155
14644TIP3   OH265422   1.486   4.358   3.412  0.1821  0.1994 -0.4391
14644TIP3    H165423   1.578   4.382   3.399  0.1951 -0.3567 -1.4999
14644TIP3    H265424   1.445   4.372   3.327 -0.3510 -1.1141 -0.4314
14645TIP3   OH265425   2.073   4.268  11.428  0.6581 -0.4567  0.1858
14645TIP3    H165426   2.110   4.251  11.514 -0.3967  0.6797  0.9077
14645TIP3    H265427   2.084   4.186  11.380  1.1549 -1.1509  1.4467
14646TIP3   OH265428   0.988   1.099   0.752  0.0180  0.0890 -0.1145
14646TIP3    H165429   0.978   1.042   0.676  1.4111 -0.3255 -0.0195
14646TIP3    H265430   0.988   1.188   0.717 -0.1375 -0.0627 -0.4989
14647TIP3   OH265431   6.073   1.170   0.754 -0.1295 -0.1591  0.1986
14647TIP3    H165432   6.168   1.159   0.746  0.1314  2.0003 -0.2494
14647TIP3    H265433   6.062   1.253   0.800 -1.7550  0.8578 -1.8334
14648TIP3   OH265434   1.201   2.364  13.465 -0.1863  0.0363 -0.0957
14648TIP3    H165435   1.259   2.420  13.414  0.6860 -0.2270  0.5742
14648TIP3    H265436   1.256   2.290  13.492 -1.2733 -1.0892 -0.8502
14649TIP3   OH265437   0.106   4.979   4.056  0.0689 -0.3636  0.2337
14649TIP3    H165438   0.143   4.911   3.999  2.1929 -0.0907  1.2082
14649TIP3    H265439   0.167   5.052   4.049 -2.4927  1.7910 -1.2880
14650TIP3   OH265440   1.115   0.765   5.226  0.3268 -0.1410  0.0642
14650TIP3    H165441   1.101   0.859   5.228  3.2561  0.4153 -0.8644
14650TIP3    H265442   1.044   0.732   5.170 -1.5678  1.2502  1.5101
14651TIP3   OH265443   0.236   6.468  12.826  0.0302  0.5161  0.7686
14651TIP3    H165444   0.255   6.557  12.797 -0.9420  1.3099  2.4388
14651TIP3    H265445   0.283   6.459  12.909  0.3115 -0.6186  0.5070
14652TIP3   OH265446   1.033   6.373  15.323  0.3349 -0.1557  0.1196
14652TIP3    H165447   1.028   6.368  15.418  0.4971 -0.0920  0.1328
14652TIP3    H265448   0.986   6.453  15.300  1.1053  0.3453  0.2249
14653TIP3   OH265449   5.054   2.348   2.134  0.5036 -0.1124  0.1465
14653TIP3    H165450   5.077   2.261   2.102  1.1995  0.3471 -0.6615
14653TIP3    H265451   5.048   2.402   2.055  1.3045  0.8401  0.7081
14654TIP3   OH265452   6.331   6.572   4.290 -0.1137 -0.5417 -0.7092
14654TIP3    H165453   6.416   6.543   4.256 -0.4780  0.3594 -2.5530
14654TIP3    H265454   6.267   6.515   4.247 -0.5175 -0.3813 -0.3292
14655TIP3   OH265455   2.197   3.630   4.534  0.0222 -0.5498 -0.1492
14655TIP3    H165456   2.274   3.587   4.572  0.1906 -0.5918 -0.5278
14655TIP3    H265457   2.123   3.574   4.558  0.2169 -0.9487 -0.4760
14656TIP3   OH265458   6.619   3.033  16.609 -0.3068  0.1659 -0.2192
14656TIP3    H165459   6.625   2.939  16.596  2.6615  0.3951 -1.4412
14656TIP3    H265460   6.668   3.049  16.690 -0.2336  0.6940 -0.3622
14657TIP3   OH265461   0.623   2.146   4.642 -0.3078 -0.2188 -0.6688
14657TIP3    H165462   0.717   2.163   4.632 -0.2526  0.2717  0.5344
14657TIP3    H265463   0.582   2.199   4.574  0.2353  0.2021 -0.6757
14658TIP3   OH265464   6.617   5.380   2.525  0.0516 -0.6041  0.4424
14658TIP3    H165465   6.555   5.312   2.552 -0.7292  0.8442  2.5555
14658TIP3    H265466   6.631   5.364   2.431 -1.3812 -2.6257  0.5084
14659TIP3   OH265467   0.127   0.744   3.325  1.0199  0.2610 -0.5032
14659TIP3    H165468   0.114   0.712   3.415  0.9479 -0.7583 -0.8602
14659TIP3    H265469   0.093   0.834   3.326  1.6820  0.5209  0.6682
14660TIP3   OH265470   1.410   2.114  16.860  0.0967  0.2792 -0.0501
14660TIP3    H165471   1.331   2.162  16.835 -1.2051 -0.8504  1.6583
14660TIP3    H265472   1.446   2.165  16.933 -0.5350 -0.5717  0.8763
14661TIP3   OH265473   0.442   0.453   2.625 -0.6652 -0.1631  0.1081
14661TIP3    H165474   0.456   0.460   2.720  0.4466 -2.5469  0.2001
14661TIP3    H265475   0.415   0.541   2.598 -0.0405  0.8369  2.4731
14662TIP3   OH265476   0.341   4.085  11.840 -0.4847  0.3828  0.3998
14662TIP3    H165477   0.391   4.163  11.863  1.3674  0.5610 -3.4288
14662TIP3    H265478   0.407   4.020  11.816 -2.0285 -1.1122 -0.0176
14663TIP3   OH265479   2.573   2.516  14.259 -0.0281 -0.1290  0.2235
14663TIP3    H165480   2.504   2.561  14.308 -0.4110 -0.5595  0.0855
14663TIP3    H265481   2.526   2.454  14.204  0.5018 -0.8406  0.5565
14664TIP3   OH265482   4.181   1.991   1.735 -0.3082  0.1217  0.2928
14664TIP3    H165483   4.170   2.033   1.820 -1.2460  0.0761  0.2021
14664TIP3    H265484   4.270   2.014   1.708 -0.2551  0.7229  0.9622
14665TIP3   OH265485   4.861   0.939   3.274 -0.1108 -0.3468 -0.7969
14665TIP3    H165486   4.907   1.012   3.233 -2.1205  1.0724 -0.6526
14665TIP3    H265487   4.803   0.904   3.206 -1.2582  0.0810 -0.0781
14666TIP3   OH265488   0.349   1.685  15.064  0.8167  0.0460  0.2212
14666TIP3    H165489   0.287   1.739  15.015  1.0706  0.0976 -0.0423
14666TIP3    H265490   0.306   1.670  15.149  0.4957  0.1785  0.0822
14667TIP3   OH265491   5.813   4.761  14.659  0.6169  0.0299  1.0177
14667TIP3    H165492   5.827   4.851  14.630  0.2631  0.0002  0.7555
14667TIP3    H265493   5.820   4.766  14.755 -1.7824  0.7830  1.2142
14668TIP3   OH265494   5.302   3.534  11.816 -0.0612  0.0951 -0.2092
14668TIP3    H165495   5.323   3.458  11.871  0.0974  0.8212  0.7425
14668TIP3    H265496   5.280   3.603  11.877 -0.4171  0.7707 -1.0816
14669TIP3   OH265497   1.038   5.962   2.172  0.1538 -0.2579  0.1556
14669TIP3    H165498   1.079   6.019   2.237 -1.6175  0.1514  0.9799
14669TIP3    H265499   0.992   6.023   2.114  0.5456 -0.7111 -0.6434
14670TIP3   OH265500   0.680   2.238   2.375 -0.1910 -1.1107 -0.0546
14670TIP3    H165501   0.719   2.158   2.339 -0.3303 -1.3413  0.3055
14670TIP3    H265502   0.588   2.234   2.348 -0.0207 -0.6707 -0.7239
14671TIP3   OH265503   5.382   3.036  16.584 -0.6554  0.2712  0.3931
14671TIP3    H165504   5.417   3.073  16.665 -1.3607  1.8378  0.0199
14671TIP3    H265505   5.291   3.014  16.605 -0.8649  0.7548  0.0388
14672TIP3   OH265506   4.248   5.762  16.881 -0.1983  0.0501  0.0603
14672TIP3    H165507   4.165   5.781  16.925  0.5326  1.6590  0.8178
14672TIP3    H265508   4.237   5.799  16.793 -0.2101  0.5223  0.2528
14673TIP3   OH265509   5.834   4.914  11.030 -0.9037  0.0252  0.2560
14673TIP3    H165510   5.766   4.972  11.062 -1.0988  1.1734 -2.0506
14673TIP3    H265511   5.910   4.971  11.015  0.2086 -1.0191  1.6128
14674TIP3   OH265512   4.435   6.538   3.431 -0.4759 -0.4310 -0.9425
14674TIP3    H165513   4.482   6.536   3.514 -2.3567  0.1226  0.1877
14674TIP3    H265514   4.468   6.616   3.386 -0.5555  0.1432 -0.0269
14675TIP3   OH265515   4.264   2.673  15.660 -0.3383 -0.0095 -0.2641
14675TIP3    H165516   4.300   2.719  15.584  1.8155 -0.1984  0.5969
14675TIP3    H265517   4.228   2.743  15.715  0.6803  0.4293 -0.1314
14676TIP3   OH265518   2.208   6.639   1.546  0.3205 -0.6421 -0.4178
14676TIP3    H165519   2.146   6.638   1.619  0.6264 -0.5951 -0.1518
14676TIP3    H265520   2.194   6.724   1.504 -0.7387 -1.1788 -1.1931
14677TIP3   OH265521   3.498   3.721   0.038 -0.1307  0.1896  0.0323
14677TIP3    H165522   3.419   3.723  -0.014  0.0660  1.7615 -0.2574
14677TIP3    H265523   3.557   3.784  -0.004  1.4670 -1.2934 -0.0507
14678TIP3   OH265524   4.189   4.496   1.724 -0.3667 -0.0356 -0.1665
14678TIP3    H165525   4.231   4.446   1.794  0.3449  1.2287  0.3443
14678TIP3    H265526   4.173   4.582   1.762 -1.9122  0.0416 -0.9027
14679TIP3   OH265527   2.714   6.563   6.139 -0.1822 -0.3592  0.0781
14679TIP3    H165528   2.771   6.530   6.070 -2.3441 -1.3698 -1.3509
14679TIP3    H265529   2.730   6.506   6.213  2.8957  1.3390  0.8724
14680TIP3   OH265530   3.664   6.323  16.479  0.5934  0.3003  0.0072
14680TIP3    H165531   3.640   6.412  16.503 -3.0498  0.1418 -2.3341
14680TIP3    H265532   3.617   6.267  16.541  1.0143 -0.0076  0.0533
14681TIP3   OH265533   2.719   3.238   1.971 -0.7066  0.0728 -0.3374
14681TIP3    H165534   2.639   3.189   1.953 -1.8316  1.2451  1.2109
14681TIP3    H265535   2.785   3.171   1.989 -0.7761 -1.0008 -3.3849
14682TIP3   OH265536   6.162   6.739  14.308 -0.1971  0.1518 -0.3064
14682TIP3    H165537   6.212   6.700  14.380  1.4314  3.4587  0.5662
14682TIP3    H265538   6.111   6.810  14.350 -0.8088  0.8423 -2.1210
14683TIP3   OH265539   5.541   3.976   5.413 -0.2251  0.1926 -0.0930
14683TIP3    H165540   5.467   3.923   5.383 -0.6962 -0.2282  1.6683
14683TIP3    H265541   5.537   3.971   5.509  0.4020  2.4871  0.1270
14684TIP3   OH265542   0.374   2.317   3.728  0.2912  0.7574 -0.5478
14684TIP3    H165543   0.279   2.317   3.722  0.2011 -2.2861 -0.6095
14684TIP3    H265544   0.393   2.371   3.805 -1.4516  1.5377 -0.6327
14685TIP3   OH265545   0.252   0.013  16.847  0.2981  0.0195 -0.9617
14685TIP3    H165546   0.248  -0.083  16.856 -0.7763  0.0972 -0.4895
14685TIP3    H265547   0.162   0.042  16.865  0.9974  1.2683  0.6936
14686TIP3   OH265548   6.314   6.660   0.754 -0.0271  0.2325  0.2049
14686TIP3    H165549   6.377   6.589   0.768 -0.4299  0.2537  2.5249
14686TIP3    H265550   6.278   6.678   0.841 -1.7425  1.6278 -0.7229
14687TIP3   OH265551   4.819   3.825  16.436 -0.0552 -0.2441  0.4827
14687TIP3    H165552   4.896   3.773  16.458  0.7015  1.3318  1.7792
14687TIP3    H265553   4.832   3.850  16.345  1.8195  1.3189  1.1152
14688TIP3   OH265554   6.718   6.217  13.327 -0.4679  0.2035  0.3892
14688TIP3    H165555   6.747   6.262  13.406  0.0651 -0.3180  0.4938
14688TIP3    H265556   6.764   6.261  13.255 -0.0599 -0.0699  0.4785
14689TIP3   OH265557   2.440   5.308   4.775  0.2848 -0.2245  0.1139
14689TIP3    H165558   2.451   5.261   4.857 -0.3191 -0.5983 -0.0138
14689TIP3    H265559   2.502   5.381   4.781  1.6574 -1.3423  0.0725
14690TIP3   OH265560   0.123   0.817  13.585  0.0645 -0.1235  0.3705
14690TIP3    H165561   0.171   0.739  13.614 -1.6875 -1.0610  0.8468
14690TIP3    H265562   0.031   0.793  13.593 -0.5138  1.1848 -1.7542
14691TIP3   OH265563   4.444   6.080  16.158 -0.5359  0.2167  0.1211
14691TIP3    H165564   4.378   6.014  16.136 -1.2432  0.9626 -0.0617
14691TIP3    H265565   4.469   6.059  16.248  1.1069 -1.8045 -0.7237
14692TIP3   OH265566   4.711   5.227   3.917 -0.0974  0.2615  0.2256
14692TIP3    H165567   4.649   5.281   3.867 -0.4027  0.3979  0.7400
14692TIP3    H265568   4.683   5.137   3.899  0.5526  0.2583 -0.8113
14693TIP3   OH265569   1.316   6.489  13.231  0.8125  0.4219  0.7296
14693TIP3    H165570   1.295   6.492  13.138 -2.5205  0.2485  1.3512
14693TIP3    H265571   1.346   6.577  13.252  0.7724  0.7058 -0.3404
14694TIP3   OH265572   2.378   5.674   3.294 -0.3013  0.2158 -0.4195
14694TIP3    H165573   2.360   5.751   3.240 -0.4503 -0.4301 -1.3255
14694TIP3    H265574   2.294   5.631   3.303 -0.1966  0.0946 -0.0195
14695TIP3   OH265575   1.181   5.510  12.533  0.7302 -0.0575  0.2109
14695TIP3    H165576   1.215   5.500  12.444  0.4848 -1.0340  0.2173
14695TIP3    H265577   1.175   5.604  12.546  2.8497  0.1412 -0.0018
14696TIP3   OH265578   4.622   2.287  12.712 -0.4049 -0.2421 -0.5833
14696TIP3    H165579   4.551   2.277  12.776 -0.8100 -1.6035 -1.2172
14696TIP3    H265580   4.672   2.205  12.719  0.3865  0.1932 -1.0229
14697TIP3   OH265581   6.112   1.099  16.661 -0.6068  0.3054  0.0807
14697TIP3    H165582   6.089   1.060  16.577  1.0112 -0.2677 -0.1293
14697TIP3    H265583   6.140   1.026  16.716  2.3071  1.0132 -0.2596
14698TIP3   OH265584   4.527   1.114   4.131 -0.1845  0.2771 -0.9708
14698TIP3    H165585   4.544   1.080   4.043  0.1920  1.5435 -1.4085
14698TIP3    H265586   4.574   1.197   4.134 -0.0741  0.1882  0.4848
14699TIP3   OH265587   0.599   6.333   1.001  0.4515  0.3137  0.1342
14699TIP3    H165588   0.657   6.266   0.965  0.4571  0.7158 -0.6521
14699TIP3    H265589   0.530   6.343   0.934 -0.4911 -0.1036  1.0167
14700TIP3   OH265590   6.690   3.837   4.121 -0.4971  0.3504  0.5331
14700TIP3    H165591   6.756   3.841   4.051 -0.9853  0.1458  0.0527
14700TIP3    H265592   6.620   3.895   4.091 -1.6853 -1.3731 -0.2045
14701TIP3   OH265593   6.025   3.169  12.249 -0.5258 -0.0014 -0.3524
14701TIP3    H165594   6.015   3.074  12.241  1.0025 -0.2071 -0.0435
14701TIP3    H265595   5.943   3.198  12.290 -0.1247 -1.4869  1.6421
14702TIP3   OH265596   5.285   1.876   4.887  0.2179  0.2728 -0.1373
14702TIP3    H165597   5.245   1.954   4.848 -1.2377 -0.4447 -0.1675
14702TIP3    H265598   5.270   1.885   4.981 -1.4190 -0.6920 -0.2617
14703TIP3   OH265599   6.133   2.163  15.742  0.4035 -0.4510  0.0795
14703TIP3    H165600   6.042   2.184  15.760  0.8116  0.5051  1.1529
14703TIP3    H265601   6.159   2.225  15.674  0.6613  0.3217  0.8606
14704TIP3   OH265602   4.666   4.479  13.726 -0.1881  0.1946  0.0294
14704TIP3    H165603   4.731   4.475  13.656 -0.9895  0.8349 -0.7941
14704TIP3    H265604   4.653   4.389  13.753 -0.7887 -0.2343 -1.5597
14705TIP3   OH265605   1.949   2.209  13.689 -0.2485  0.6719 -0.4185
14705TIP3    H165606   1.935   2.288  13.636 -3.2656 -0.6056 -1.8182
14705TIP3    H265607   1.977   2.143  13.625  0.5675  0.1955  0.4214
14706TIP3   OH265608   3.447   3.584   5.418  0.3877 -0.5014 -0.0962
14706TIP3    H165609   3.473   3.675   5.401  0.7543 -0.4963  0.4706
14706TIP3    H265610   3.406   3.587   5.505 -0.1196 -0.7785 -0.3228
14707TIP3   OH265611   2.625   1.505   4.331  0.2592  0.3688  0.2681
14707TIP3    H165612   2.677   1.435   4.371  1.1886 -0.6867 -2.5847
14707TIP3    H265613   2.678   1.535   4.257 -1.0985  2.6489  0.1359
14708TIP3   OH265614   0.135   0.583  12.593 -0.2143 -0.2049 -0.6975
14708TIP3    H165615   0.228   0.590  12.613 -0.5037  0.3594  0.5228
14708TIP3    H265616   0.133   0.557  12.501  1.1390  0.6110 -0.9959
14709TIP3   OH265617   5.073   4.823  14.451 -0.0329 -0.0008  0.5168
14709TIP3    H165618   5.035   4.739  14.425  0.0360  0.2546 -0.4387
14709TIP3    H265619   5.163   4.802  14.476  0.5082  0.0019 -1.2939
14710TIP3   OH265620   4.075   5.008   5.307 -0.0932 -0.3006 -0.7962
14710TIP3    H165621   4.056   4.917   5.281 -0.0337 -0.4802 -0.2261
14710TIP3    H265622   4.141   5.037   5.245  2.1205 -1.6406  0.8008
14711TIP3   OH265623   6.059   6.008  16.636 -0.0282 -0.0647  0.1037
14711TIP3    H165624   6.026   6.052  16.715  0.3400  1.5312 -0.6025
14711TIP3    H265625   6.008   5.927  16.632 -0.7999  0.3143  1.3960
14712TIP3   OH265626   3.757   2.103  16.557 -0.1073  0.4045  0.4405
14712TIP3    H165627   3.819   2.030  16.559 -0.4110  0.1443  0.4361
14712TIP3    H265628   3.705   2.087  16.478  0.2708  0.9983  0.0650
14713TIP3   OH265629   5.799   2.593   3.704 -0.0619 -0.2373  0.0436
14713TIP3    H165630   5.809   2.498   3.712  1.8320 -0.0251  0.7133
14713TIP3    H265631   5.804   2.625   3.794  0.6006  0.6036 -0.2834
14714TIP3   OH265632   2.033   6.408  15.477 -0.3605 -0.2104 -0.2938
14714TIP3    H165633   2.001   6.497  15.486  3.7245  1.4283  0.2108
14714TIP3    H265634   2.032   6.372  15.565 -0.7253 -0.2051 -0.2929
14715TIP3   OH265635   5.293   2.706  14.361 -0.0841 -0.4156  0.0597
14715TIP3    H165636   5.338   2.681  14.441 -0.6646 -0.8016  0.2752
14715TIP3    H265637   5.348   2.775  14.323  0.1752 -0.1922  0.8138
14716TIP3   OH265638   3.246   0.923   0.565  0.3926  0.2490  0.2179
14716TIP3    H165639   3.231   0.932   0.470  0.2966 -0.3190  0.1727
14716TIP3    H265640   3.240   0.829   0.580  1.6874  0.2178  0.5844
14717TIP3   OH265641   5.240   5.259  14.130 -0.2731  0.1505  0.3375
14717TIP3    H165642   5.286   5.176  14.138 -0.7509 -0.1758 -0.2329
14717TIP3    H265643   5.166   5.251  14.190 -1.4277 -0.6167 -1.1422
14718TIP3   OH265644   4.289   1.409  11.204 -0.1606  0.2980  0.3713
14718TIP3    H165645   4.279   1.426  11.110  1.5099  0.1275  0.1427
14718TIP3    H265646   4.335   1.325  11.209 -2.1274 -0.8014  1.4037
14719TIP3   OH265647   1.618   6.747   2.761 -0.5761  0.2410 -0.5485
14719TIP3    H165648   1.565   6.711   2.832 -0.2762 -2.2151 -1.4630
14719TIP3    H265649   1.708   6.743   2.793 -0.4747 -0.5499 -0.8978
14720TIP3   OH265650   1.650   6.123   6.464 -0.9180 -0.1117 -0.7408
14720TIP3    H165651   1.565   6.155   6.496  0.4055  1.1919  1.7998
14720TIP3    H265652   1.648   6.139   6.370 -2.5692  2.1740 -0.3984
14721TIP3   OH265653   4.062   3.070   1.445 -0.0989 -0.4600  0.0717
14721TIP3    H165654   4.046   3.118   1.364 -0.1822 -1.1051 -0.2998
14721TIP3    H265655   4.082   3.138   1.510  2.7112 -0.0220 -1.0831
14722TIP3   OH265656   3.841   0.441  15.465  0.4123 -0.0033 -0.7530
14722TIP3    H165657   3.914   0.501  15.481 -0.4222  1.2498 -1.4871
14722TIP3    H265658   3.852   0.414  15.374  0.6514 -0.7940 -0.4925
14723TIP3   OH265659   6.777   4.532  11.556  0.6856 -0.1028  0.3976
14723TIP3    H165660   6.844   4.491  11.501  0.4800 -1.2768  0.9986
14723TIP3    H265661   6.700   4.475  11.547  0.6378 -0.3061  1.8723
14724TIP3   OH265662   2.737   4.839  14.125  0.1281 -0.3137 -0.2373
14724TIP3    H165663   2.690   4.763  14.161  0.4998 -0.1425  0.6186
14724TIP3    H265664   2.759   4.812  14.035 -0.4735 -0.8925 -0.2220
14725TIP3   OH265665   5.618   1.837   4.368 -0.0323 -0.1434  0.5273
14725TIP3    H165666   5.600   1.925   4.401 -0.9529  0.0547 -0.4610
14725TIP3    H265667   5.678   1.800   4.433  0.6090  1.3058  0.8256
14726TIP3   OH265668   4.197   1.522  14.986  0.0230 -0.1315  0.5273
14726TIP3    H165669   4.233   1.602  15.025 -1.0702  0.5098  0.2610
14726TIP3    H265670   4.102   1.535  14.990 -0.1791 -1.5462  0.7383
14727TIP3   OH265671   1.252   3.784  13.714  0.1591  0.1339  0.1695
14727TIP3    H165672   1.204   3.718  13.762 -1.3465  1.7719  1.0398
14727TIP3    H265673   1.304   3.830  13.780  0.7233  0.2192 -0.3185
14728TIP3   OH265674   4.975   6.178  13.655  0.1750 -0.1559  0.0944
14728TIP3    H165675   4.891   6.136  13.639  0.9869 -2.7673  2.0072
14728TIP3    H265676   5.015   6.186  13.569 -1.6490  0.3785 -0.7527
14729TIP3   OH265677   3.769   6.866  12.171  0.1996  0.4093 -0.1276
14729TIP3    H165678   3.704   6.920  12.215 -0.6390  0.1841 -1.0457
14729TIP3    H265679   3.723   6.830  12.095  1.2820 -0.0839 -0.5758
14730TIP3   OH265680   2.778   4.126  12.654 -0.4078  0.0944 -0.1761
14730TIP3    H165681   2.850   4.085  12.702 -1.1551 -0.6679  0.3171
14730TIP3    H265682   2.798   4.220  12.655 -0.2409  0.0560  1.3324
14731TIP3   OH265683   3.000   6.151  12.947 -0.5198 -0.2369 -0.5452
14731TIP3    H165684   3.033   6.236  12.917 -1.1680  0.0662 -0.4029
14731TIP3    H265685   3.025   6.090  12.878 -1.2677  0.3096 -1.3213
14732TIP3   OH265686   5.398   5.169  12.232  0.0207  0.1044 -0.3236
14732TIP3    H165687   5.361   5.213  12.308  0.7953  1.6125 -0.7654
14732TIP3    H265688   5.399   5.077  12.255 -0.2917  0.4662  1.2522
14733TIP3   OH265689   1.154   2.628  12.448 -0.2165  0.5684  0.6304
14733TIP3    H165690   1.073   2.591  12.414  0.6163 -0.8454  0.0789
14733TIP3    H265691   1.147   2.722  12.432 -1.2421  0.3188 -0.4799
14734TIP3   OH265692   0.309   4.607   0.737 -0.2944 -0.3019  0.5727
14734TIP3    H165693   0.392   4.643   0.706  0.0766 -1.8392 -0.2889
14734TIP3    H265694   0.332   4.562   0.819 -0.2935 -0.6481  0.3826
14735TIP3   OH265695   3.362   0.095  12.120  0.3401 -0.0730 -0.4956
14735TIP3    H165696   3.286   0.102  12.062  0.9326 -1.0984 -1.4246
14735TIP3    H265697   3.326   0.059  12.201 -0.0008 -1.8546 -1.3802
14736TIP3   OH265698   2.497   2.182   0.969  0.1783 -0.1746 -0.4645
14736TIP3    H165699   2.404   2.198   0.988  0.1038  0.5013 -1.3143
14736TIP3    H265700   2.521   2.252   0.909  2.1194  1.6476  2.2251
14737TIP3   OH265701   0.411   0.349   1.102 -0.1861  0.2250  0.6153
14737TIP3    H165702   0.363   0.400   1.037  1.5430  0.2626 -0.7289
14737TIP3    H265703   0.348   0.287   1.137 -1.4094  0.8528 -0.4094
14738TIP3   OH265704   1.822   4.113   5.282 -0.0336  0.2137 -0.5893
14738TIP3    H165705   1.886   4.133   5.213 -0.4848  1.5400 -0.6550
14738TIP3    H265706   1.828   4.187   5.342  0.7356 -1.1810  1.1215
14739TIP3   OH265707   6.255   3.055  11.976  0.0076  0.1826 -0.1867
14739TIP3    H165708   6.178   3.063  11.920 -0.0449 -0.6788 -0.2396
14739TIP3    H265709   6.324   3.101  11.928 -0.5868  1.4254  0.1072
14740TIP3   OH265710   1.198   2.481  13.844 -0.1520  0.1593 -0.3436
14740TIP3    H165711   1.105   2.469  13.827 -1.0518  1.0381  3.1420
14740TIP3    H265712   1.234   2.393  13.849 -1.5173 -0.3499  1.3118
14741TIP3   OH265713   1.871   0.980   6.188  0.1853  0.1137  0.1015
14741TIP3    H165714   1.955   0.947   6.218  0.1736  1.3551  1.6549
14741TIP3    H265715   1.810   0.960   6.259 -0.3354  1.2059 -0.0053
14742TIP3   OH265716   3.513   0.898  12.524  0.0149 -0.3998 -0.1450
14742TIP3    H165717   3.493   0.836  12.594 -0.6973  0.6609  0.6208
14742TIP3    H265718   3.541   0.843  12.450 -1.7439 -1.7248  0.1157
14743TIP3   OH265719   1.143   5.736  16.386 -0.2173 -0.0485  0.5066
14743TIP3    H165720   1.102   5.820  16.365 -0.1073  0.4604  2.1960
14743TIP3    H265721   1.081   5.692  16.443 -1.2628 -2.1193 -1.9817
14744TIP3   OH265722   2.003   5.877   5.175  0.5643  0.2422 -0.3916
14744TIP3    H165723   2.087   5.833   5.161  0.9012  0.4608  0.8136
14744TIP3    H265724   1.943   5.834   5.115  1.2591 -0.7562 -0.3969
14745TIP3   OH265725   1.111   4.063   3.475  0.5966 -0.3449  0.1482
14745TIP3    H165726   1.159   3.984   3.498  0.5008 -0.0807  1.2929
14745TIP3    H265727   1.124   4.072   3.380  1.2848 -1.2715  0.1435
14746TIP3   OH265728   6.194   2.711  15.192 -0.3247 -0.2952 -0.6300
14746TIP3    H165729   6.196   2.800  15.227 -0.8941 -0.4444 -0.2115
14746TIP3    H265730   6.109   2.677  15.218  0.5135 -1.5320  0.5911
14747TIP3   OH265731   1.095   1.022   1.004 -0.5544 -0.1471  0.1684
14747TIP3    H165732   1.189   1.003   1.011 -0.7900 -1.4430 -0.0537
14747TIP3    H265733   1.083   1.049   0.913 -0.0881  2.0141  0.6713
14748TIP3   OH265734   4.445   6.200   4.243 -0.0711  0.7587 -0.4629
14748TIP3    H165735   4.521   6.152   4.276  0.7438  1.9300 -0.5636
14748TIP3    H265736   4.393   6.219   4.320 -0.6657 -0.6676 -0.4715
14749TIP3   OH265737   3.915   2.818  11.303  0.0518 -0.1768  0.3703
14749TIP3    H165738   3.956   2.762  11.369  0.9369 -2.2642 -1.8077
14749TIP3    H265739   3.985   2.875  11.272  0.2945 -0.9034 -0.4558
14750TIP3   OH265740   0.239   4.576  11.516 -0.5313 -0.8239 -0.7202
14750TIP3    H165741   0.330   4.595  11.539 -0.6092 -0.5201 -0.6597
14750TIP3    H265742   0.209   4.517  11.585 -0.4380 -0.7689 -0.6314
14751TIP3   OH265743   5.058   5.348  15.464  0.0644 -0.3117 -0.0648
14751TIP3    H165744   5.012   5.264  15.457 -0.2794 -0.0468 -1.2975
14751TIP3    H265745   5.066   5.378  15.373  1.8837  0.0857  0.1836
14752TIP3   OH265746   1.955   1.321   1.163  0.2663  0.1363  0.3305
14752TIP3    H165747   1.899   1.266   1.218  0.1489 -0.2896 -0.2020
14752TIP3    H265748   1.990   1.387   1.222 -1.2248  0.7416  0.5764
14753TIP3   OH265749   2.528   3.776   4.584 -0.7876 -0.1188 -0.0103
14753TIP3    H165750   2.610   3.734   4.559 -0.0763  1.7127 -0.9150
14753TIP3    H265751   2.531   3.778   4.680  0.9826  1.2695 -0.0470
14754TIP3   OH265752   5.371   4.817  11.919  0.4478 -0.1053  0.3095
14754TIP3    H165753   5.360   4.722  11.915 -1.4808  0.0367  0.8613
14754TIP3    H265754   5.299   4.850  11.865  1.3348  1.0482 -0.1971
14755TIP3   OH265755   0.270   2.415  16.255  0.2280 -0.0406  0.4920
14755TIP3    H165756   0.308   2.433  16.169  1.0098 -0.3761  0.7536
14755TIP3    H265757   0.199   2.478  16.264  0.1158 -0.0321 -0.4134
14756TIP3   OH265758   1.749   0.583  14.749 -0.0911 -0.0516 -0.6904
14756TIP3    H165759   1.760   0.491  14.775  0.6432  0.9056  2.9666
14756TIP3    H265760   1.823   0.600  14.691  0.7801 -1.3508 -0.0225
14757TIP3   OH265761   1.730   4.914  16.511 -0.3470 -0.1614  0.0662
14757TIP3    H165762   1.811   4.870  16.539 -1.6699 -3.1468 -0.3888
14757TIP3    H265763   1.726   4.897  16.416 -0.7822  1.2560 -0.1824
14758TIP3   OH265764   2.624   3.874   1.882  0.0756 -0.0410  0.2535
14758TIP3    H165765   2.550   3.814   1.883 -0.5306  0.6829 -0.5712
14758TIP3    H265766   2.597   3.948   1.937  1.3447 -1.0637  2.4362
14759TIP3   OH265767   0.685   1.649  14.335  0.7976 -0.0291  0.2600
14759TIP3    H165768   0.670   1.666  14.428  0.4678  1.8967 -0.1062
14759TIP3    H265769   0.614   1.694  14.291  1.2678 -0.4484 -0.9741
14760TIP3   OH265770   3.249   5.884   0.851 -0.1862  0.1916  1.0763
14760TIP3    H165771   3.249   5.865   0.945 -0.4273  1.9479  1.4730
14760TIP3    H265772   3.292   5.970   0.844  1.0221 -0.5038 -0.5693
14761TIP3   OH265773   5.983   3.106  13.739  0.0575 -0.6667 -0.3365
14761TIP3    H165774   5.894   3.078  13.717 -0.1002 -0.0662 -0.4901
14761TIP3    H265775   5.973   3.163  13.815  0.2241 -0.0396 -0.7717
14762TIP3   OH265776   1.095   6.626   6.386  0.2178  0.6260 -0.2180
14762TIP3    H165777   1.001   6.606   6.386  0.2554  0.4140  0.6426
14762TIP3    H265778   1.137   6.540   6.387  0.4227  0.7202 -0.8210
14763TIP3   OH265779   2.998   0.291   4.152  0.1055  0.0026 -0.4927
14763TIP3    H165780   2.996   0.226   4.221  1.0781  0.2881 -0.1687
14763TIP3    H265781   3.065   0.353   4.180 -0.5495  0.9435 -0.9695
14764TIP3   OH265782   2.010   3.146  13.012  0.0019 -0.4104 -0.4696
14764TIP3    H165783   2.048   3.122  12.928  0.8952 -0.4677 -0.0667
14764TIP3    H265784   1.932   3.197  12.990 -1.3296 -2.6911 -1.3435
14765TIP3   OH265785   2.650   4.578   3.589  0.2439  0.2315  0.0816
14765TIP3    H165786   2.585   4.538   3.531  0.8122 -0.0688 -0.3533
14765TIP3    H265787   2.619   4.668   3.602  0.2558  0.3765 -0.8864
14766TIP3   OH265788   3.355   4.854   1.614 -0.3122 -0.3834 -0.2895
14766TIP3    H165789   3.407   4.853   1.695 -0.8596  0.0428  0.0750
14766TIP3    H265790   3.405   4.801   1.553  0.6932  0.2432 -0.0311
14767TIP3   OH265791   3.999   5.104  15.435 -0.3832  0.2288  0.0896
14767TIP3    H165792   4.054   5.050  15.379  0.1159  1.2888 -0.4642
14767TIP3    H265793   3.913   5.062  15.433  0.2391 -1.1205  0.5092
14768TIP3   OH265794   6.169   3.851   1.869  0.2198  0.1907  0.2135
14768TIP3    H165795   6.179   3.756   1.870 -1.4006 -0.0117 -0.5934
14768TIP3    H265796   6.172   3.876   1.962 -2.8806 -1.1144  0.7977
14769TIP3   OH265797   6.160   3.985  14.941  0.0455 -0.1299 -0.1061
14769TIP3    H165798   6.218   4.059  14.960  0.2955 -0.6921  1.4092
14769TIP3    H265799   6.219   3.912  14.923 -0.2070 -0.1609 -0.8548
14770TIP3   OH265800   6.668   0.467  16.862 -0.2722  0.5392  0.0435
14770TIP3    H165801   6.625   0.551  16.876 -0.9045  0.1383  0.6199
14770TIP3    H265802   6.734   0.484  16.795  0.7191  1.8611  1.2912
14771TIP3   OH265803   3.712   5.423   4.028  0.5450  0.0157 -0.1615
14771TIP3    H165804   3.709   5.478   3.950  1.3523  1.1309  0.5499
14771TIP3    H265805   3.681   5.480   4.098  0.9253 -0.5993  0.5198
14772TIP3   OH265806   6.754   0.075  10.852 -0.1344  0.3197 -0.3203
14772TIP3    H165807   6.784   0.016  10.921  1.0961  0.2799 -0.8553
14772TIP3    H265808   6.662   0.053  10.839  0.1278 -1.0087 -0.0311
14773TIP3   OH265809   0.743   5.542  13.108 -0.3469 -0.1580  0.1602
14773TIP3    H165810   0.748   5.637  13.104  1.2588 -0.2303 -0.2903
14773TIP3    H265811   0.813   5.512  13.050 -2.6397 -1.6599 -2.0415
14774TIP3   OH265812   4.326   2.424  15.855 -1.0390  0.3235  0.1893
14774TIP3    H165813   4.264   2.487  15.891 -2.8770  0.8635 -3.4225
14774TIP3    H265814   4.285   2.394  15.774  1.8275 -2.1604 -0.5308
14775TIP3   OH265815   6.562   5.240  15.734 -0.1139 -0.1551 -0.1427
14775TIP3    H165816   6.632   5.283  15.685 -1.2970  0.1472 -1.6252
14775TIP3    H265817   6.606   5.170  15.782  1.3167  0.5085 -0.4340
14776TIP3   OH265818   6.507   2.780  14.274  0.4285  0.2114  0.3217
14776TIP3    H165819   6.453   2.834  14.332  1.0033  2.0650 -0.7866
14776TIP3    H265820   6.445   2.748  14.207  0.2820  0.3916  0.3706
14777TIP3   OH265821   3.902   3.904   2.834 -0.2065 -0.9314 -0.0873
14777TIP3    H165822   3.819   3.927   2.876 -0.2420  0.1496 -0.7354
14777TIP3    H265823   3.877   3.843   2.764 -0.7656  1.0841 -1.7276
14778TIP3   OH265824   1.765   6.031   4.942  0.1713 -0.5964  0.0932
14778TIP3    H165825   1.782   6.109   4.994 -1.2663  1.0964 -1.8140
14778TIP3    H265826   1.852   5.998   4.920  0.8007  0.0714  1.4448
14779TIP3   OH265827   3.697   1.506   3.451  0.3501  0.2189  0.4429
14779TIP3    H165828   3.721   1.460   3.531  1.8032 -0.3349 -0.2817
14779TIP3    H265829   3.631   1.450   3.410 -0.6746  0.6862  1.4009
14780TIP3   OH265830   0.822   5.504  15.409  0.9385 -0.2345  0.0737
14780TIP3    H165831   0.758   5.564  15.372  1.8439 -1.4027 -3.7905
14780TIP3    H265832   0.882   5.561  15.459 -2.1800  1.0143  2.7534
14781TIP3   OH265833   2.036   1.101  10.636 -0.5381 -0.5233 -0.3679
14781TIP3    H165834   1.941   1.099  10.648 -0.4021 -0.4034  0.7624
14781TIP3    H265835   2.059   1.194  10.643 -0.3038 -0.5789 -0.4031
14782TIP3   OH265836   4.360   3.529   2.930 -0.4338  0.2441  0.2372
14782TIP3    H165837   4.362   3.467   2.857 -3.0767  0.6980 -0.3497
14782TIP3    H265838   4.390   3.612   2.892  0.9463 -0.1501  0.4400
14783TIP3   OH265839   6.371   2.293   5.894  0.0510 -0.1512  0.2206
14783TIP3    H165840   6.418   2.360   5.944  1.2710 -0.9987  0.2652
14783TIP3    H265841   6.402   2.304   5.804 -0.3229 -0.1620  0.0897
14784TIP3   OH265842   2.784   5.484   3.145 -0.1517  0.6412  0.0617
14784TIP3    H165843   2.712   5.427   3.170  2.1098 -1.6050  2.0334
14784TIP3    H265844   2.770   5.500   3.051 -2.0218 -1.4716 -0.1162
14785TIP3   OH265845   6.884   2.314  12.971 -0.3637 -0.0202 -0.4190
14785TIP3    H165846   6.849   2.230  12.941  1.0103 -0.9084  0.3635
14785TIP3    H265847   6.826   2.340  13.042 -0.5368 -0.5367 -0.3642
14786TIP3   OH265848   3.932   0.144   0.341 -0.0777 -0.7181 -0.0351
14786TIP3    H165849   3.849   0.190   0.334 -0.8142 -2.2483 -3.3197
14786TIP3    H265850   3.932   0.107   0.429 -2.9520 -0.7863  0.0267
14787TIP3   OH265851   6.880   5.528   5.557 -0.1151 -0.0092  0.3765
14787TIP3    H165852   6.817   5.485   5.614 -0.9208  1.0145  0.2930
14787TIP3    H265853   6.852   5.506   5.468  0.0018 -0.0361  0.3457
14788TIP3   OH265854   5.791   4.156  15.292  0.0604  0.0337 -0.1066
14788TIP3    H165855   5.717   4.131  15.236 -2.1523  0.4104  2.4283
14788TIP3    H265856   5.796   4.087  15.358  0.0971  1.4084  1.4015
14789TIP3   OH265857   0.187   1.327   1.696  0.3577  0.2817  0.3841
14789TIP3    H165858   0.232   1.242   1.694 -0.6896 -0.3399  1.5008
14789TIP3    H265859   0.170   1.347   1.604 -0.1240 -1.1539  0.1218
14790TIP3   OH265860   5.039   5.925  14.890  0.1593  0.2785  0.4208
14790TIP3    H165861   4.983   5.896  14.962 -0.4412  1.4496  0.4543
14790TIP3    H265862   5.125   5.940  14.930  0.2769 -0.6710  0.5485
14791TIP3   OH265863   4.419   5.928  13.226 -0.6426  0.0913  0.2118
14791TIP3    H165864   4.482   5.857  13.214 -2.1391 -1.4186  0.8290
14791TIP3    H265865   4.339   5.897  13.183 -0.5172  2.7543 -2.2289
14792TIP3   OH265866   6.583   0.959  14.284  0.4315  0.4524  0.1785
14792TIP3    H165867   6.502   0.917  14.314  0.7009  0.0621  0.3633
14792TIP3    H265868   6.561   0.995  14.199  0.3881 -0.6522 -0.2915
14793TIP3   OH265869   4.988   4.251  12.258 -0.0369 -1.0461 -0.6016
14793TIP3    H165870   5.067   4.232  12.207 -0.2321  0.0078 -1.3465
14793TIP3    H265871   4.925   4.281  12.192 -0.9740 -1.6272  0.0183
14794TIP3   OH265872   5.963   2.298  11.544  0.4811 -0.4048 -0.0277
14794TIP3    H165873   5.895   2.277  11.480  0.9948 -2.6696  0.0981
14794TIP3    H265874   5.917   2.301  11.628  0.1126  0.7913 -0.2515
14795TIP3   OH265875   1.587   2.242  15.537  0.2577 -0.4719  0.0285
14795TIP3    H165876   1.576   2.154  15.501 -1.2859 -0.4615  0.3962
14795TIP3    H265877   1.535   2.298  15.479 -1.9095 -0.3902  1.9077
14796TIP3   OH265878   1.643   4.738  14.912 -0.5971  0.5835  0.4542
14796TIP3    H165879   1.655   4.732  15.007  0.3164 -0.0638  0.3112
14796TIP3    H265880   1.729   4.716  14.876 -0.7974  1.3484 -0.5127
14797TIP3   OH265881   5.849   6.714  12.209 -0.0613 -0.4176 -0.8991
14797TIP3    H165882   5.793   6.791  12.204  1.1305  0.5506 -0.0457
14797TIP3    H265883   5.823   6.660  12.134  0.7699  1.9890 -3.0748
14798TIP3   OH265884   2.722   6.692   4.504 -0.3699 -0.1333  0.2262
14798TIP3    H165885   2.701   6.767   4.448  0.6494  1.2907  1.6764
14798TIP3    H265886   2.805   6.716   4.546  1.1817 -2.9982 -0.8837
14799TIP3   OH265887   1.267   1.938  15.860  0.1663  0.0748  0.4485
14799TIP3    H165888   1.320   1.978  15.929  0.6971 -1.6534  1.0990
14799TIP3    H265889   1.184   1.987  15.861  1.0239  1.5776  0.7044
14800TIP3   OH265890   2.753   6.446  12.971  0.1833 -0.2484 -0.2207
14800TIP3    H165891   2.802   6.414  12.895  0.9256  1.6046 -0.5797
14800TIP3    H265892   2.721   6.367  13.014  0.2016 -1.3735 -2.1606
14801TIP3   OH265893   5.622   0.849  13.917  0.0866 -0.0240 -0.6408
14801TIP3    H165894   5.606   0.910  13.989  0.8037 -0.0877 -0.4221
14801TIP3    H265895   5.579   0.889  13.841 -1.7235 -0.5241  0.0545
14802TIP3   OH265896   0.616   5.750  16.949  0.7484  0.1225 -0.2124
14802TIP3    H165897   0.704   5.777  16.976  0.2010  1.3650  0.4328
14802TIP3    H265898   0.561   5.827  16.967 -0.1395  0.0754 -2.4343
14803TIP3   OH265899   6.740   1.947   2.597 -0.4515  0.3272 -0.4838
14803TIP3    H165900   6.807   1.901   2.648  2.2242  1.7318 -2.4214
14803TIP3    H265901   6.761   1.927   2.506 -1.2952  2.5573 -1.2564
14804TIP3   OH265902   3.758   3.707   5.814 -0.4419 -0.3115  0.5652
14804TIP3    H165903   3.721   3.747   5.735 -1.7610 -0.8506  0.8797
14804TIP3    H265904   3.848   3.685   5.790 -0.0004  1.8405  0.0514
14805TIP3   OH265905   2.070   6.061   4.491 -0.3625 -0.2274  0.0275
14805TIP3    H165906   2.094   6.114   4.567 -0.0067 -1.5117  0.8542
14805TIP3    H265907   1.988   6.098   4.460  0.3806  1.4343 -0.0706
14806TIP3   OH265908   2.960   0.154   3.598 -0.3865  0.0702  0.0534
14806TIP3    H165909   2.904   0.146   3.676 -0.9651  1.4640 -0.1967
14806TIP3    H265910   2.972   0.064   3.568  0.2422 -0.5493  2.0103
14807TIP3   OH265911   5.501   1.039  11.098  0.3130 -0.1958 -0.2642
14807TIP3    H165912   5.457   1.123  11.112  0.8737 -0.1373  1.2407
14807TIP3    H265913   5.465   1.007  11.015 -0.2578  1.3008 -0.6172
14808TIP3   OH265914   4.884   6.505   4.434  0.4821  0.1582 -0.4199
14808TIP3    H165915   4.948   6.519   4.364  0.2745  2.6538 -0.2205
14808TIP3    H265916   4.799   6.518   4.393  0.0913 -2.1982 -0.4721
14809TIP3   OH265917   4.165   3.086   5.495 -0.7079  0.2397  0.5590
14809TIP3    H165918   4.126   3.058   5.412 -0.9990  2.2072 -0.0167
14809TIP3    H265919   4.092   3.086   5.557 -0.8552  0.4608  0.3841
14810TIP3   OH265920   3.285   0.016   5.878 -0.1928 -0.4543  0.0107
14810TIP3    H165921   3.323  -0.043   5.813  1.1702  0.7985 -0.3847
14810TIP3    H265922   3.226   0.072   5.827  1.1314  0.7495 -0.2467
14811TIP3   OH265923   4.155   0.004   5.308  0.9718 -0.0023 -0.1242
14811TIP3    H165924   4.232  -0.020   5.359 -0.7735 -0.5175  2.4590
14811TIP3    H265925   4.103  -0.076   5.304 -0.1758  0.7363 -0.3689
14812TIP3   OH265926   1.027   5.629   6.121  0.6050  0.3460  0.5606
14812TIP3    H165927   0.940   5.615   6.084  0.9727  0.3840 -0.3379
14812TIP3    H265928   1.019   5.711   6.170 -0.2447 -0.4125  1.7313
14813TIP3   OH265929   0.923   0.353  15.444 -0.2679  0.1073 -0.5040
14813TIP3    H165930   0.890   0.263  15.439 -0.3987  0.1935 -1.5036
14813TIP3    H265931   0.992   0.356  15.378  2.5283 -0.3486  2.1528
14814TIP3   OH265932   1.422   4.723  13.614 -0.5196  0.0740  0.7369
14814TIP3    H165933   1.373   4.690  13.689  0.0845 -0.3959  0.9280
14814TIP3    H265934   1.513   4.706  13.635 -0.2393  1.2144  0.5105
14815TIP3   OH265935   0.093   2.046   2.184  0.0088  0.1431 -1.1073
14815TIP3    H165936   0.111   2.094   2.103 -0.2145  0.3911 -1.0110
14815TIP3    H265937   0.148   1.968   2.178  0.0792  0.2164 -1.4461
14816TIP3   OH265938   6.832   5.340  12.891  0.4726 -0.1815 -0.1160
14816TIP3    H165939   6.919   5.354  12.927  0.5968 -0.6665 -0.2216
14816TIP3    H265940   6.772   5.372  12.959  0.7303  0.3979 -0.1512
14817TIP3   OH265941   1.381   6.550  14.348  0.1214 -0.3623  0.3467
14817TIP3    H165942   1.476   6.552  14.337  0.0288 -0.9031 -0.7275
14817TIP3    H265943   1.361   6.623  14.407  0.9839  1.1037 -1.1068
14818TIP3   OH265944   0.314   4.980  14.155 -0.4664  0.6877 -0.1593
14818TIP3    H165945   0.239   5.035  14.176  0.0242  0.6173  1.9914
14818TIP3    H265946   0.289   4.893  14.184 -0.0592  0.3949 -0.6722
14819TIP3   OH265947   6.026   6.830  13.856  0.1608 -0.1798  0.2862
14819TIP3    H165948   5.953   6.776  13.884 -1.3395  0.4680 -2.0790
14819TIP3    H265949   5.998   6.920  13.872 -0.3291  0.1533 -2.1067
14820TIP3   OH265950   0.110   0.201  12.740 -0.1006  0.1206  0.1700
14820TIP3    H165951   0.044   0.235  12.800 -0.8776 -0.6854 -0.2087
14820TIP3    H265952   0.084   0.111  12.723  0.7374 -0.0136 -0.4904
14821TIP3   OH265953   2.978   3.772  13.089  0.2650  0.3922 -0.3161
14821TIP3    H165954   3.004   3.760  13.181 -0.1010 -0.3040 -0.2954
14821TIP3    H265955   2.883   3.768  13.091  0.2869 -1.0147 -0.8967
14822TIP3   OH265956   5.645   4.402   2.996  0.1269  0.4527 -0.1102
14822TIP3    H165957   5.681   4.483   3.031  0.9016 -0.3053  0.9088
14822TIP3    H265958   5.689   4.390   2.912 -0.3801  1.3455 -0.5100
14823TIP3   OH265959   6.506   3.497   3.296 -0.4339 -0.4220 -0.3715
14823TIP3    H165960   6.433   3.557   3.280 -1.0801 -0.3298  2.3287
14823TIP3    H265961   6.548   3.531   3.375  3.2839  0.1389 -2.3717
14824TIP3   OH265962   4.552   1.881   2.362  0.4843 -0.0716 -0.2103
14824TIP3    H165963   4.606   1.916   2.433 -1.2823  2.3952  0.0464
14824TIP3    H265964   4.607   1.890   2.284  1.0829  0.7737  0.2920
14825TIP3   OH265965   1.343   3.611  15.239  0.1925  0.0178 -0.3534
14825TIP3    H165966   1.375   3.687  15.288  1.1306 -1.4287  1.4253
14825TIP3    H265967   1.258   3.638  15.205 -0.6338  1.0707  2.3003
14826TIP3   OH265968   5.494   5.640  13.072 -0.2917 -0.4368 -0.0160
14826TIP3    H165969   5.405   5.604  13.074  0.1453 -1.5556  1.5874
14826TIP3    H265970   5.528   5.622  13.159  1.2954  0.5556 -0.4027
14827TIP3   OH265971   1.423   4.110   3.485  0.2841  0.4956  0.3176
14827TIP3    H165972   1.426   4.046   3.414  0.1616  0.8081  0.0263
14827TIP3    H265973   1.437   4.194   3.441 -1.3473  0.8637  0.4325
14828TIP3   OH265974   1.719   5.300  11.831 -0.2193  0.1338  0.2722
14828TIP3    H165975   1.766   5.225  11.793  0.0805  0.2546  0.4089
14828TIP3    H265976   1.787   5.358  11.864 -0.4624  0.3183  0.4574
14829TIP3   OH265977   6.379   1.869   3.202 -0.0620  0.4550  0.4351
14829TIP3    H165978   6.296   1.855   3.247 -0.8340  0.7916 -0.8194
14829TIP3    H265979   6.354   1.889   3.111  1.3101  2.1927  0.3911
14830TIP3   OH265980   0.983   3.774  13.944  0.2953  0.9114 -0.1813
14830TIP3    H165981   1.055   3.785  14.007 -1.1776  1.0969  1.5384
14830TIP3    H265982   1.012   3.702  13.888  0.8830 -0.5627  1.8899
14831TIP3   OH265983   0.631   1.558  11.263 -0.3658  0.8106 -0.1500
14831TIP3    H165984   0.591   1.477  11.233  0.2261  0.1342  0.8287
14831TIP3    H265985   0.605   1.624  11.198 -2.5680  0.3006  0.1571
14832TIP3   OH265986   1.575   5.801  10.896 -0.7581 -0.4491  0.0092
14832TIP3    H165987   1.550   5.851  10.819 -0.6419 -0.1485  0.1625
14832TIP3    H265988   1.634   5.734  10.863  1.7393  1.4861  0.1704
14833TIP3   OH265989   6.113   3.119   3.039  0.4864  0.1230 -0.1060
14833TIP3    H165990   6.198   3.092   3.073  0.2826 -0.1338  0.2080
14833TIP3    H265991   6.062   3.038   3.037 -0.0839  0.4537  0.6815
14834TIP3   OH265992   4.879   2.090  13.683 -0.2978 -0.2586  0.7458
14834TIP3    H165993   4.951   2.104  13.744  0.2082  0.3903  0.0200
14834TIP3    H265994   4.879   1.996  13.666  2.2712  0.0289 -1.4770
14835TIP3   OH265995   4.079   3.217  14.598  0.3863  0.1939 -0.2122
14835TIP3    H165996   3.986   3.236  14.586  0.1109 -0.9143  0.0194
14835TIP3    H265997   4.115   3.296  14.639 -1.0620 -0.4195  2.4846
14836TIP3   OH265998   5.933   1.410  16.318 -0.2073  0.2677  0.8044
14836TIP3    H165999   5.949   1.499  16.349  0.6889  0.8800 -1.2510
14836TIP3    H266000   5.854   1.383  16.364 -0.1377  1.8756  1.9630
14837TIP3   OH266001   4.709   6.637  12.664  0.2522  0.5764  0.2874
14837TIP3    H166002   4.783   6.697  12.666 -1.1192  2.4334 -1.0029
14837TIP3    H266003   4.700   6.606  12.755  2.1614  0.8034  0.5869
14838TIP3   OH266004   2.332   1.407  12.646  0.2887  0.2630 -0.1837
14838TIP3    H166005   2.361   1.321  12.678 -1.7016 -0.6549 -0.7050
14838TIP3    H266006   2.325   1.460  12.725 -0.8885 -0.8315  0.4791
14839TIP3   OH266007   1.675   3.600  13.553  0.2400 -0.6130  0.4016
14839TIP3    H166008   1.703   3.605  13.462 -1.1883  0.4254 -0.0088
14839TIP3    H266009   1.755   3.578  13.601  1.3555  0.3512 -0.9218
14840TIP3   OH266010   4.864   3.902   1.638  0.2094  0.5523 -0.4397
14840TIP3    H166011   4.939   3.927   1.692 -0.0546 -1.0294  0.7641
14840TIP3    H266012   4.864   3.964   1.566  4.2153 -0.8326 -1.9316
14841TIP3   OH266013   2.708   5.604   4.981 -0.5519 -0.0655 -0.0995
14841TIP3    H166014   2.662   5.584   4.899 -1.8499  1.7045  0.1329
14841TIP3    H266015   2.676   5.691   5.006  0.5594 -0.1381  1.7784
14842TIP3   OH266016   1.092   3.590   4.944 -0.1957  0.5171 -0.1686
14842TIP3    H166017   1.087   3.578   5.039 -0.5280 -1.2052 -0.3764
14842TIP3    H266018   1.001   3.599   4.916 -0.1602  0.0845 -0.4286
14843TIP3   OH266019   5.990   2.488  14.632 -0.4838  0.7552 -0.0467
14843TIP3    H166020   5.914   2.432  14.615  1.1411 -1.2578 -1.0895
14843TIP3    H266021   6.041   2.442  14.698  0.2207  1.7041  0.1089
14844TIP3   OH266022   5.528   4.778  15.529  0.0703  0.2727 -0.2457
14844TIP3    H166023   5.574   4.703  15.568  1.8424  0.6863 -1.4464
14844TIP3    H266024   5.436   4.763  15.551  0.4158 -2.0478 -0.0957
14845TIP3   OH266025   1.571   3.667   3.574  0.4660 -0.1036 -0.6381
14845TIP3    H166026   1.556   3.716   3.655 -2.5616 -1.4241 -0.2561
14845TIP3    H266027   1.609   3.584   3.603  1.1193  0.1398 -0.7858
14846TIP3   OH266028   3.266   1.131  11.354 -0.1056  0.2003  0.2028
14846TIP3    H166029   3.232   1.044  11.378 -0.0182  0.5619  1.6974
14846TIP3    H266030   3.195   1.191  11.375 -0.0012  0.5521 -0.4213
14847TIP3   OH266031   2.083   3.127   5.185 -0.4511  0.2691 -0.5053
14847TIP3    H166032   2.175   3.145   5.204 -1.3587  3.6252  1.4519
14847TIP3    H266033   2.060   3.190   5.117 -1.8107  1.2209  0.7615
14848TIP3   OH266034   1.748   6.733  13.776  0.0625 -0.2217  0.4450
14848TIP3    H166035   1.663   6.778  13.779  0.3729  0.3386  0.9511
14848TIP3    H266036   1.733   6.659  13.718 -1.1184 -0.8334  1.4703
14849TIP3   OH266037   1.456   1.682   3.882  0.3993  0.0724  0.2515
14849TIP3    H166038   1.454   1.745   3.954 -2.0068 -2.0253  2.2178
14849TIP3    H266039   1.526   1.621   3.904  0.0188 -0.2592  0.5633
14850TIP3   OH266040   1.877   6.506  12.213 -0.4157 -0.4107  0.7130
14850TIP3    H166041   1.932   6.566  12.162  0.0938  0.3408  2.0879
14850TIP3    H266042   1.924   6.495  12.296 -2.0655 -0.1983  1.7196
14851TIP3   OH266043   2.426   2.752  13.555 -0.2002 -0.2393 -0.0196
14851TIP3    H166044   2.473   2.792  13.628  0.6205  1.9442 -1.6265
14851TIP3    H266045   2.367   2.821  13.523 -0.3456 -1.0266 -1.5806
14852TIP3   OH266046   4.593   5.303  15.857 -0.1095  0.3376 -0.1498
14852TIP3    H166047   4.597   5.210  15.833  0.5847  0.1081  0.8114
14852TIP3    H266048   4.506   5.332  15.827 -0.5412 -0.7557  0.0079
14853TIP3   OH266049   6.534   5.067  10.485 -0.2425 -0.4066  0.0167
14853TIP3    H166050   6.511   5.087  10.395 -1.2143  1.4751  0.6442
14853TIP3    H266051   6.512   5.146  10.534 -0.5842 -1.6927  2.0588
14854TIP3   OH266052   6.786   3.604  10.552 -0.0805  0.3268  0.3847
14854TIP3    H166053   6.758   3.588  10.461 -0.4727  1.4391  0.2960
14854TIP3    H266054   6.827   3.690  10.550  1.1989 -0.2314  1.0089
14855TIP3   OH266055   2.431   5.456   2.676 -0.5890  0.4061  0.7269
14855TIP3    H166056   2.497   5.387   2.680  2.2338  2.9460  2.1689
14855TIP3    H266057   2.454   5.507   2.599 -1.4760  0.8291  0.7256
14856TIP3   OH266058   2.490   2.693   1.434 -0.6556 -0.4562 -0.0668
14856TIP3    H166059   2.518   2.639   1.507  1.6205  1.5158  0.6415
14856TIP3    H266060   2.539   2.660   1.359  2.5439  1.8627  0.8161
14857TIP3   OH266061   0.329   3.219   0.820 -0.0160  0.0632  0.0970
14857TIP3    H166062   0.357   3.132   0.792 -0.5043 -0.2430  0.5517
14857TIP3    H266063   0.253   3.239   0.766 -0.3869 -0.1299  0.5446
14858TIP3   OH266064   1.779   2.726   2.700 -0.1283  0.0602  0.1627
14858TIP3    H166065   1.758   2.733   2.607  1.0853  0.0242 -0.1330
14858TIP3    H266066   1.859   2.778   2.711 -2.0038  2.8449  1.8480
14859TIP3   OH266067   6.418   4.632   4.398  0.6358 -0.2576  0.0046
14859TIP3    H166068   6.416   4.550   4.446  0.7146  0.2544  0.9044
14859TIP3    H266069   6.502   4.671   4.421  0.7007 -0.0241 -0.5997
14860TIP3   OH266070   5.989   2.395  16.689  0.1650 -0.3847 -0.5916
14860TIP3    H166071   6.082   2.416  16.688 -0.0698  0.7722  0.2080
14860TIP3    H266072   5.971   2.362  16.600  1.0095  0.8832 -1.2597
14861TIP3   OH266073   0.518   3.322   5.953 -0.4538  0.6592 -0.7331
14861TIP3    H166074   0.523   3.242   6.004  1.1735 -0.1600 -2.0705
14861TIP3    H266075   0.433   3.359   5.974 -1.0638 -1.1898  0.2422
14862TIP3   OH266076   3.870   5.026   0.748  0.4948 -0.5341 -0.0355
14862TIP3    H166077   3.916   5.094   0.797 -1.4984  2.7825 -2.3811
14862TIP3    H266078   3.780   5.031   0.778  0.4630 -3.0115  0.4926
14863TIP3   OH266079   6.462   0.846   4.360  0.5488 -0.0417 -0.2711
14863TIP3    H166080   6.476   0.849   4.454 -1.6303  1.2432  0.0738
14863TIP3    H266081   6.376   0.805   4.349  1.2325 -1.1820 -1.7922
14864TIP3   OH266082   3.392   0.204  11.096  0.4377 -0.0847  0.5756
14864TIP3    H166083   3.432   0.291  11.084 -0.1892 -0.0219 -1.4678
14864TIP3    H266084   3.359   0.205  11.186  0.9530  1.5693  0.7881
14865TIP3   OH266085   5.321   5.881  12.994 -0.7782 -0.0560  0.5172
14865TIP3    H166086   5.294   5.790  13.004  0.4772 -0.7167 -1.4923
14865TIP3    H266087   5.416   5.880  13.004 -0.7469  1.0384  0.5155
14866TIP3   OH266088   3.416   1.446   1.668  0.1827 -0.1926 -0.3313
14866TIP3    H166089   3.440   1.534   1.698 -0.5535  0.2112 -0.9068
14866TIP3    H266090   3.494   1.415   1.622  0.4502  0.1479 -0.1182
14867TIP3   OH266091   0.388   6.613  10.273 -0.4478  0.3001  0.1662
14867TIP3    H166092   0.378   6.648  10.361  1.4946  1.9200 -0.1841
14867TIP3    H266093   0.359   6.522  10.279  1.6783 -0.3008  2.9873
14868TIP3   OH266094   4.842   4.726   2.563 -0.6608 -0.0607 -0.5566
14868TIP3    H166095   4.796   4.694   2.640  0.9635  1.3646  1.1158
14868TIP3    H266096   4.773   4.761   2.506 -1.7883  0.7690  1.2334
14869TIP3   OH266097   1.235   1.195   5.095 -0.1726  0.1699 -0.1180
14869TIP3    H166098   1.268   1.284   5.082  1.6962 -0.4644 -0.1273
14869TIP3    H266099   1.174   1.181   5.023 -0.3294  1.3619 -0.2406
14870TIP3   OH266100   6.122   4.474   4.471 -0.3647 -0.1483 -0.0227
14870TIP3    H166101   6.164   4.450   4.389 -1.9041 -0.5563 -0.7241
14870TIP3    H266102   6.195   4.497   4.529  0.8167 -1.0135 -1.1053
14871TIP3   OH266103   0.443   3.929  13.399 -0.6890  0.0382  0.4010
14871TIP3    H166104   0.480   3.963  13.318 -0.9350  0.4368  0.4514
14871TIP3    H266105   0.459   3.998  13.464 -1.9139  0.4193  0.3170
14872TIP3   OH266106   4.131   6.001   1.393 -0.2721 -0.2308  0.5729
14872TIP3    H166107   4.065   6.038   1.334  0.6373 -0.4667 -0.6400
14872TIP3    H266108   4.116   5.907   1.391 -0.2013 -0.2447  0.6742
14873TIP3   OH266109   5.811   1.144   4.493 -0.5247 -0.3381 -0.8258
14873TIP3    H166110   5.867   1.092   4.550 -1.0216  0.0792  0.0545
14873TIP3    H266111   5.769   1.080   4.435 -2.4756 -1.1817  1.3634
14874TIP3   OH266112   1.009   2.096  15.105 -0.3171  0.5306 -0.0652
14874TIP3    H166113   0.920   2.120  15.076  0.0685  0.5262 -1.3159
14874TIP3    H266114   0.995   2.033  15.175 -1.3123  0.8498  0.0418
14875TIP3   OH266115   2.917   3.706   5.187  0.1757 -0.0780  0.1466
14875TIP3    H166116   2.883   3.698   5.098 -0.3965 -0.3545  0.3840
14875TIP3    H266117   2.886   3.627   5.232  0.6771 -0.0686  0.5231
14876TIP3   OH266118   4.869   4.776   4.941  0.0223 -0.6954 -0.3706
14876TIP3    H166119   4.953   4.811   4.973 -0.6825 -0.2585  1.0781
14876TIP3    H266120   4.849   4.829   4.864  0.4531  0.0850  0.0419
14877TIP3   OH266121   2.339   5.233  15.011  0.4367 -1.1096  0.0687
14877TIP3    H166122   2.407   5.168  14.994  1.8396  0.6180 -1.3760
14877TIP3    H266123   2.353   5.259  15.102  1.6084 -0.9413 -0.1393
14878TIP3   OH266124   3.831   6.520  15.603 -0.5637  0.1524 -0.2801
14878TIP3    H166125   3.822   6.427  15.624 -0.5715  0.2316  0.0613
14878TIP3    H266126   3.923   6.540  15.619 -1.0873  0.8366  2.2282
14879TIP3   OH266127   2.392   5.298  16.011 -0.2731  0.2977  0.3517
14879TIP3    H166128   2.347   5.216  15.991 -0.6523  0.4857  0.4184
14879TIP3    H266129   2.388   5.304  16.107  0.2535  0.1169  0.3876
14880TIP3   OH266130   3.952   0.431  11.238  0.2291  0.2302  0.1044
14880TIP3    H166131   3.879   0.398  11.291  0.3588 -1.9927 -0.9662
14880TIP3    H266132   4.028   0.423  11.295  0.2796 -1.6412 -0.1522
14881TIP3   OH266133   1.850   2.276   0.956  0.4036 -0.4088  0.4961
14881TIP3    H166134   1.763   2.282   0.917  1.7935  1.9970 -2.6474
14881TIP3    H266135   1.888   2.197   0.917 -0.2555 -1.3930  1.7786
14882TIP3   OH266136   5.109   0.703   3.192 -0.0925 -0.2972  0.0234
14882TIP3    H166137   5.164   0.679   3.117  1.7442 -0.6371  1.3961
14882TIP3    H266138   5.027   0.656   3.178  0.1369 -0.1878 -1.8590
14883TIP3   OH266139   3.094   0.061  15.543 -0.3056  0.2722 -0.4420
14883TIP3    H166140   3.015   0.073  15.490 -0.3989  0.4350 -0.2678
14883TIP3    H266141   3.132  -0.020  15.510  0.5762  1.2481 -1.9396
14884TIP3   OH266142   3.021   5.916   1.863  0.1286 -0.3260  0.4984
14884TIP3    H166143   2.993   5.923   1.955 -0.7418 -0.1172  0.2254
14884TIP3    H266144   3.088   5.847   1.864  0.5464  0.0794  1.3805
14885TIP3   OH266145   5.557   0.709   4.185  0.1084  0.0383  0.1313
14885TIP3    H166146   5.504   0.766   4.240  1.4118  1.3929  0.0514
14885TIP3    H266147   5.627   0.766   4.152  1.4147 -1.5879 -0.0241
14886TIP3   OH266148   6.828   4.949   2.507 -0.0067 -0.7792 -0.5182
14886TIP3    H166149   6.875   4.942   2.424  0.4721 -0.7854 -0.2496
14886TIP3    H266150   6.849   5.037   2.539 -0.1852 -0.7798 -0.3968
14887TIP3   OH266151   4.459   3.851  12.932 -0.2620 -0.2725  0.5260
14887TIP3    H166152   4.419   3.901  12.861  0.2690 -1.7534 -0.8481
14887TIP3    H266153   4.399   3.863  13.006 -1.3918  0.4051 -0.4687
14888TIP3   OH266154   1.548   3.861  15.132 -0.2938 -0.6763 -0.3080
14888TIP3    H166155   1.594   3.824  15.057 -1.2740  1.1329 -1.8646
14888TIP3    H266156   1.605   3.931  15.164  0.5811 -2.0470  1.3332
14889TIP3   OH266157   2.732   1.577  13.870  0.4719  0.6444 -0.6223
14889TIP3    H166158   2.727   1.632  13.949  0.9832  1.0644 -0.8717
14889TIP3    H266159   2.734   1.640  13.798 -1.3692  0.2392 -1.0655
14890TIP3   OH266160   0.363   2.439  12.765 -0.0178 -0.4742  0.3478
14890TIP3    H166161   0.305   2.399  12.700  1.6785 -1.7209 -0.4907
14890TIP3    H266162   0.326   2.526  12.780  0.1004  0.3393 -3.1721
14891TIP3   OH266163   0.207   4.476   0.515  0.5316  0.2053 -0.3498
14891TIP3    H166164   0.177   4.385   0.524 -0.7809  0.6146 -0.2988
14891TIP3    H266165   0.223   4.505   0.605  0.7370  0.0976 -0.3504
14892TIP3   OH266166   4.287   0.857   3.836  0.3558 -0.2072 -0.2233
14892TIP3    H166167   4.264   0.786   3.897 -1.4466  0.7730  0.3263
14892TIP3    H266168   4.242   0.834   3.755  0.9125 -0.3858 -0.4826
14893TIP3   OH266169   6.137   4.783   0.990  0.1762 -0.0930  0.1913
14893TIP3    H166170   6.079   4.727   1.041 -0.3015 -0.5346 -0.8136
14893TIP3    H266171   6.082   4.856   0.962  0.1272 -0.4435 -0.6514
14894TIP3   OH266172   5.294   0.761  13.659  0.0776 -0.4176  0.4370
14894TIP3    H166173   5.303   0.799  13.746  0.2623 -1.5698  0.9400
14894TIP3    H266174   5.357   0.688  13.657  1.3949  0.6770 -1.3080
14895TIP3   OH266175   4.536   4.718  11.980  0.2066 -0.3055 -0.1549
14895TIP3    H166176   4.627   4.721  12.009  0.0686 -0.0341  0.2551
14895TIP3    H266177   4.489   4.771  12.043 -0.1988 -0.2214 -0.5225
14896TIP3   OH266178   6.565   0.175   2.942  0.2590 -0.0432  0.2645
14896TIP3    H166179   6.520   0.238   2.884  0.6780 -1.1901 -1.3698
14896TIP3    H266180   6.649   0.216   2.961  1.2770 -0.7710 -2.2334
14897TIP3   OH266181   2.765   0.566  11.308  0.1700  0.7958 -0.0967
14897TIP3    H166182   2.822   0.639  11.287  0.2862  0.7458  0.0485
14897TIP3    H266183   2.764   0.562  11.403 -0.9553  1.5036 -0.0513
14898TIP3   OH266184   3.289   6.838   4.724 -0.0652 -0.1549  0.2651
14898TIP3    H166185   3.231   6.910   4.748 -0.3711 -0.2255 -0.2336
14898TIP3    H266186   3.376   6.878   4.718 -0.0824 -0.0206  0.8793
14899TIP3   OH266187   5.955   3.253  13.248 -0.6156  0.0859 -0.0053
14899TIP3    H166188   6.034   3.289  13.209 -0.0692 -0.4402  0.5903
14899TIP3    H266189   5.886   3.316  13.227 -0.1185  0.3483 -0.8650
14900TIP3   OH266190   6.740   2.870  16.195  0.6646 -0.1507  0.1738
14900TIP3    H166191   6.661   2.872  16.141 -0.5390  1.0583  1.8737
14900TIP3    H266192   6.783   2.788  16.170 -2.2161 -1.9831  0.6362
14901TIP3   OH266193   2.312   0.559  14.503  0.3045 -0.0504  0.0536
14901TIP3    H166194   2.375   0.596  14.565 -0.6694 -1.2684  1.8570
14901TIP3    H266195   2.229   0.562  14.550 -0.3954 -1.3593 -1.0598
14902TIP3   OH266196   0.308   1.731   5.377  0.2129 -0.4894  0.1583
14902TIP3    H166197   0.332   1.812   5.332  0.6209  0.5245  2.0979
14902TIP3    H266198   0.237   1.756   5.437  0.5661 -1.4660  1.0282
14903TIP3   OH266199   5.072   3.855  15.791  0.0484  0.4939  0.1246
14903TIP3    H166200   5.154   3.843  15.744  0.4473  0.1388  0.9039
14903TIP3    H266201   5.019   3.778  15.768 -0.6382  1.3976 -1.4945
14904TIP3   OH266202   0.383   6.662  11.446 -0.3785 -0.2785  0.5593
14904TIP3    H166203   0.378   6.755  11.422  2.2908 -0.0830  0.3689
14904TIP3    H266204   0.438   6.623  11.378  0.7796 -1.3893  2.0521
14905TIP3   OH266205   5.224   1.385   5.054 -0.8259 -0.7189 -0.3390
14905TIP3    H166206   5.242   1.386   4.960  2.7731  0.7487  0.1960
14905TIP3    H266207   5.283   1.451   5.091 -2.1426 -1.1677  2.9780
14906TIP3   OH266208   4.699   2.701   3.010  0.3943  0.3820 -0.0002
14906TIP3    H166209   4.720   2.794   3.020  0.1848  0.3280  1.0528
14906TIP3    H266210   4.785   2.658   3.011  0.4183  0.3899  1.7369
14907TIP3   OH266211   5.929   4.616  11.285  0.0534 -0.5813  0.0572
14907TIP3    H166212   5.930   4.654  11.373 -2.0966 -0.3568  0.0321
14907TIP3    H266213   5.846   4.645  11.247  1.0010 -0.5670 -2.1204
14908TIP3   OH266214   5.132   3.487  12.981  0.2379  0.1258 -0.7073
14908TIP3    H166215   5.123   3.399  12.943  0.5977 -0.5346  0.6734
14908TIP3    H266216   5.050   3.531  12.960  0.5230 -0.1200 -2.4406
14909TIP3   OH266217   0.145   0.579   3.545 -0.1491  0.1892 -0.1107
14909TIP3    H166218   0.161   0.514   3.477  1.1454  1.4078 -1.0451
14909TIP3    H266219   0.154   0.531   3.628  1.2251 -0.7349 -0.7601
14910TIP3   OH266220   6.437   2.339  13.851 -1.1764  0.8461  0.1019
14910TIP3    H166221   6.382   2.268  13.883 -1.0472  0.8113  0.2474
14910TIP3    H266222   6.407   2.354  13.761  0.0902 -0.7323 -0.6416
14911TIP3   OH266223   2.041   0.694  10.744  0.0355  0.1325 -0.3878
14911TIP3    H166224   2.053   0.787  10.766 -1.0943  0.2736 -0.2929
14911TIP3    H266225   2.115   0.673  10.687  0.8159  0.8382  0.3401
14912TIP3   OH266226   5.461   6.459  15.988  0.3533  0.0040  0.1399
14912TIP3    H166227   5.457   6.476  16.082 -1.3784 -0.1566  0.1175
14912TIP3    H266228   5.485   6.366  15.982  0.1351 -0.0703  0.4206
14913TIP3   OH266229   6.073   4.218   4.034  0.0639  0.0346 -0.4128
14913TIP3    H166230   6.110   4.143   4.080 -2.9567 -1.2414  0.1075
14913TIP3    H266231   6.055   4.186   3.945 -0.1500  0.5057 -0.5454
14914TIP3   OH266232   3.337   6.828   6.507 -0.1795 -0.3100  0.4370
14914TIP3    H166233   3.328   6.775   6.587  1.3264 -1.0679  0.1444
14914TIP3    H266234   3.310   6.916   6.534 -2.0611 -1.0487  1.1177
14915TIP3   OH266235   1.657   6.485  13.327 -0.4494  0.6721  0.0341
14915TIP3    H166236   1.665   6.514  13.418  0.0869 -0.3080  0.3202
14915TIP3    H266237   1.634   6.392  13.334  1.3592  0.1134 -0.8065
14916TIP3   OH266238   6.581   3.694  14.457  0.6777 -0.3856  0.0045
14916TIP3    H166239   6.535   3.770  14.492  1.6090 -0.1966  0.8833
14916TIP3    H266240   6.513   3.642  14.415 -0.0468  0.7002 -0.2093
14917TIP3   OH266241   1.557   6.092  14.600  0.3816  0.3440 -0.3643
14917TIP3    H166242   1.518   6.032  14.537 -0.8326  0.8723 -0.1449
14917TIP3    H266243   1.563   6.176  14.554 -0.0315  0.6027  0.0440
14918TIP3   OH266244   4.378   5.999   0.029 -0.1053  0.2417  0.0308
14918TIP3    H166245   4.383   5.909  -0.002 -1.5426 -0.0444  0.5511
14918TIP3    H266246   4.404   5.994   0.121  2.7122  0.8633 -0.6281
14919TIP3   OH266247   6.624   4.858  15.316  0.6050  0.1779  0.0218
14919TIP3    H166248   6.593   4.830  15.230  0.2645 -0.2640  0.2842
14919TIP3    H266249   6.547   4.898  15.357  0.2165 -1.3300  0.8558
14920TIP3   OH266250   4.150   1.804  15.880 -1.2122 -0.4077  0.5293
14920TIP3    H166251   4.181   1.804  15.970  0.9142 -2.4637 -0.0969
14920TIP3    H266252   4.163   1.894  15.849  0.1780 -0.2090  1.6177
14921TIP3   OH266253   1.374   1.290  13.667 -0.0472  0.2483 -0.3069
14921TIP3    H166254   1.441   1.286  13.599 -1.5038  1.5967 -1.9353
14921TIP3    H266255   1.349   1.199  13.681  1.3084 -0.1733 -0.4976
14922TIP3   OH266256   3.434   0.057  16.869 -0.1804 -0.0857 -0.6426
14922TIP3    H166257   3.497  -0.011  16.848 -0.8768 -0.8227 -0.3819
14922TIP3    H266258   3.466   0.095  16.951 -0.0587 -0.4318 -0.5326
14923TIP3   OH266259   2.144   1.811  13.365 -0.5064 -0.2312 -0.9141
14923TIP3    H166260   2.144   1.800  13.460  0.5936  2.1996 -0.5477
14923TIP3    H266261   2.148   1.722  13.330 -0.8083 -1.1723  1.3072
14924TIP3   OH266262   5.478   5.705  10.999  0.0032 -0.2058 -0.5021
14924TIP3    H166263   5.499   5.672  10.912  0.2201 -2.0994  0.2231
14924TIP3    H266264   5.382   5.704  11.003 -0.0189  0.2852 -0.8525
14925TIP3   OH266265   6.670   4.064   2.283 -0.2982 -0.3590  0.0197
14925TIP3    H166266   6.619   4.080   2.363 -1.8211  1.0170 -1.1634
14925TIP3    H266267   6.606   4.030   2.220  0.7776 -0.9456 -0.7839
14926TIP3   OH266268   0.545   0.330   3.749  0.1674 -0.0958 -0.0562
14926TIP3    H166269   0.472   0.357   3.805 -0.2193 -1.2720  0.0376
14926TIP3    H266270   0.512   0.253   3.704  1.2376 -0.4197 -0.2962
14927TIP3   OH266271   1.522   2.326   3.733  0.3411  0.3677  0.5909
14927TIP3    H166272   1.603   2.300   3.778  0.5363 -0.5096 -0.2354
14927TIP3    H266273   1.546   2.404   3.682  0.6854  0.0732  0.3008
14928TIP3   OH266274   0.290   1.296  11.569 -0.9194 -0.2493  0.9270
14928TIP3    H166275   0.257   1.327  11.654 -0.6568 -0.2726  1.0387
14928TIP3    H266276   0.345   1.367  11.537  0.3256 -0.8845  1.5484
14929TIP3   OH266277   1.750   4.983  16.827  0.3423 -0.5451  0.1907
14929TIP3    H166278   1.656   4.974  16.843  0.1221  2.4710  1.3468
14929TIP3    H266279   1.757   5.022  16.740  0.1991  2.1735  1.2826
14930TIP3   OH266280   1.858   4.923  12.511  0.0203  0.4562  0.3839
14930TIP3    H166281   1.792   4.982  12.476 -0.3382 -0.1704 -0.0239
14930TIP3    H266282   1.940   4.973  12.509 -0.0386  0.5265 -1.1170
14931TIP3   OH266283   5.851   4.555  16.650 -0.0511  1.1078 -0.4865
14931TIP3    H166284   5.883   4.598  16.571 -0.0870 -0.3315 -1.3144
14931TIP3    H266285   5.792   4.619  16.690 -1.9840  0.9978 -2.9214
14932TIP3   OH266286   6.819   6.568   2.508 -0.0072 -0.0211 -0.5008
14932TIP3    H166287   6.842   6.534   2.595  2.3617  0.0763 -1.0383
14932TIP3    H266288   6.903   6.587   2.466 -1.0985  0.1319 -2.7567
14933TIP3   OH266289   3.828   5.907   5.481 -0.8252 -0.1022 -0.0668
14933TIP3    H166290   3.912   5.873   5.451  0.6967 -0.5385  4.0488
14933TIP3    H266291   3.765   5.840   5.457  0.2895 -0.6511 -1.5951
14934TIP3   OH266292   3.365   2.528  11.572 -0.3213  0.1017  0.0067
14934TIP3    H166293   3.338   2.450  11.621 -0.0437 -1.0038 -1.5273
14934TIP3    H266294   3.336   2.511  11.482 -0.4103  1.8569 -0.3394
14935TIP3   OH266295   0.388   0.026  15.443  0.2398 -0.0263  0.5263
14935TIP3    H166296   0.394   0.058  15.353  0.1708 -0.4773  0.3612
14935TIP3    H266297   0.401   0.104  15.497  0.2204  0.2551  0.1261
14936TIP3   OH266298   2.293   2.801  14.921 -0.2526  0.3278  0.4229
14936TIP3    H166299   2.217   2.790  14.865 -0.6958  0.2954  1.0280
14936TIP3    H266300   2.330   2.885  14.894  0.2386 -0.2341 -0.7374
14937TIP3   OH266301   0.706   6.068   1.759 -0.7991 -0.3459 -0.5862
14937TIP3    H166302   0.717   5.982   1.800 -0.2148  0.1887  0.4405
14937TIP3    H266303   0.784   6.080   1.705  0.2744  0.4452  1.0453
14938TIP3   OH266304   6.641   1.955   1.834  0.1192  0.1210  0.5606
14938TIP3    H166305   6.583   1.885   1.863 -0.0122 -1.0238 -2.1549
14938TIP3    H266306   6.581   2.024   1.804  0.2256  0.3472  0.8585
14939TIP3   OH266307   1.086   0.426   3.678  0.1752 -0.5097 -0.1893
14939TIP3    H166308   0.997   0.442   3.708  0.1927  0.6880 -0.7116
14939TIP3    H266309   1.103   0.497   3.616  0.4603 -2.3583 -2.3474
14940TIP3   OH266310   5.797   3.250  12.366  0.1120 -0.2919 -0.0706
14940TIP3    H166311   5.718   3.303  12.350  0.0080 -0.8716 -1.7155
14940TIP3    H266312   5.837   3.289  12.443 -1.3745  0.5130  0.3314
14941TIP3   OH266313   6.497   0.963   3.585 -0.1921 -0.4018 -0.2464
14941TIP3    H166314   6.567   0.938   3.525  0.5928  0.0880  0.4428
14941TIP3    H266315   6.542   0.997   3.662 -1.1822 -0.7418  0.5112
14942TIP3   OH266316   3.529   5.948  11.397 -0.4081  0.1659  0.5543
14942TIP3    H166317   3.509   5.955  11.304 -1.2270  0.4022  0.7389
14942TIP3    H266318   3.624   5.935  11.401 -0.0732  2.0627 -0.2384
14943TIP3   OH266319   0.182   0.213  14.642  0.2006 -0.3024 -0.3780
14943TIP3    H166320   0.127   0.259  14.579 -0.0459  0.5071  0.4105
14943TIP3    H266321   0.241   0.280  14.677  2.1232 -1.2545 -1.6237
14944TIP3   OH266322   3.584   5.149  11.431 -0.1913 -0.0478 -0.1164
14944TIP3    H166323   3.679   5.143  11.424 -0.2055 -0.7411  0.2427
14944TIP3    H266324   3.550   5.076  11.379 -0.4565 -1.0981  1.4453
14945TIP3   OH266325   0.881   6.111   3.162  0.1523 -0.2136 -0.7788
14945TIP3    H166326   0.933   6.181   3.203 -1.0773 -0.0160  0.4866
14945TIP3    H266327   0.798   6.153   3.140 -0.1610 -0.9916 -1.1026
14946TIP3   OH266328   5.724   4.865   3.915  0.3406 -0.7967 -0.6160
14946TIP3    H166329   5.816   4.860   3.942  0.3263  0.1224 -0.3603
14946TIP3    H266330   5.724   4.834   3.825  0.6012 -2.5860 -0.0422
14947TIP3   OH266331   3.275   2.962  11.794 -0.7956  0.2397  0.2794
14947TIP3    H166332   3.289   3.054  11.772 -3.9133  0.4636 -1.2544
14947TIP3    H266333   3.188   2.959  11.833 -0.3521 -1.9720  1.2880
14948TIP3   OH266334   5.650   0.342   3.317  0.0549 -0.2876 -0.3960
14948TIP3    H166335   5.603   0.424   3.336 -0.4673 -1.0699  2.1028
14948TIP3    H266336   5.581   0.282   3.286  0.4231  0.1413 -2.1444
14949TIP3   OH266337   6.313   1.928   0.416  0.1136 -0.1943 -0.3603
14949TIP3    H166338   6.359   2.010   0.400 -0.4507  0.1339 -0.2942
14949TIP3    H266339   6.344   1.899   0.502 -1.3461  1.0916  0.6611
14950TIP3   OH266340   1.961   6.725  14.148  0.3598  0.5434  0.0916
14950TIP3    H166341   2.019   6.780  14.095  0.9928  1.3053  1.5113
14950TIP3    H266342   2.004   6.639  14.150  0.9353  0.8336  0.3256
14951TIP3   OH266343   5.929   5.135   2.616 -0.4950  0.4608  1.1213
14951TIP3    H166344   5.953   5.156   2.706  0.8862 -0.6169  1.0394
14951TIP3    H266345   5.836   5.112   2.620 -0.1924 -0.6241  2.4884
14952TIP3   OH266346   5.021   0.131   3.708  0.2978 -0.3218 -0.1062
14952TIP3    H166347   4.997   0.043   3.736 -0.4394 -0.4245 -1.0273
14952TIP3    H266348   4.938   0.175   3.693  0.6629 -0.0354 -1.3735
14953TIP3   OH266349   3.208   0.374   5.309  0.1550  0.3156  0.1203
14953TIP3    H166350   3.267   0.437   5.267 -0.8543  1.3509  0.2363
14953TIP3    H266351   3.121   0.410   5.297 -0.3936 -0.7336  0.7773
14954TIP3   OH266352   0.524   5.562  13.782  0.0837  0.2436  0.2582
14954TIP3    H166353   0.608   5.596  13.750 -0.4860 -0.2701 -1.9660
14954TIP3    H266354   0.461   5.629  13.759 -0.4382 -0.4245 -0.2979
14955TIP3   OH266355   4.493   6.100   3.449  0.0830  0.1056 -0.5671
14955TIP3    H166356   4.416   6.144   3.412 -0.8326  0.5331  1.6290
14955TIP3    H266357   4.466   6.076   3.538  2.1925 -0.5739 -0.0419
14956TIP3   OH266358   3.392   2.366  16.702 -0.4329  0.1668  0.4184
14956TIP3    H166359   3.415   2.423  16.629  0.4111 -0.5183  0.1344
14956TIP3    H266360   3.431   2.408  16.779  1.7591 -0.8957 -0.0337
14957TIP3   OH266361   5.648   4.538   4.818  0.0585  1.1825 -0.8550
14957TIP3    H166362   5.663   4.485   4.739  2.4243  1.0699 -0.4242
14957TIP3    H266363   5.667   4.478   4.891 -1.0928  1.5618 -0.2255
14958TIP3   OH266364   0.956   5.930   5.306  0.1182  0.1670  0.1355
14958TIP3    H166365   1.019   6.001   5.296  0.1737 -0.0041 -0.8444
14958TIP3    H266366   0.941   5.899   5.216 -1.0192 -0.0854  0.4014
14959TIP3   OH266367   0.436   1.437  13.072 -0.5251 -0.1092  0.2937
14959TIP3    H166368   0.364   1.467  13.017 -1.1049 -0.4879  0.8383
14959TIP3    H266369   0.500   1.509  13.070 -0.5182 -0.1253 -0.8868
14960TIP3   OH266370   4.088   2.619  12.731 -0.3004  0.4158  0.6412
14960TIP3    H166371   4.180   2.647  12.728 -0.1841 -0.0367 -0.5990
14960TIP3    H266372   4.059   2.621  12.640 -2.2205  2.6929  1.1991
14961TIP3   OH266373   2.287   3.053   1.327  0.3419 -0.2585 -0.0063
14961TIP3    H166374   2.232   3.117   1.371  0.9419  0.0904  0.2409
14961TIP3    H266375   2.364   3.045   1.382  0.7436 -0.4070 -0.5817
14962TIP3   OH266376   1.899   1.050  15.800 -0.5025 -0.3543  0.5424
14962TIP3    H166377   1.867   1.135  15.771  0.9430  0.6565  1.6911
14962TIP3    H266378   1.826   0.990  15.787 -0.6548  0.4155 -2.9754
14963TIP3   OH266379   6.059   5.398   4.174  0.3169 -0.3367  0.1008
14963TIP3    H166380   6.118   5.323   4.180 -0.1858 -0.6891  0.9499
14963TIP3    H266381   6.049   5.427   4.265  0.4261  0.6980 -0.2114
14964TIP3   OH266382   2.048   2.699   5.513  0.1435  0.0246  0.0785
14964TIP3    H166383   1.993   2.649   5.453 -0.4872 -0.1555  0.7984
14964TIP3    H266384   2.005   2.784   5.521 -1.3682 -0.8582  2.4184
14965TIP3   OH266385   5.780   6.389  10.174  0.6188  0.6725  0.4083
14965TIP3    H166386   5.744   6.422  10.256  0.4309  0.8637  0.2525
14965TIP3    H266387   5.823   6.465  10.134  0.2736  0.7079  0.0963
14966TIP3   OH266388   1.302   5.991   3.806 -0.4938  0.0129 -0.0030
14966TIP3    H166389   1.215   5.952   3.801 -2.2644  3.4868  0.5249
14966TIP3    H266390   1.321   6.021   3.717 -0.2601  0.0439  0.0562
14967TIP3   OH266391   5.460   3.244  12.600  0.0572 -0.1329 -0.0205
14967TIP3    H166392   5.504   3.173  12.647 -2.7363 -3.8238 -2.3670
14967TIP3    H266393   5.409   3.290  12.667  1.9353 -0.2929  1.5919
14968TIP3   OH266394   1.146   2.111   4.041  0.1841  0.5936 -0.0027
14968TIP3    H166395   1.124   2.150   3.956 -0.3092 -1.6444 -0.9849
14968TIP3    H266396   1.139   2.184   4.103 -0.8101  2.0132 -1.6685
14969TIP3   OH266397   3.145   6.716  12.229  0.4678 -0.3688 -0.2214
14969TIP3    H166398   3.059   6.712  12.187  0.0856  0.5651  0.4332
14969TIP3    H266399   3.137   6.786  12.294  2.4800  1.6015 -1.9057
14970TIP3   OH266400   1.060   3.247  15.865 -0.1985  0.2627 -0.1783
14970TIP3    H166401   1.035   3.339  15.873 -2.3477 -0.4279  2.5598
14970TIP3    H266402   1.096   3.225  15.951  0.5794 -1.4089 -0.8903
14971TIP3   OH266403   0.565   5.090   4.397  0.1440 -0.6602 -0.4933
14971TIP3    H166404   0.527   5.129   4.318 -1.4754 -0.3917  0.3873
14971TIP3    H266405   0.509   5.014   4.416  0.3646 -0.5787  0.5312
14972TIP3   OH266406   0.597   2.397  12.103 -0.0353 -0.2886 -0.1018
14972TIP3    H166407   0.627   2.464  12.041  0.7701  0.0459  0.6188
14972TIP3    H266408   0.502   2.394  12.092 -0.1117  1.1316  0.0020
14973TIP3   OH266409   1.056   6.015  13.400  0.7348 -0.6215 -0.0841
14973TIP3    H166410   1.118   6.082  13.370  0.8380 -0.5690  0.2445
14973TIP3    H266411   1.109   5.955  13.453  0.6370 -0.9501 -0.3538
14974TIP3   OH266412   2.116   2.179   4.614  0.3175  0.0361  0.0156
14974TIP3    H166413   2.050   2.211   4.552  0.3902 -1.2780 -0.7890
14974TIP3    H266414   2.066   2.155   4.692 -0.1139 -0.5006 -0.4134
14975TIP3   OH266415   6.711   4.173   4.472 -0.5917  0.3403  0.2395
14975TIP3    H166416   6.717   4.184   4.377  1.3745  0.1696  0.2968
14975TIP3    H266417   6.677   4.084   4.484 -0.4022  0.1896 -0.3135
14976TIP3   OH266418   4.189   0.749   3.587  0.2442  0.1080 -0.1331
14976TIP3    H166419   4.106   0.743   3.540  0.4517 -0.4561 -0.4335
14976TIP3    H266420   4.240   0.675   3.556  1.1570  0.8752 -0.5101
14977TIP3   OH266421   4.512   1.048  11.478 -0.0515 -0.7060 -0.0940
14977TIP3    H166422   4.508   0.954  11.461 -0.5553 -1.0620  1.7460
14977TIP3    H266423   4.573   1.056  11.551  0.2615  0.4425 -0.4667
14978TIP3   OH266424   1.970   1.312   5.521 -0.7617 -0.1324 -0.1142
14978TIP3    H166425   2.050   1.365   5.522 -0.0601 -1.1648 -0.4716
14978TIP3    H266426   1.908   1.364   5.470  0.2579 -0.1152 -1.4072
14979TIP3   OH266427   0.164   0.156  13.684  0.2783  0.3706 -0.4976
14979TIP3    H166428   0.260   0.157  13.681  0.4101 -2.7710 -3.5757
14979TIP3    H266429   0.144   0.114  13.768  1.5551  0.9297  0.1241
14980TIP3   OH266430   6.301   6.388  11.652 -0.2117 -0.3681  0.2718
14980TIP3    H166431   6.230   6.324  11.657  1.6201 -2.5237  0.4967
14980TIP3    H266432   6.327   6.388  11.560 -0.4890  0.4191  0.1863
14981TIP3   OH266433   0.630   5.142  12.145  0.4709  0.1890 -0.3848
14981TIP3    H166434   0.548   5.181  12.175  0.1917 -1.4299  1.1793
14981TIP3    H266435   0.659   5.197  12.072 -0.5209  2.4633  0.8558
14982TIP3   OH266436   2.648   6.479   4.906  0.0671  0.3162  0.0948
14982TIP3    H166437   2.586   6.521   4.846  1.0283  0.8436 -0.5496
14982TIP3    H266438   2.674   6.548   4.966  0.8832  0.4030 -0.3409
14983TIP3   OH266439   3.050   3.089  13.673 -0.3479  0.1945 -0.4863
14983TIP3    H166440   3.037   3.095  13.579  0.8807  3.3154 -0.5917
14983TIP3    H266441   3.049   3.180  13.703 -1.0015 -0.7055  2.5820
14984TIP3   OH266442   0.753   0.669   1.844 -0.3900  0.5783  0.0591
14984TIP3    H166443   0.822   0.603   1.854 -0.0831  1.2107  2.7251
14984TIP3    H266444   0.789   0.732   1.782  0.4368 -0.2936 -0.3774
14985TIP3   OH266445   6.257   0.314  15.554 -0.0737 -0.0319  0.3350
14985TIP3    H166446   6.279   0.379  15.487 -0.0451  0.8667  1.1827
14985TIP3    H266447   6.267   0.361  15.637 -0.5753 -0.9749  0.9519
14986TIP3   OH266448   6.073   4.449   1.850  0.3802 -0.0237 -0.2697
14986TIP3    H166449   6.052   4.457   1.943 -2.3568 -1.9698 -0.6143
14986TIP3    H266450   6.014   4.511   1.807 -0.8666 -1.6076 -0.9028
14987TIP3   OH266451   2.121   5.646  15.346 -0.3486 -0.7022 -0.2472
14987TIP3    H166452   2.169   5.563  15.353 -1.5758 -1.4812 -0.7349
14987TIP3    H266453   2.077   5.641  15.262 -1.1079  0.0764  0.0882
14988TIP3   OH266454   6.635   3.127   0.955 -0.1340 -0.2336 -0.3673
14988TIP3    H166455   6.605   3.067   0.887  0.3646 -0.5770 -0.2939
14988TIP3    H266456   6.645   3.071   1.033  0.3264 -0.0573 -0.2981
14989TIP3   OH266457   3.829   2.081  13.720 -0.3035  0.2694 -0.2990
14989TIP3    H166458   3.787   2.059  13.638  0.5959 -0.3400 -0.6157
14989TIP3    H266459   3.802   2.013  13.781  0.4182 -0.2778 -0.5764
14990TIP3   OH266460   6.731   4.629   5.014 -0.5281  0.0553 -0.0358
14990TIP3    H166461   6.680   4.671   5.083  0.9505 -1.4203  2.1076
14990TIP3    H266462   6.791   4.570   5.061  1.0137 -0.5625 -2.5617
14991TIP3   OH266463   5.832   6.769  15.511 -0.3027  0.2000  0.5947
14991TIP3    H166464   5.793   6.850  15.476  0.8604  0.3183 -0.5060
14991TIP3    H266465   5.900   6.799  15.571  1.2940  0.1281 -1.0913
14992TIP3   OH266466   4.193   2.349   6.096  0.0517 -0.7645  0.3500
14992TIP3    H166467   4.129   2.412   6.126  2.1342  1.0939  1.1734
14992TIP3    H266468   4.259   2.401   6.050  1.0660 -2.5256 -0.2994
14993TIP3   OH266469   3.648   6.718  14.268 -0.0701 -0.3513  0.1275
14993TIP3    H166470   3.690   6.652  14.212  1.4006  0.5789  0.0869
14993TIP3    H266471   3.611   6.782  14.207  2.3933  1.1920  0.1376
14994TIP3   OH266472   0.747   2.162  16.430 -0.1093 -0.1296  0.2042
14994TIP3    H166473   0.719   2.085  16.380 -0.0753  0.9113 -1.4914
14994TIP3    H266474   0.780   2.126  16.513  0.4826 -1.9935 -0.7769
14995TIP3   OH266475   4.426   0.933   2.834 -0.2173  0.3801 -0.4390
14995TIP3    H166476   4.439   0.977   2.750 -0.3494 -0.6891 -1.0386
14995TIP3    H266477   4.356   0.869   2.817  1.4641 -1.6176 -0.2268
14996TIP3   OH266478   0.177   5.858   3.286  0.0084  0.1435  0.4639
14996TIP3    H166479   0.197   5.769   3.259  2.1869  0.6505  0.2442
14996TIP3    H266480   0.260   5.904   3.281 -0.9525  2.0624  1.1271
14997TIP3   OH266481   6.194   4.345  13.988  0.1010  0.3739 -0.1272
14997TIP3    H166482   6.260   4.280  14.012  1.1857  0.6353 -2.1478
14997TIP3    H266483   6.243   4.411  13.938 -1.1915  2.1166  0.8062
14998TIP3   OH266484   0.452   2.490  12.334  1.1745 -0.2274 -0.3749
14998TIP3    H166485   0.534   2.464  12.291  2.0536  0.9809  0.5087
14998TIP3    H266486   0.423   2.412  12.380  1.9233 -0.6138 -0.5479
14999TIP3   OH266487   3.002   2.703   3.584  0.0066  0.0800 -0.0752
14999TIP3    H166488   3.045   2.730   3.503 -1.0500 -1.4744 -1.2348
14999TIP3    H266489   2.924   2.759   3.590  0.4282  0.6423  0.2386
15000TIP3   OH266490   1.721   0.599   4.559 -0.2775  0.4314 -0.0839
15000TIP3    H166491   1.736   0.506   4.575  0.0886  0.2284 -1.4893
15000TIP3    H266492   1.792   0.644   4.606  1.2085 -0.1806 -1.6408
15001TIP3   OH266493   1.168   4.230  14.682 -0.1223 -0.4342  0.3966
15001TIP3    H166494   1.162   4.243  14.777  0.1428 -1.2656  0.5338
15001TIP3    H266495   1.201   4.314  14.649 -0.6097  0.0052  0.9886
15002TIP3   OH266496   5.997   3.972  13.090 -0.3047 -0.9175  0.1751
15002TIP3    H166497   6.077   4.024  13.096  0.4885 -1.8795 -1.4273
15002TIP3    H266498   6.023   3.894  13.041 -1.9466 -1.8483  0.7123
15003TIP3   OH266499   4.376   2.666   0.284 -0.2220 -0.2380 -0.0880
15003TIP3    H166500   4.423   2.647   0.365 -0.0702  0.2471 -0.0619
15003TIP3    H266501   4.442   2.703   0.226 -0.6617  0.9101  0.1139
15004TIP3   OH266502   3.860   1.274   3.845  0.2082 -0.0890  0.2034
15004TIP3    H166503   3.896   1.267   3.933  0.3034 -1.2523  0.0882
15004TIP3    H266504   3.792   1.342   3.852  0.3178 -0.0615  1.1282
15005TIP3   OH266505   6.824   4.563  13.002 -0.7037 -0.4477  0.1707
15005TIP3    H166506   6.886   4.506  12.957  1.1430  1.9039 -0.4971
15005TIP3    H266507   6.840   4.546  13.095 -0.0733 -0.9065 -0.0126
15006TIP3   OH266508   1.830   4.702  16.813  0.2684 -0.1806 -0.8676
15006TIP3    H166509   1.896   4.709  16.745  2.9864  1.4426  1.6788
15006TIP3    H266510   1.813   4.792  16.839 -1.1897 -0.7109  0.1500
15007TIP3   OH266511   3.144   3.960   2.176 -0.7604  0.0025  0.2287
15007TIP3    H166512   3.237   3.940   2.165 -1.0863 -1.4140 -0.1411
15007TIP3    H266513   3.109   3.962   2.087 -1.1067  0.4698  0.3701
15008TIP3   OH266514   0.790   6.808   1.453 -0.1834 -0.2132 -0.3140
15008TIP3    H166515   0.768   6.716   1.470 -0.1292 -0.1095  0.3099
15008TIP3    H266516   0.882   6.806   1.426  0.1629 -0.2235  0.8161
15009TIP3   OH266517   6.723   6.473   2.034 -0.1702 -0.2110 -0.0981
15009TIP3    H166518   6.646   6.451   2.087  1.1293  0.9247  2.4493
15009TIP3    H266519   6.755   6.389   2.002 -2.0834 -0.7517 -0.7130
15010TIP3   OH266520   4.581   0.064   3.658  0.2729 -0.5463  0.0332
15010TIP3    H166521   4.566   0.007   3.733 -1.7301 -0.4750 -0.2467
15010TIP3    H266522   4.640   0.132   3.691 -0.1365 -0.8169  1.3938
15011TIP3   OH266523   0.438   0.699   2.289  0.2883 -0.2090  0.5945
15011TIP3    H166524   0.385   0.776   2.267 -0.5641 -0.7626  0.6469
15011TIP3    H266525   0.397   0.627   2.241  2.6998 -0.2099 -1.6699
15012TIP3   OH266526   1.887   0.938   1.237  0.0186 -0.6069  0.0846
15012TIP3    H166527   1.854   1.028   1.248  0.4310 -0.3392 -0.7407
15012TIP3    H266528   1.809   0.886   1.216 -0.0734 -0.2216 -0.5667
15013TIP3   OH266529   5.877   2.444   4.422 -0.2709 -0.0708  0.0777
15013TIP3    H166530   5.969   2.450   4.450 -0.6860 -1.5999  1.9729
15013TIP3    H266531   5.872   2.362   4.374 -0.3904  0.6935 -1.2653
15014TIP3   OH266532   3.924   6.098  13.348 -0.2928  0.2186 -0.1331
15014TIP3    H166533   3.974   6.124  13.271  1.6941 -0.2419  0.9231
15014TIP3    H266534   3.991   6.075  13.413 -1.9033 -0.8984  1.2114
15015TIP3   OH266535   3.633   0.873  15.939  0.1970  0.3315 -0.0993
15015TIP3    H166536   3.650   0.796  15.993 -0.2321 -0.7028 -1.4135
15015TIP3    H266537   3.546   0.903  15.967  0.4847  0.5325  0.6123
15016TIP3   OH266538   3.403   1.639   2.352 -0.7907 -0.6317  0.1468
15016TIP3    H166539   3.315   1.611   2.323 -1.1099 -0.6576  1.1160
15016TIP3    H266540   3.419   1.720   2.303 -0.7894 -1.3186 -1.0286
15017TIP3   OH266541   5.808   1.136   2.648  0.3915  0.6240 -0.2864
15017TIP3    H166542   5.800   1.182   2.731 -0.8299 -0.8441  0.4753
15017TIP3    H266543   5.891   1.090   2.653  0.0920  0.1382  0.3650
15018TIP3   OH266544   0.351   2.367   0.139 -0.0142 -0.1757  0.6875
15018TIP3    H166545   0.256   2.373   0.151 -0.0411  0.7775  0.1708
15018TIP3    H266546   0.386   2.358   0.227 -0.5033  1.0449  1.0340
15019TIP3   OH266547   1.302   1.053  14.727 -0.1764 -0.0789  0.3624
15019TIP3    H166548   1.319   1.013  14.812 -1.0589 -0.0233  0.5795
15019TIP3    H266549   1.312   0.982  14.664 -0.0202 -0.2388  0.5662
15020TIP3   OH266550   0.129   0.425  12.155  0.1896  0.3396 -0.1052
15020TIP3    H166551   0.172   0.510  12.164  0.0934  0.3039  0.7527
15020TIP3    H266552   0.144   0.401  12.063  2.7910 -0.0965  0.3584
15021TIP3   OH266553   1.103   5.255  15.577 -0.6678  0.5419  0.0824
15021TIP3    H166554   1.141   5.201  15.646  0.2893  0.7562 -0.2714
15021TIP3    H266555   1.109   5.344  15.610 -1.3676  0.5301  0.2551
15022TIP3   OH266556   2.330   2.212  11.212 -0.4487 -0.1058  0.1570
15022TIP3    H166557   2.374   2.242  11.132  1.9362 -0.6929  1.1540
15022TIP3    H266558   2.256   2.161  11.181  0.1266  0.1043 -1.6853
15023TIP3   OH266559   4.656   4.053   2.293 -0.6285 -0.5594  0.6910
15023TIP3    H166560   4.718   4.017   2.228 -2.1448 -1.3070 -0.3958
15023TIP3    H266561   4.711   4.072   2.369  1.5448  1.9939 -1.3282
15024TIP3   OH266562   6.313   6.480   2.960 -0.0662  1.0917  0.7824
15024TIP3    H166563   6.321   6.384   2.956  0.8622  1.2005 -1.4002
15024TIP3    H266564   6.376   6.507   3.027  1.0460  0.2751  0.1043
15025TIP3   OH266565   2.500   6.656   1.463  0.3308 -0.1984  0.2087
15025TIP3    H166566   2.514   6.735   1.412  2.7414 -0.0203  1.0317
15025TIP3    H266567   2.405   6.652   1.476 -0.1683  0.7738 -2.5653
15026TIP3   OH266568   4.335   4.807  12.839 -0.1411 -0.0014 -0.5829
15026TIP3    H166569   4.345   4.853  12.922  0.3010 -1.5224  0.2508
15026TIP3    H266570   4.257   4.752  12.851 -0.6653  0.4930 -1.5536
15027TIP3   OH266571   4.650   1.957   3.378  0.0203 -0.1499  0.1350
15027TIP3    H166572   4.586   2.028   3.384  1.7368  1.5231 -0.2807
15027TIP3    H266573   4.673   1.954   3.285  1.1197 -0.1656  0.3996
15028TIP3   OH266574   2.791   5.499  13.066 -0.3283 -0.3962  0.3732
15028TIP3    H166575   2.756   5.434  13.005 -0.0184  0.0576 -0.3021
15028TIP3    H266576   2.735   5.492  13.143 -0.3241 -1.4369  0.2991
15029TIP3   OH266577   6.698   1.616  12.505 -0.0988 -0.9354  0.8089
15029TIP3    H166578   6.758   1.691  12.499 -0.1682 -0.8993  0.5296
15029TIP3    H266579   6.746   1.551  12.557  0.5226 -1.2228 -0.0843
15030TIP3   OH266580   4.282   0.445   4.661  0.4167 -0.8647  0.3655
15030TIP3    H166581   4.331   0.450   4.743 -0.9052  0.0885  1.1356
15030TIP3    H266582   4.326   0.505   4.602  0.0658  0.1584  1.1241
15031TIP3   OH266583   0.100   4.131   4.523 -0.1599 -0.3899 -0.7846
15031TIP3    H166584   0.019   4.180   4.506  0.2334  0.2138 -0.9817
15031TIP3    H266585   0.071   4.048   4.559 -0.8080  0.8900  1.9247
15032TIP3   OH266586   2.300   2.031   4.102  0.1276 -0.0512 -0.4211
15032TIP3    H166587   2.269   2.098   4.042  1.3871  0.8221 -0.1455
15032TIP3    H266588   2.231   2.022   4.167  0.1097  1.3072 -0.2264
15033TIP3   OH266589   5.086   6.182   1.001 -0.1209  0.1192 -0.5464
15033TIP3    H166590   5.034   6.256   1.031 -1.7158 -1.1753  0.0193
15033TIP3    H266591   5.171   6.220   0.979 -0.8207  2.0669 -0.0893
15034TIP3   OH266592   0.794   1.727   0.407 -0.1335 -0.1223 -0.1794
15034TIP3    H166593   0.868   1.786   0.420  0.8940 -0.9835 -1.7578
15034TIP3    H266594   0.719   1.785   0.392  0.3155  0.7604  0.8836
15035TIP3   OH266595   2.383   2.925  14.574  0.0386  0.0459  0.4379
15035TIP3    H166596   2.375   2.856  14.509  0.1333  1.1050 -0.7316
15035TIP3    H266597   2.477   2.933  14.590  0.0938  0.5227 -0.1153
15036TIP3   OH266598   0.058   2.387   0.106 -0.7407 -0.1907  0.0651
15036TIP3    H166599   0.006   2.308   0.123 -0.8404 -0.2085 -0.3306
15036TIP3    H266600   0.067   2.390   0.011  0.6623 -0.6177  0.1529
15037TIP3   OH266601   1.915   5.662  15.703 -0.2320 -0.6690 -0.2409
15037TIP3    H166602   1.928   5.646  15.796 -1.2597  2.8481  0.6777
15037TIP3    H266603   2.004   5.674  15.668  0.1007 -0.5304  0.6316
15038TIP3   OH266604   0.650   0.292   4.029  0.4771  0.1413  0.1978
15038TIP3    H166605   0.703   0.370   4.014 -1.2066  0.8785 -2.8463
15038TIP3    H266606   0.586   0.319   4.096  1.4765  0.4975  1.0317
15039TIP3   OH266607   4.903   4.440  11.482 -0.6629  0.1816 -0.3255
15039TIP3    H166608   4.858   4.524  11.484  0.2634  0.6860 -0.7056
15039TIP3    H266609   4.990   4.457  11.517 -0.6313 -0.7294  0.0958
15040TIP3   OH266610   5.106   0.815   6.319 -0.0432  0.3040 -0.0699
15040TIP3    H166611   5.136   0.766   6.396  0.4265 -0.2453 -0.5890
15040TIP3    H266612   5.162   0.783   6.248  0.6685  2.0049 -0.3277
15041TIP3   OH266613   4.347   6.823   3.509  0.2526 -0.1185  0.4745
15041TIP3    H166614   4.411   6.825   3.438  0.7404 -1.6191  0.8386
15041TIP3    H266615   4.303   6.908   3.504  2.1728  0.9222  0.1216
15042TIP3   OH266616   1.506   4.598  10.407 -0.2219  0.1089  0.2541
15042TIP3    H166617   1.421   4.630  10.376 -1.1686 -1.1120  1.4636
15042TIP3    H266618   1.546   4.674  10.449 -1.8990  0.0770  2.0275
15043TIP3   OH266619   4.464   0.808   2.448  0.7008 -0.0589 -0.2818
15043TIP3    H166620   4.536   0.747   2.435  1.1293  0.6215 -1.1952
15043TIP3    H266621   4.497   0.873   2.510  0.3975 -0.4867  0.3418
15044TIP3   OH266622   3.884   6.295   1.989 -0.4559  0.2489 -0.3853
15044TIP3    H166623   3.827   6.303   1.913 -0.5202 -0.2703 -0.3915
15044TIP3    H266624   3.942   6.221   1.969  1.4800  1.8814 -1.2041
15045TIP3   OH266625   6.269   1.007  12.234 -0.2287  0.2983 -0.0803
15045TIP3    H166626   6.296   1.092  12.199 -1.6125  1.4677  1.4772
15045TIP3    H266627   6.237   1.028  12.322  0.5861 -2.0572  0.8470
15046TIP3   OH266628   1.381   1.816  13.330 -0.5591 -0.0994  0.1212
15046TIP3    H166629   1.386   1.832  13.424 -0.1800  0.7021 -0.0300
15046TIP3    H266630   1.386   1.720  13.322 -0.2268 -0.1540  0.8909
15047TIP3   OH266631   5.645   2.693   3.506  0.7383  0.0116  0.0995
15047TIP3    H166632   5.564   2.644   3.498  0.5523  0.4036 -0.4565
15047TIP3    H266633   5.692   2.650   3.578 -0.4385  0.4754  1.1739
15048TIP3   OH266634   0.173   4.640   0.305  0.8957 -0.1056  0.3367
15048TIP3    H166635   0.177   4.567   0.367  0.8030  1.4764  2.2603
15048TIP3    H266636   0.091   4.626   0.257  0.3746 -0.7057  1.3736
15049TIP3   OH266637   1.906   3.706   2.359  0.2416  1.0674  0.3779
15049TIP3    H166638   1.960   3.731   2.284 -0.4930  1.4673 -0.0234
15049TIP3    H266639   1.825   3.674   2.320  0.0080  0.9088  0.9933
15050TIP3   OH266640   4.104   0.238   3.998  0.1713 -0.1801  0.7247
15050TIP3    H166641   4.159   0.204   3.928  0.0675 -0.2732  0.6879
15050TIP3    H266642   4.017   0.203   3.980  0.2661 -0.6917  1.2252
15051TIP3   OH266643   2.761   5.430  12.676  0.2870 -0.3145  0.0369
15051TIP3    H166644   2.746   5.370  12.604 -1.5905  0.8265 -0.6013
15051TIP3    H266645   2.775   5.374  12.752  0.0576 -1.5327 -0.7955
15052TIP3   OH266646   2.004   6.077   0.671 -0.1523 -0.0004  0.0245
15052TIP3    H166647   1.953   6.010   0.717 -2.2885  0.3188 -1.7515
15052TIP3    H266648   2.034   6.034   0.591  1.3219  0.2158  0.4309
15053TIP3   OH266649   4.218   3.300   2.058  0.3982  0.0852  0.3126
15053TIP3    H166650   4.188   3.326   1.971  1.1799  1.0324  0.3129
15053TIP3    H266651   4.313   3.298   2.051  0.4242 -1.3106  0.7421
15054TIP3   OH266652   6.297   0.114  16.245 -0.5217  0.2999 -0.6712
15054TIP3    H166653   6.390   0.107  16.268 -1.3846  0.3916  3.9842
15054TIP3    H266654   6.270   0.024  16.227 -0.1776 -0.3513  1.7063
15055TIP3   OH266655   5.707   6.779   2.575  0.2040  0.1651 -0.1623
15055TIP3    H166656   5.702   6.690   2.539  2.0299 -0.1168  0.1835
15055TIP3    H266657   5.797   6.806   2.561  0.1858  1.2184  1.4643
15056TIP3   OH266658   2.939   5.808  13.250 -0.2042  0.8610  0.8021
15056TIP3    H166659   2.957   5.721  13.216 -1.0245  0.9166  0.1924
15056TIP3    H266660   2.935   5.796  13.345 -3.0076 -0.3538  0.6251
15057TIP3   OH266661   4.105   3.572  14.546 -0.3213 -0.7180  0.1345
15057TIP3    H166662   4.131   3.661  14.570 -1.7241 -0.2783  0.1181
15057TIP3    H266663   4.077   3.580  14.455  1.6958 -1.6694 -0.6294
15058TIP3   OH266664   1.752   4.965   3.586  0.3371  0.0233 -0.5790
15058TIP3    H166665   1.673   4.984   3.638  0.4863  2.1990 -1.0352
15058TIP3    H266666   1.721   4.961   3.496  0.5036 -0.9936 -0.6063
15059TIP3   OH266667   0.481   3.133  11.862 -0.3496  0.2523 -0.1749
15059TIP3    H166668   0.399   3.089  11.884  0.0042 -0.8647 -1.0186
15059TIP3    H266669   0.548   3.079  11.904  0.2669 -1.3529 -2.9664
15060TIP3   OH266670   3.243   5.557  13.043 -0.2836 -0.5345  0.0463
15060TIP3    H166671   3.166   5.582  12.992 -0.5720  0.1823  0.8179
15060TIP3    H266672   3.207   5.516  13.122 -0.0623  2.5493  1.9247
15061TIP3   OH266673   2.570   1.583   5.264  0.0284 -0.3446  0.2318
15061TIP3    H166674   2.647   1.590   5.208 -0.2109  0.9944  0.0356
15061TIP3    H266675   2.562   1.669   5.305 -1.8290 -0.1685 -0.3948
15062TIP3   OH266676   6.802   1.226   0.614 -0.4786 -0.2376  0.1159
15062TIP3    H166677   6.873   1.180   0.569  0.5284  0.0920  1.3334
15062TIP3    H266678   6.777   1.296   0.553  1.5872  0.8674  0.4331
15063TIP3   OH266679   1.085   4.933  13.704  0.0909 -0.3030 -0.0685
15063TIP3    H166680   1.128   4.917  13.788  0.1525 -2.5370 -0.4797
15063TIP3    H266681   1.008   4.985  13.726  0.3762 -0.4178  1.3022
15064TIP3   OH266682   2.933   1.942  13.158 -0.5254 -0.0162 -0.3398
15064TIP3    H166683   2.850   1.901  13.181  0.2662 -0.6262  1.6305
15064TIP3    H266684   2.966   1.978  13.241  1.8538 -1.0772 -0.7362
15065TIP3   OH266685   6.832   1.394  13.208 -0.7891  0.0888 -0.2752
15065TIP3    H166686   6.903   1.450  13.239 -1.2344  0.1305  0.6777
15065TIP3    H266687   6.845   1.311  13.253  0.5697 -1.0347 -2.5551
15066TIP3   OH266688   6.597   0.652  13.176  0.2567  0.6890  0.2372
15066TIP3    H166689   6.559   0.682  13.094  1.1583  0.2979 -0.3326
15066TIP3    H266690   6.521   0.626  13.229 -0.2715 -1.9700 -1.5954
15067TIP3   OH266691   6.226   0.495   1.247  0.6559 -0.3775  0.4143
15067TIP3    H166692   6.311   0.463   1.276  1.0429  0.0764 -0.1970
15067TIP3    H266693   6.163   0.442   1.295  1.2469  0.8503  2.7187
15068TIP3   OH266694   3.507   1.745   5.824  0.3293 -0.0796  0.0813
15068TIP3    H166695   3.560   1.665   5.817  0.3315 -0.1083  0.3858
15068TIP3    H266696   3.558   1.812   5.779 -1.1396 -0.9354 -3.0834
15069TIP3   OH266697   1.194   6.242   1.847 -0.0664 -0.3223  0.1261
15069TIP3    H166698   1.186   6.177   1.778  1.3758 -2.4777  1.8604
15069TIP3    H266699   1.104   6.262   1.873 -0.6947  1.1886 -2.8145
15070TIP3   OH266700   0.476   2.956   1.340  0.0548 -0.3155 -0.2685
15070TIP3    H166701   0.556   3.008   1.334 -1.0354  1.2859 -4.2060
15070TIP3    H266702   0.488   2.887   1.275 -1.5852 -0.2809 -0.6375
15071TIP3   OH266703   1.152   0.173   1.626 -0.0408  0.2440 -0.0334
15071TIP3    H166704   1.061   0.200   1.638 -1.0125 -1.4463 -2.6791
15071TIP3    H266705   1.150   0.078   1.634  1.3033  0.0971 -0.9993
15072TIP3   OH266706   6.177   3.764   2.509 -0.1726 -0.0973  0.2456
15072TIP3    H166707   6.092   3.721   2.516  0.3651 -1.1682  0.4480
15072TIP3    H266708   6.157   3.857   2.503 -1.4242 -0.4140 -1.0161
15073TIP3   OH266709   4.790   3.026  11.298 -0.0644 -0.2648 -0.0090
15073TIP3    H166710   4.862   3.089  11.292  1.0920 -1.6459 -1.7080
15073TIP3    H266711   4.831   2.945  11.327 -0.7272 -1.2896 -1.7431
15074TIP3   OH266712   0.001   2.122   0.444 -0.3207  0.1865 -0.3562
15074TIP3    H166713  -0.086   2.109   0.480 -0.3759 -0.5676 -0.7608
15074TIP3    H266714   0.046   2.176   0.510 -0.9712  0.2751  0.0200
15075TIP3   OH266715   0.619   5.843   0.355 -0.1312  0.1517 -0.1974
15075TIP3    H166716   0.615   5.756   0.315 -0.4778 -0.5718  1.3304
15075TIP3    H266717   0.672   5.895   0.295  2.5162 -1.8880  0.1916
15076TIP3   OH266718   4.919   6.517  14.919 -0.0332 -0.1569 -0.4904
15076TIP3    H166719   4.928   6.607  14.950  2.1311 -0.6769  0.6597
15076TIP3    H266720   4.920   6.524  14.824  1.9864  0.9785 -0.4517
15077TIP3   OH266721   2.683   6.193  15.271  0.3146  0.0547  0.2580
15077TIP3    H166722   2.616   6.171  15.206  1.6651 -0.4746 -0.9876
15077TIP3    H266723   2.656   6.143  15.349 -1.1664  0.4817  0.0591
15078TIP3   OH266724   6.387   5.064   0.070 -0.2437 -0.0062 -0.1829
15078TIP3    H166725   6.349   4.979   0.047  0.0570 -0.3618  0.6064
15078TIP3    H266726   6.464   5.043   0.122 -0.1631  0.7519  0.0173
15079TIP3   OH266727   1.342   0.168   2.209  0.8515  0.2902  0.6382
15079TIP3    H166728   1.320   0.160   2.116  1.1179  1.7786  0.4184
15079TIP3    H266729   1.423   0.221   2.210  0.4841  0.8715  1.7354
15080TIP3   OH266730   4.004   6.108  12.831  0.6150 -0.4397 -0.1899
15080TIP3    H166731   3.999   6.166  12.755  1.2337 -0.3735 -0.1856
15080TIP3    H266732   3.913   6.087  12.851  0.4508 -0.6163 -1.0730
15081TIP3   OH266733   2.007   3.377  12.715  0.3340 -0.1020  0.0237
15081TIP3    H166734   2.076   3.327  12.760 -1.9375 -1.5542  2.1712
15081TIP3    H266735   1.956   3.311  12.669  0.7840  1.0488 -2.2513
15082TIP3   OH266736   0.306   3.371   1.041  0.2120  0.8396  0.4314
15082TIP3    H166737   0.339   3.310   0.976  1.6203  0.1041  1.7728
15082TIP3    H266738   0.219   3.337   1.065  0.7906 -0.4150  0.8359
15083TIP3   OH266739   2.399   6.494   6.343  0.0610 -0.1872  0.5812
15083TIP3    H166740   2.461   6.556   6.304  0.6386 -0.6294  0.7749
15083TIP3    H266741   2.313   6.522   6.312  0.5350 -0.7941 -1.4066
15084TIP3   OH266742   4.805   0.948  16.429  0.1339 -0.5654 -0.6784
15084TIP3    H166743   4.824   1.039  16.455  0.0253 -0.1331 -2.0695
15084TIP3    H266744   4.720   0.952  16.387 -0.0861 -1.4110 -0.3294
15085TIP3   OH266745   3.096   5.828   2.833 -0.2471  0.5464 -0.2836
15085TIP3    H166746   3.096   5.799   2.925  1.1318 -1.3788 -0.8112
15085TIP3    H266747   3.005   5.848   2.814 -0.8563 -0.8128  1.0185
15086TIP3   OH266748   5.004   0.224   0.656 -0.0598  0.1160 -0.0450
15086TIP3    H166749   5.023   0.139   0.617 -2.2211 -0.3130 -0.2748
15086TIP3    H266750   4.996   0.284   0.582 -1.4921 -0.1433 -0.1364
15087TIP3   OH266751   2.168   4.070   4.158  0.3389 -0.1844  0.2591
15087TIP3    H166752   2.221   4.125   4.099  0.0759 -0.2516 -0.0466
15087TIP3    H266753   2.188   4.103   4.245  0.4956  0.1303  0.1103
15088TIP3   OH266754   4.468   0.368  12.475 -0.0279 -0.0290 -0.2345
15088TIP3    H166755   4.466   0.441  12.414  0.4142 -0.9154 -1.3481
15088TIP3    H266756   4.439   0.293  12.423 -1.7899 -0.4374  1.2212
15089TIP3   OH266757   1.702   3.779   4.327  0.4098 -0.1517  0.4195
15089TIP3    H166758   1.707   3.741   4.240  1.1099  1.5840 -0.3468
15089TIP3    H266759   1.609   3.779   4.349  0.4765 -3.9115  1.2707
15090TIP3   OH266760   6.446   5.346  11.436 -0.0214  0.2205  0.3919
15090TIP3    H166761   6.409   5.304  11.359 -0.3605 -0.3692  0.8687
15090TIP3    H266762   6.507   5.411  11.401  0.2811 -0.4542 -0.3523
15091TIP3   OH266763   3.030   6.198  13.206 -0.9757 -0.5903 -0.4511
15091TIP3    H166764   3.098   6.146  13.249  0.7590  0.7835 -1.4011
15091TIP3    H266765   3.045   6.186  13.113 -0.5991  1.4768 -0.6946
15092TIP3   OH266766   0.321   1.490  12.099 -0.6673 -0.1365 -0.0788
15092TIP3    H166767   0.269   1.410  12.107 -1.9904  0.5660 -1.2749
15092TIP3    H266768   0.333   1.502  12.005 -0.3442  0.9806  0.0863
15093TIP3   OH266769   6.380   5.144   6.228 -0.7045 -0.0043  0.2445
15093TIP3    H166770   6.356   5.140   6.321  0.2284  1.0974  0.5562
15093TIP3    H266771   6.474   5.157   6.228 -0.5315 -1.0962 -0.8980
15094TIP3   OH266772   3.480   1.423   0.245  0.9000  0.0823 -0.0863
15094TIP3    H166773   3.481   1.485   0.172  0.9388  0.1681 -0.0130
15094TIP3    H266774   3.403   1.368   0.229  0.4176  0.6485  0.2649
15095TIP3   OH266775   3.396   6.582   4.038  0.2999  0.4967 -0.5991
15095TIP3    H166776   3.367   6.645   3.972  1.0426  0.6865 -0.7568
15095TIP3    H266777   3.492   6.591   4.038  0.2821  0.8692  0.8668
15096TIP3   OH266778   5.791   3.785   1.048  0.3601 -0.0175  0.0172
15096TIP3    H166779   5.752   3.865   1.012  0.8485  0.1310 -0.1783
15096TIP3    H266780   5.864   3.815   1.102  0.5634 -0.3320 -0.0796
15097TIP3   OH266781   4.233   1.478   4.943 -0.2395  0.6176  0.3076
15097TIP3    H166782   4.223   1.488   5.038 -0.1360 -0.4020  0.4308
15097TIP3    H266783   4.270   1.562   4.915 -1.2404  1.3201  1.0107
15098TIP3   OH266784   3.143   2.768  14.271 -0.1266 -0.2056 -0.0984
15098TIP3    H166785   3.092   2.690  14.249 -0.5952 -0.7493  2.5654
15098TIP3    H266786   3.161   2.759  14.364  0.3797  2.5652  0.1579
15099TIP3   OH266787   2.943   3.191  14.961 -0.8476  0.3812 -0.1111
15099TIP3    H166788   2.927   3.107  15.003 -0.8547  0.7901  0.7162
15099TIP3    H266789   2.993   3.241  15.026  0.2079  0.5982 -1.0506
15100TIP3   OH266790   0.261   4.131  14.715 -0.0544  0.1435 -0.3094
15100TIP3    H166791   0.176   4.088  14.711  0.0348  0.0474 -1.5579
15100TIP3    H266792   0.270   4.159  14.806 -2.0969  1.5230 -0.4727
15101TIP3   OH266793   6.575   6.810   1.606 -0.2097 -0.8106 -0.5735
15101TIP3    H166794   6.553   6.761   1.685 -1.9278 -0.4374 -0.7961
15101TIP3    H266795   6.558   6.901   1.629 -1.6727 -0.7875 -1.6620
15102TIP3   OH266796   2.671   0.762   3.557 -0.1408 -0.4243  0.2004
15102TIP3    H166797   2.704   0.747   3.646 -0.2356  4.6338  1.4238
15102TIP3    H266798   2.578   0.741   3.562  0.2689 -2.3201  0.5550
15103TIP3   OH266799   5.706   6.455  15.839 -0.2368 -0.0732  0.2575
15103TIP3    H166800   5.635   6.497  15.886  0.2443  0.9745  0.0742
15103TIP3    H266801   5.679   6.457  15.747  0.1990  0.7169  0.1348
15104TIP3   OH266802   5.608   1.201  11.939  0.5379 -0.0522 -0.4900
15104TIP3    H166803   5.616   1.214  12.034 -1.8308  1.7986 -0.4504
15104TIP3    H266804   5.659   1.272  11.901 -1.6843  1.6647 -0.4619
15105TIP3   OH266805   3.562   4.015  14.789  0.3788  0.3694  0.4932
15105TIP3    H166806   3.580   4.023  14.695  0.4382  1.6182  0.5907
15105TIP3    H266807   3.628   3.954  14.821 -0.5751 -1.2412 -0.5205
15106TIP3   OH266808   1.581   4.896  12.826 -0.7557 -0.0261 -0.3418
15106TIP3    H166809   1.557   4.988  12.837  0.3848  0.4504 -1.6032
15106TIP3    H266810   1.593   4.864  12.916  2.2214  2.0165  0.1277
15107TIP3   OH266811   2.048   3.697  11.513 -0.4855 -0.4197 -0.2200
15107TIP3    H166812   2.065   3.714  11.420 -1.1609  0.3416 -0.2095
15107TIP3    H266813   2.106   3.623  11.534 -0.8616 -1.0869 -1.4257
15108TIP3   OH266814   1.172   6.780  13.780  0.1979  0.0284  0.2747
15108TIP3    H166815   1.157   6.776  13.875  0.0013 -0.6840  0.2196
15108TIP3    H266816   1.086   6.762  13.742  0.4818 -0.7100 -0.0376
15109TIP3   OH266817   0.771   5.319  16.433  0.3255  0.6549  0.0017
15109TIP3    H166818   0.753   5.411  16.453 -0.1301  1.3593 -3.0974
15109TIP3    H266819   0.694   5.272  16.462 -0.3326  1.5670 -0.2263
15110TIP3   OH266820   3.569   3.317  16.037 -0.0890  0.2036  0.1958
15110TIP3    H166821   3.628   3.391  16.021 -0.0975  0.6724  2.1835
15110TIP3    H266822   3.626   3.240  16.035 -0.0253  0.2489 -1.5176
15111TIP3   OH266823   6.118   3.856  15.707 -0.8957 -0.3973  0.2219
15111TIP3    H166824   6.202   3.822  15.676 -1.4080 -0.4727 -1.1656
15111TIP3    H266825   6.058   3.782  15.700 -1.7472  0.4112 -1.7068
15112TIP3   OH266826   5.780   3.388  10.924 -0.0493  0.2389 -0.3785
15112TIP3    H166827   5.797   3.377  10.830 -0.2523 -0.5184 -0.3279
15112TIP3    H266828   5.687   3.407  10.929 -0.1354 -0.2003 -0.2943
15113TIP3   OH266829   5.783   1.700   2.920  0.5670 -0.2750  0.5035
15113TIP3    H166830   5.762   1.663   2.835  2.0865  2.5620 -1.2544
15113TIP3    H266831   5.702   1.741   2.950  0.5179  0.3997 -0.5303
15114TIP3   OH266832   2.009   4.626   4.566  0.0618 -0.5126  0.1117
15114TIP3    H166833   1.958   4.689   4.515 -0.7162 -1.3578 -0.1872
15114TIP3    H266834   2.092   4.670   4.583 -0.1095  0.2341 -0.8921
15115TIP3   OH266835   6.279   2.009  12.910  0.6623  0.0535  0.3234
15115TIP3    H166836   6.322   2.062  12.843  0.4707 -1.3194 -0.9548
15115TIP3    H266837   6.347   1.948  12.939  0.0522 -1.0855 -0.5582
15116TIP3   OH266838   2.749   5.127   1.284 -0.3782  0.3734 -0.4251
15116TIP3    H166839   2.822   5.105   1.342 -1.0155  2.3006  1.2183
15116TIP3    H266840   2.695   5.047   1.281  1.0644 -0.6388 -0.6236
15117TIP3   OH266841   0.229   4.032  11.089  0.5393  0.4881  0.0299
15117TIP3    H166842   0.171   4.106  11.108  0.4182  0.7974 -1.4575
15117TIP3    H266843   0.274   4.056  11.009  0.0811 -1.2887 -0.8167
15118TIP3   OH266844   4.558   5.120  14.620  0.1156  0.3983  0.0530
15118TIP3    H166845   4.582   5.209  14.594  2.7822 -0.3734 -0.5327
15118TIP3    H266846   4.606   5.064  14.558 -0.4327 -1.4452  1.2056
15119TIP3   OH266847   6.651   6.801   2.567 -0.1432  0.2190  0.2164
15119TIP3    H166848   6.713   6.729   2.568  1.0587  1.2123  1.1688
15119TIP3    H266849   6.666   6.845   2.483  0.4131  0.4190  0.4155
15120TIP3   OH266850   0.084   5.570   4.359  0.4299 -0.4712  0.2424
15120TIP3    H166851   0.136   5.495   4.329  1.1675 -1.4444  3.5373
15120TIP3    H266852   0.148   5.640   4.372  0.8411 -1.2186  2.8794
15121TIP3   OH266853   0.799   3.841  13.432  0.4141  0.1393  0.8741
15121TIP3    H166854   0.719   3.843  13.485 -0.6897  2.3475 -0.7085
15121TIP3    H266855   0.869   3.866  13.493 -0.3488 -0.1493  1.8965
15122TIP3   OH266856   4.231   4.987  11.142  0.0747  0.0252 -0.3085
15122TIP3    H166857   4.216   4.978  11.236 -0.6107 -0.3397 -0.4491
15122TIP3    H266858   4.315   5.031  11.136  0.4723 -0.5907  0.4735
15123TIP3   OH266859   4.640   5.240   1.795 -0.3091  1.0752 -0.4894
15123TIP3    H166860   4.557   5.192   1.801 -0.3756  1.2232 -0.2261
15123TIP3    H266861   4.707   5.172   1.795 -0.4521  0.9233 -1.2590
15124TIP3   OH266862   3.840   1.462   2.667  0.0936 -0.1989  0.1801
15124TIP3    H166863   3.891   1.444   2.745 -0.9782 -1.1069  0.6893
15124TIP3    H266864   3.772   1.396   2.666 -0.8394  0.7286 -0.7003
15125TIP3   OH266865   6.387   3.606   1.807 -0.1225 -0.6747 -0.2705
15125TIP3    H166866   6.373   3.660   1.885  1.0329  0.1408 -0.5934
15125TIP3    H266867   6.311   3.548   1.803 -0.9317  0.2895  0.6293
15126TIP3   OH266868   2.314   6.475   2.779  0.3236 -0.4422 -0.1499
15126TIP3    H166869   2.290   6.388   2.809  0.0822  0.3072  2.0007
15126TIP3    H266870   2.386   6.460   2.717  1.1768 -2.1117  1.1383
15127TIP3   OH266871   5.868   1.336   0.437  0.2326 -0.4177 -0.3919
15127TIP3    H166872   5.876   1.338   0.342  5.0845  1.3981 -0.2259
15127TIP3    H266873   5.800   1.401   0.457 -0.7083 -0.6714 -2.5370
15128TIP3   OH266874   5.223   0.626  11.954  0.5420  0.5912 -0.0769
15128TIP3    H166875   5.268   0.580  12.024 -1.0070 -0.5657  0.2112
15128TIP3    H266876   5.220   0.563  11.882 -4.4777 -1.2960  1.3786
15129TIP3   OH266877   2.876   2.890  13.419 -0.5170 -0.2244 -0.4091
15129TIP3    H166878   2.866   2.797  13.398 -0.6501 -0.1992 -0.4583
15129TIP3    H266879   2.906   2.930  13.337  0.8421 -0.4411 -0.0383
15130TIP3   OH266880   1.661   0.411  13.815 -0.8459 -0.6577  0.1126
15130TIP3    H166881   1.677   0.485  13.756 -0.2707 -0.8163  0.0661
15130TIP3    H266882   1.636   0.339  13.758 -0.4070 -0.7778  0.0679
15131TIP3   OH266883   1.911   0.297  15.787 -0.5747 -0.2483  0.8567
15131TIP3    H166884   1.944   0.340  15.865 -0.0111 -0.6638  0.8611
15131TIP3    H266885   1.853   0.361  15.746  0.8854  0.8489  0.4099
15132TIP3   OH266886   3.723   0.963   3.293  0.5184 -0.2882 -0.1161
15132TIP3    H166887   3.790   1.032   3.296  0.7523 -0.5434  0.6819
15132TIP3    H266888   3.650   0.998   3.344  0.2833 -0.2732 -0.4548
15133TIP3   OH266889   0.977   1.273  10.727  0.2498 -0.6846  0.3667
15133TIP3    H166890   0.933   1.229  10.654 -0.2331  2.0022 -1.1079
15133TIP3    H266891   1.064   1.294  10.692 -1.1477  3.8945 -1.0770
15134TIP3   OH266892   0.946   6.722   0.875  0.3650  0.3548  0.0257
15134TIP3    H166893   1.015   6.657   0.864  0.1744  0.1024  0.2877
15134TIP3    H266894   0.875   6.691   0.820  1.1057  1.5830 -1.6902
15135TIP3   OH266895   3.517   6.855   5.118 -0.4483  0.7163  0.1375
15135TIP3    H166896   3.552   6.775   5.157  0.8950  0.8057 -0.8486
15135TIP3    H266897   3.423   6.838   5.112  0.0293 -1.7708 -2.1799
15136TIP3   OH266898   0.642   2.633  13.597 -0.6147  0.6690 -0.3279
15136TIP3    H166899   0.655   2.650  13.690 -0.6990  0.3833 -0.2626
15136TIP3    H266900   0.729   2.638  13.558 -0.2533 -1.2855  0.1102
15137TIP3   OH266901   1.726   6.775  15.758  0.1671 -0.0511 -0.2873
15137TIP3    H166902   1.781   6.828  15.815  0.9967 -1.5943  0.4077
15137TIP3    H266903   1.709   6.831  15.682 -0.1409  1.6802  1.0025
15138TIP3   OH266904   2.694   2.883  11.962  0.2246 -0.0271  0.2796
15138TIP3    H166905   2.604   2.909  11.943  0.1922 -1.0634 -1.1651
15138TIP3    H266906   2.685   2.794  11.998  0.6495  0.0535  0.5907
15139TIP3   OH266907   1.454   1.442  11.204  0.4010  0.1170 -0.2832
15139TIP3    H166908   1.416   1.528  11.222  0.1573 -0.0710  0.0808
15139TIP3    H266909   1.524   1.461  11.140  1.8734  0.9053  1.4764
15140TIP3   OH266910   2.298   2.731   1.660  0.3046  0.5733 -0.1922
15140TIP3    H166911   2.357   2.786   1.712 -1.0969  2.3278 -0.3508
15140TIP3    H266912   2.349   2.704   1.584  1.0886  1.5458 -0.0235
15141TIP3   OH266913   3.229   2.296  16.301  0.4693  0.2802  0.1252
15141TIP3    H166914   3.227   2.285  16.396 -0.6716  0.7999  0.1873
15141TIP3    H266915   3.318   2.274  16.275  0.4016 -1.3771  1.1321
15142TIP3   OH266916   2.588   3.092  10.775 -0.0597 -0.1857 -0.0849
15142TIP3    H166917   2.508   3.141  10.756  0.1438  0.2447  0.1493
15142TIP3    H266918   2.616   3.126  10.860  1.0355  0.5478 -0.7157
15143TIP3   OH266919   5.543   1.278   5.036  1.0435  0.8430 -0.2602
15143TIP3    H166920   5.472   1.215   5.029  1.4843 -0.1008  2.5745
15143TIP3    H266921   5.564   1.301   4.945  0.9118 -3.1103 -1.4645
15144TIP3   OH266922   2.607   6.887  12.587  0.0016  0.2119 -0.5116
15144TIP3    H166923   2.548   6.959  12.609  1.4300  1.9981 -2.1999
15144TIP3    H266924   2.688   6.929  12.560  1.0445 -2.0723 -1.2112
15145TIP3   OH266925   3.019   2.515   5.467  0.0844  0.5840  0.4108
15145TIP3    H166926   3.043   2.450   5.534 -0.6908  2.6898  2.8932
15145TIP3    H266927   2.927   2.498   5.450  0.5837 -0.7941 -1.2377
15146TIP3   OH266928   2.843   1.783   0.311 -0.0266  0.4630  0.6567
15146TIP3    H166929   2.761   1.754   0.351  0.4141 -0.7784  0.7254
15146TIP3    H266930   2.894   1.820   0.383 -0.5354  1.2644  0.6070
15147TIP3   OH266931   5.286   5.701  15.143 -0.0713 -0.6645  0.4521
15147TIP3    H166932   5.277   5.694  15.048 -0.9183  1.6093  0.3055
15147TIP3    H266933   5.202   5.670  15.177 -0.0164 -0.8552  0.4121
15148TIP3   OH266934   5.951   5.700   3.502  0.7980 -0.2853 -0.2530
15148TIP3    H166935   5.916   5.655   3.579 -1.6444  1.9240  0.0387
15148TIP3    H266936   6.008   5.768   3.538 -0.7204  1.0574 -0.3140
15149TIP3   OH266937   5.748   5.279   5.527  0.4426  0.2274 -0.6201
15149TIP3    H166938   5.747   5.362   5.576  1.8998 -0.6747  1.0483
15149TIP3    H266939   5.797   5.300   5.447 -0.8707  1.4248 -1.1503
15150TIP3   OH266940   2.420   4.032  11.851 -0.0401  0.4342  0.1633
15150TIP3    H166941   2.369   3.957  11.822  0.2071  0.1030  0.5794
15150TIP3    H266942   2.367   4.072  11.921  0.8604 -0.6971  1.5428
15151TIP3   OH266943   1.079   5.688   5.823 -0.0286  0.5772  0.3875
15151TIP3    H166944   1.063   5.697   5.917  0.1453  0.2220  0.4539
15151TIP3    H266945   1.114   5.773   5.796  0.7014  0.4194  0.8130
15152TIP3   OH266946   1.240   1.699  10.808  0.1516 -0.1696 -0.4642
15152TIP3    H166947   1.245   1.791  10.836  1.0690 -0.4076  0.2219
15152TIP3    H266948   1.198   1.654  10.882 -0.1001 -0.3431 -0.7094
15153TIP3   OH266949   6.583   3.080  13.092  0.3696  0.2319 -0.4332
15153TIP3    H166950   6.595   3.080  12.998  0.1810  2.3153 -0.5037
15153TIP3    H266951   6.632   3.003  13.123  2.1632  0.6514 -2.0294
15154TIP3   OH266952   5.591   4.274  14.279 -0.4988  0.1259  0.2992
15154TIP3    H166953   5.681   4.303  14.284 -0.3096 -0.3970  0.0447
15154TIP3    H266954   5.549   4.308  14.358 -0.1538  0.6017  0.2805
15155TIP3   OH266955   1.393   3.219  14.107  0.1995  0.3439 -0.0607
15155TIP3    H166956   1.320   3.167  14.076 -0.6348  0.6413  1.3542
15155TIP3    H266957   1.451   3.157  14.150  0.9464  0.0663 -1.4043
15156TIP3   OH266958   0.307   5.682   2.696  0.1683  0.0449  0.0354
15156TIP3    H166959   0.249   5.697   2.622 -0.7848 -0.8879  0.5617
15156TIP3    H266960   0.375   5.624   2.662 -0.7246 -1.0607  0.0695
15157TIP3   OH266961   6.497   5.787   0.598 -0.4897  0.1374  0.2473
15157TIP3    H166962   6.571   5.848   0.595  0.1223 -0.5301  1.1388
15157TIP3    H266963   6.428   5.833   0.645 -1.3372  1.4467 -2.1225
15158TIP3   OH266964   1.481   6.388  12.915  0.9046 -0.1300 -0.0547
15158TIP3    H166965   1.408   6.423  12.865  0.0176 -2.9191 -0.9349
15158TIP3    H266966   1.556   6.395  12.856  0.8421  0.5740 -0.0595
15159TIP3   OH266967   4.114   3.730   1.185 -0.4893  0.3672  0.3244
15159TIP3    H166968   4.157   3.763   1.106 -0.8131  3.2481  1.2004
15159TIP3    H266969   4.181   3.679   1.230  0.1648 -0.0564 -1.0793
15160TIP3   OH266970   5.650   3.982  14.432 -0.5542  0.4285 -0.4814
15160TIP3    H166971   5.556   3.967  14.437 -0.2500 -1.3816  0.5211
15160TIP3    H266972   5.677   3.937  14.352 -0.4486  0.3500 -0.4026
15161TIP3   OH266973   1.993   2.869   2.665  0.3516 -0.3005  0.2486
15161TIP3    H166974   2.069   2.814   2.683  1.6172  0.9044 -1.1638
15161TIP3    H266975   2.002   2.893   2.573 -0.0473  2.3840  0.8357
15162TIP3   OH266976   0.598   0.302  14.995 -0.1852 -0.4909  0.3706
15162TIP3    H166977   0.594   0.315  15.090  2.0476 -1.1981  0.6254
15162TIP3    H266978   0.573   0.210  14.982  1.7175 -1.0798  0.5730
15163TIP3   OH266979   0.873   5.798  12.248 -0.3132  0.0659  0.2866
15163TIP3    H166980   0.962   5.800  12.281  0.7674  2.5387 -2.4233
15163TIP3    H266981   0.834   5.881  12.276 -0.4224  0.7601 -1.8138
15164TIP3   OH266982   4.056   5.765  15.132  0.1467  0.1246  0.8809
15164TIP3    H166983   4.035   5.750  15.224 -1.1364  1.5992  0.8727
15164TIP3    H266984   3.975   5.743  15.085  0.9451 -1.0912  0.0419
15165TIP3   OH266985   2.826   1.437   3.396  0.1879  0.0919 -0.4305
15165TIP3    H166986   2.790   1.512   3.349 -1.8974 -0.7689 -0.3150
15165TIP3    H266987   2.911   1.420   3.354 -0.9665  0.2209 -2.9574
15166TIP3   OH266988   3.097   6.686   5.746  0.5983 -0.2234  0.4969
15166TIP3    H166989   3.048   6.643   5.676  0.5638 -0.1923  0.5014
15166TIP3    H266990   3.095   6.624   5.818  1.0342 -0.4523  0.3139
15167TIP3   OH266991   5.000   0.934   4.408  0.0797  0.1701  0.0875
15167TIP3    H166992   5.016   0.918   4.314  0.1755  0.2068  0.0978
15167TIP3    H266993   4.967   1.023   4.412  2.7253  1.2006  0.3690
15168TIP3   OH266994   1.842   4.451  13.615  0.4794  0.5020  0.2099
15168TIP3    H166995   1.936   4.455  13.600  0.9937 -1.3652  2.4444
15168TIP3    H266996   1.832   4.459  13.710 -1.4040 -1.6897  0.2857
15169TIP3   OH266997   4.963   6.500   3.126  0.3755 -0.5354 -0.0658
15169TIP3    H166998   4.960   6.491   3.031 -2.3297 -0.6080 -0.0321
15169TIP3    H266999   5.027   6.570   3.141 -2.9746  3.5225 -2.3720
15170TIP3   OH267000   3.546   1.196  14.772  0.1191  0.0479 -0.0964
15170TIP3    H167001   3.629   1.192  14.819 -0.1056  1.9608  0.5372
15170TIP3    H267002   3.569   1.230  14.685  0.0894 -0.2254 -0.2140
15171TIP3   OH267003   4.768   5.665   4.710  0.5324  0.3144 -0.0373
15171TIP3    H167004   4.854   5.636   4.741  1.1049  0.7050 -1.1900
15171TIP3    H267005   4.716   5.584   4.702  1.0360 -0.0128 -0.0331
15172TIP3   OH267006   1.632   1.738  15.713  0.1772 -0.6183  0.4910
15172TIP3    H167007   1.697   1.705  15.775 -1.1399 -0.9408  1.7426
15172TIP3    H267008   1.549   1.732  15.759 -0.6217  0.8318 -0.6575
15173TIP3   OH267009   0.966   2.878  11.710  0.6204  0.1161 -0.5316
15173TIP3    H167010   0.944   2.895  11.618  0.0954 -1.6568 -0.7734
15173TIP3    H267011   0.971   2.965  11.750 -0.8602  0.8592 -1.8438
15174TIP3   OH267012   0.120   5.627   3.522  0.1532  0.2217  0.0209
15174TIP3    H167013   0.161   5.714   3.527 -1.2380  1.0747 -1.8905
15174TIP3    H267014   0.194   5.566   3.522  1.1716  1.3889  1.3838
15175TIP3   OH267015   3.757   5.381   0.821 -0.3145  0.6291  0.2084
15175TIP3    H167016   3.732   5.421   0.905 -2.9602 -1.7708  0.7191
15175TIP3    H267017   3.699   5.421   0.757 -2.9466 -2.0124  0.7152
15176TIP3   OH267018   0.091   3.428   3.376 -0.0248  0.4629 -0.4539
15176TIP3    H167019   0.123   3.452   3.463 -1.4875 -2.1973  0.9455
15176TIP3    H267020   0.017   3.485   3.361  0.1904  0.8952  0.0840
15177TIP3   OH267021   4.077   2.515   2.573 -0.0284 -0.4016  0.2854
15177TIP3    H167022   4.045   2.453   2.639  0.8932 -0.4545  0.7020
15177TIP3    H267023   4.168   2.489   2.559  0.5823  1.2416  0.9598
15178TIP3   OH267024   3.799   3.622   3.501  0.0089 -0.2460  0.0675
15178TIP3    H167025   3.876   3.631   3.558  0.9565  0.6352 -1.2834
15178TIP3    H267026   3.770   3.532   3.514  1.4725 -0.7070  0.3721
15179TIP3   OH267027   6.061   3.331  12.895 -0.7928 -0.3521 -0.1355
15179TIP3    H167028   6.071   3.412  12.846 -1.0840 -0.2245  0.0092
15179TIP3    H267029   6.112   3.345  12.975  0.8343 -1.0835 -0.9845
15180TIP3   OH267030   2.829   4.579   6.055  0.3693 -0.4559 -0.0311
15180TIP3    H167031   2.784   4.590   6.139  2.5124  0.2456  1.0848
15180TIP3    H267032   2.863   4.666   6.035  1.1316 -0.9340 -0.8761
15181TIP3   OH267033   0.886   0.130  11.792  0.6255 -0.8417  0.4684
15181TIP3    H167034   0.887   0.206  11.734  0.2765  0.7423  2.4088
15181TIP3    H267035   0.902   0.167  11.879  2.4358 -3.2651  1.2500
15182TIP3   OH267036   2.010   2.618  13.178 -0.2096 -0.2041 -0.3101
15182TIP3    H167037   1.944   2.572  13.127  0.3077 -1.2659 -0.0540
15182TIP3    H267038   2.093   2.577  13.152  0.1747  0.0026  0.5377
15183TIP3   OH267039   2.062   1.546  13.012  0.1893  0.6519 -0.3027
15183TIP3    H167040   2.076   1.472  13.071  0.5655  0.2487 -0.8853
15183TIP3    H267041   1.993   1.516  12.952 -0.0972  1.0099 -0.1572
15184TIP3   OH267042   2.681   2.240   2.915 -0.1386 -0.2285  0.2507
15184TIP3    H167043   2.721   2.315   2.872 -1.9901  0.3874 -0.4712
15184TIP3    H267044   2.699   2.166   2.856 -1.7984  0.4327 -1.1813
15185TIP3   OH267045   0.729   0.345  13.007  0.5818  0.6654  0.4948
15185TIP3    H167046   0.798   0.374  12.947  2.6784 -2.4594  1.1477
15185TIP3    H267047   0.662   0.307  12.950  0.8918  0.9051 -0.0367
15186TIP3   OH267048   4.062   0.738  15.872 -0.6632 -0.4788  0.2624
15186TIP3    H167049   3.970   0.756  15.849 -0.4692  0.9158  0.4901
15186TIP3    H267050   4.069   0.643  15.870 -2.5076 -0.7087  1.6758
15187TIP3   OH267051   1.615   6.585  13.578 -0.3766  0.5230 -0.3073
15187TIP3    H167052   1.610   6.496  13.611  0.4609  0.8014  0.6336
15187TIP3    H267053   1.531   6.600  13.535 -1.9449  0.3991  2.4549
15188TIP3   OH267054   6.819   1.094   5.663  0.1962 -0.2002 -0.1279
15188TIP3    H167055   6.752   1.162   5.666 -0.2415 -0.6328 -0.0775
15188TIP3    H267056   6.864   1.102   5.747 -0.1424 -0.2613  0.0623
15189TIP3   OH267057   3.528   4.838   3.410 -0.4499  0.0861  0.0233
15189TIP3    H167058   3.553   4.908   3.470  1.7197 -0.1497 -0.5275
15189TIP3    H267059   3.514   4.762   3.467  0.1278  0.2319  0.3713
15190TIP3   OH267060   0.779   1.776  16.535 -1.0356 -0.4613  0.0689
15190TIP3    H167061   0.707   1.724  16.570 -0.4817 -1.0307  0.3974
15190TIP3    H267062   0.857   1.723  16.553 -0.3640  0.8140  1.0844
15191TIP3   OH267063   2.460   2.226   2.434 -0.6995 -0.1952  0.2291
15191TIP3    H167064   2.417   2.217   2.519 -5.7756 -1.1147 -2.1064
15191TIP3    H267065   2.445   2.318   2.409  1.7126  0.3759  0.6183
15192TIP3   OH267066   3.838   3.164   3.908 -0.7557 -0.0892 -0.1294
15192TIP3    H167067   3.933   3.158   3.897 -0.8150 -1.7610  0.0510
15192TIP3    H267068   3.826   3.218   3.986  0.0292  0.2915 -0.2596
15193TIP3   OH267069   1.514   2.260   0.090 -0.3955  0.0551 -0.3179
15193TIP3    H167070   1.526   2.218   0.175 -0.4531 -0.2164 -0.4433
15193TIP3    H267071   1.495   2.351   0.111 -1.0527 -0.1482 -0.0126
15194TIP3   OH267072   2.416   2.424  14.046  0.3417  0.0784 -0.4910
15194TIP3    H167073   2.501   2.404  14.006 -0.9518 -2.4115 -2.2728
15194TIP3    H267074   2.399   2.516  14.023  2.3300  0.4993 -0.4364
15195TIP3   OH267075   0.699   2.649  11.501 -0.1888 -0.5386 -0.5977
15195TIP3    H167076   0.755   2.579  11.467 -0.6784 -1.5464  0.5957
15195TIP3    H267077   0.612   2.629  11.468 -0.2653 -0.2646 -0.5680
15196TIP3   OH267078   6.853   5.105  15.643  0.5068  0.4494  0.0211
15196TIP3    H167079   6.852   5.072  15.554  0.5259 -0.9856  0.5226
15196TIP3    H267080   6.834   5.199  15.635  0.5328  0.3448 -1.4710
15197TIP3   OH267081   1.126   0.796   2.828 -0.3885 -0.2142  0.2383
15197TIP3    H167082   1.169   0.860   2.885  0.6273 -1.2251  0.6370
15197TIP3    H267083   1.147   0.825   2.739  0.5085 -0.2845  0.4228
15198TIP3   OH267084   6.715   3.092   3.454 -0.0906  0.4502 -0.3498
15198TIP3    H167085   6.669   3.036   3.516  1.5294  0.0704  0.5730
15198TIP3    H267086   6.766   3.032   3.400  0.5677  0.9317 -0.2812
15199TIP3   OH267087   1.831   3.048   4.080 -0.2359  0.7505  0.3779
15199TIP3    H167088   1.810   2.957   4.064 -1.2033  0.5685  2.4151
15199TIP3    H267089   1.872   3.078   3.998 -0.1443 -1.3961 -0.4205
15200TIP3   OH267090   3.533   2.675  14.019  0.3467 -0.4394  0.2835
15200TIP3    H167091   3.576   2.671  14.105 -0.0855 -1.1106  0.4759
15200TIP3    H267092   3.523   2.768  14.002  0.7166 -0.2905  0.8216
15201TIP3   OH267093   5.438   1.843   3.312 -0.0840  0.1722 -0.3915
15201TIP3    H167094   5.458   1.782   3.383 -0.4128  1.0173  0.4298
15201TIP3    H267095   5.346   1.865   3.323  0.4060  2.0282  0.2740
15202TIP3   OH267096   1.733   3.445  16.103  0.1524 -0.2364  0.2218
15202TIP3    H167097   1.763   3.507  16.168  1.7067  0.7999 -1.3856
15202TIP3    H267098   1.647   3.477  16.076 -0.4726 -0.6411  1.6542
15203TIP3   OH267099   5.288   1.079   2.247 -0.0822 -0.6269 -0.5085
15203TIP3    H167100   5.246   1.137   2.184  0.8921 -0.3010 -0.8854
15203TIP3    H267101   5.307   0.999   2.197 -2.6796 -1.9054  0.3535
15204TIP3   OH267102   2.023   3.290  16.208  0.1925  0.4151 -0.2311
15204TIP3    H167103   2.089   3.298  16.277 -0.1593  1.3666  0.0169
15204TIP3    H267104   1.961   3.226  16.240  1.5089 -1.2612 -0.9021
15205TIP3   OH267105   4.203   4.967   3.168 -0.0396  0.1137 -0.2067
15205TIP3    H167106   4.186   4.914   3.246 -0.1549 -0.2430 -0.4709
15205TIP3    H267107   4.140   4.935   3.104 -0.8031  1.2494 -0.0675
15206TIP3   OH267108   1.690   3.907   0.663  0.0109  0.2517  0.3773
15206TIP3    H167109   1.768   3.857   0.688  0.5131  0.9297  0.1906
15206TIP3    H267110   1.708   3.937   0.574 -0.3901  0.5659  0.3971
15207TIP3   OH267111   1.191   5.584   3.341 -0.6304 -0.1846  0.1291
15207TIP3    H167112   1.157   5.588   3.431  0.3326  1.3515  0.4567
15207TIP3    H267113   1.149   5.658   3.297  0.7025  0.5155 -0.0108
15208TIP3   OH267114   6.435   4.669  11.727  0.3678  0.3309 -0.2271
15208TIP3    H167115   6.473   4.695  11.643  3.5510 -0.0221  0.9991
15208TIP3    H267116   6.507   4.674  11.789 -1.3897 -1.3880  2.1237
15209TIP3   OH267117   6.795   0.723   4.708 -0.9329  1.5979  0.3105
15209TIP3    H167118   6.889   0.729   4.694 -1.0749 -0.1391 -1.8676
15209TIP3    H267119   6.759   0.701   4.622 -3.3184  2.0593  1.1210
15210TIP3   OH267120   1.870   2.289  11.411 -0.2568  0.2432 -0.0110
15210TIP3    H167121   1.882   2.384  11.413 -0.4505  0.2631  0.2794
15210TIP3    H267122   1.886   2.265  11.320 -1.6391  0.7538 -0.4122
15211TIP3   OH267123   5.002   2.162   6.506  0.1153  0.2808  0.0301
15211TIP3    H167124   4.994   2.258   6.503  0.8245  0.3998  1.2620
15211TIP3    H267125   5.095   2.147   6.519 -0.0882 -0.5619  0.5337
15212TIP3   OH267126   1.620   0.058   5.083  1.0367 -0.2663  0.0910
15212TIP3    H167127   1.606  -0.025   5.037 -0.4785  0.1164 -0.2175
15212TIP3    H267128   1.660   0.116   5.018 -3.0204  0.9641 -1.7115
15213TIP3   OH267129   5.382   4.724   4.603 -0.5246 -0.5067  0.1513
15213TIP3    H167130   5.294   4.757   4.589 -0.1297  0.7472  0.5355
15213TIP3    H267131   5.371   4.629   4.614 -1.6746 -0.5295 -0.9875
15214TIP3   OH267132   2.236   5.538   5.143 -0.7178  0.4321 -0.5543
15214TIP3    H167133   2.174   5.467   5.157 -0.6228  0.2149 -1.1923
15214TIP3    H267134   2.271   5.522   5.055 -0.1748  0.8677 -0.4207
15215TIP3   OH267135   0.706   3.912   4.497 -0.0183 -0.2211 -0.1302
15215TIP3    H167136   0.796   3.879   4.498  1.1794  2.7655  1.0104
15215TIP3    H267137   0.687   3.932   4.588 -1.0342  1.1422 -0.6105
15216TIP3   OH267138   1.418   6.264   2.371  0.1217 -1.0040  0.1983
15216TIP3    H167139   1.414   6.344   2.423  0.3584 -1.4403  0.9085
15216TIP3    H267140   1.420   6.294   2.280 -0.8246 -0.2441  0.4183
15217TIP3   OH267141   6.219   4.039  15.457  0.4232 -0.0858  0.1276
15217TIP3    H167142   6.251   4.117  15.501  0.4193 -0.3888  0.6684
15217TIP3    H267143   6.150   4.072  15.398 -2.8236 -0.0907  3.5189
15218TIP3   OH267144   5.231   4.479  12.491 -0.0715 -0.2343 -0.5338
15218TIP3    H167145   5.233   4.543  12.561  0.2772  0.4970 -1.1981
15218TIP3    H267146   5.175   4.518  12.424  1.0797 -0.0822 -1.4363
15219TIP3   OH267147   4.607   3.086   1.125 -0.1757 -0.1683  0.0376
15219TIP3    H167148   4.678   3.150   1.127 -0.9667  0.7164  0.9554
15219TIP3    H267149   4.590   3.067   1.217 -1.5155  0.0946 -0.1381
15220TIP3   OH267150   2.078   5.055  12.769 -0.2359  0.7767  0.7518
15220TIP3    H167151   2.148   4.991  12.764  0.0745  1.1772 -0.2810
15220TIP3    H267152   1.998   5.004  12.763 -0.0065  0.5674 -2.4995
15221TIP3   OH267153   3.992   0.948  12.328  0.0460  0.1586 -0.8330
15221TIP3    H167154   3.932   0.891  12.279  1.6050 -2.7516  0.3732
15221TIP3    H267155   3.942   0.978  12.403 -0.6062 -0.1635 -1.1314
15222TIP3   OH267156   2.352   1.090   0.140 -0.2695  0.1168 -0.5176
15222TIP3    H167157   2.390   1.118   0.224  0.7247 -2.8204  0.1724
15222TIP3    H267158   2.311   1.005   0.160 -0.3442 -0.4798 -2.9138
15223TIP3   OH267159   6.477   3.871  16.828 -0.2817 -0.2624  0.1793
15223TIP3    H167160   6.471   3.784  16.788 -1.0907 -0.8028  1.4512
15223TIP3    H267161   6.402   3.919  16.794  0.6197  0.2593 -1.1860
15224TIP3   OH267162   0.946   1.630   1.493  0.1080 -0.6894  0.2280
15224TIP3    H167163   1.022   1.687   1.483 -0.6181  0.3850  0.6420
15224TIP3    H267164   0.983   1.545   1.516  1.1462  0.0872  1.5934
15225TIP3   OH267165   3.675   4.414  14.381  0.2412  0.2400  0.5781
15225TIP3    H167166   3.590   4.410  14.427  0.4903 -0.6796  0.9957
15225TIP3    H267167   3.655   4.385  14.292 -0.3307  2.4799 -0.0656
15226TIP3   OH267168   3.257   5.905   1.134 -0.3314 -0.1637 -0.8978
15226TIP3    H167169   3.184   5.966   1.127 -0.9335 -0.7342  0.0847
15226TIP3    H267170   3.329   5.957   1.168 -1.0423 -0.1086  0.6358
15227TIP3   OH267171   1.535   5.384   5.449  0.3200 -0.4611 -0.2214
15227TIP3    H167172   1.469   5.362   5.383 -0.8185 -0.1638  0.7777
15227TIP3    H267173   1.485   5.397   5.530  1.6758 -0.8243  0.7116
15228TIP3   OH267174   0.050   3.649  12.960 -0.1011  0.1989 -0.2278
15228TIP3    H167175  -0.010   3.659  13.034 -1.6038  2.2440 -1.6060
15228TIP3    H267176   0.013   3.705  12.891  0.6295 -2.3256 -2.9130
15229TIP3   OH267177   0.172   0.915   3.101 -0.0424  0.8841 -0.2375
15229TIP3    H167178   0.260   0.901   3.137 -0.1725  1.1364  0.1981
15229TIP3    H267179   0.122   0.839   3.130  0.0212  0.7579 -0.4556
15230TIP3   OH267180   4.815   5.836   1.845 -0.1472  0.0757  0.1526
15230TIP3    H167181   4.856   5.889   1.914  1.2009 -0.3467 -0.2893
15230TIP3    H267182   4.733   5.805   1.884 -0.0232  0.8807  1.1018
15231TIP3   OH267183   0.374   2.150  13.580 -0.1491 -0.0690 -0.3550
15231TIP3    H167184   0.422   2.107  13.650  0.6938  1.1974 -0.1240
15231TIP3    H267185   0.420   2.233  13.566 -0.7977  0.0871 -1.8268
15232TIP3   OH267186   1.606   5.758  13.184  0.2244  0.6726  0.7078
15232TIP3    H167187   1.607   5.664  13.205 -0.4711  0.6697  0.7723
15232TIP3    H267188   1.681   5.771  13.126 -1.2389 -0.4973 -1.6425
15233TIP3   OH267189   0.177   4.198  16.388  0.4540 -0.0134  0.1995
15233TIP3    H167190   0.130   4.114  16.384  0.6871 -0.1598  0.4910
15233TIP3    H267191   0.114   4.262  16.355  0.3780 -0.3450 -0.3227
15234TIP3   OH267192   4.599   5.025   0.003 -0.0096  0.2306  0.4302
15234TIP3    H167193   4.543   5.049   0.077  0.2320  0.6679  0.4734
15234TIP3    H267194   4.564   4.941  -0.027  0.7660 -0.6783  1.9350
15235TIP3   OH267195   3.172   1.531   4.616  0.5138 -0.4979  0.1218
15235TIP3    H167196   3.174   1.621   4.584  0.8323  0.1516  1.8816
15235TIP3    H267197   3.089   1.523   4.662  0.7869 -0.8907  0.5566
15236TIP3   OH267198   3.881   0.149  14.907 -0.1778 -0.5044  0.0216
15236TIP3    H167199   3.913   0.102  14.829 -1.2434  0.3736 -0.9775
15236TIP3    H267200   3.880   0.241  14.881  0.2022 -0.0958  1.3625
15237TIP3   OH267201   3.962   1.879  10.452 -0.1639  0.2181  0.1443
15237TIP3    H167202   3.982   1.925  10.534  1.2908  0.0949 -0.1150
15237TIP3    H267203   3.976   1.786  10.473 -1.7022 -0.0144  0.2712
15238TIP3   OH267204   2.853   0.327  15.587 -0.0981  0.5964  0.5804
15238TIP3    H167205   2.885   0.412  15.618 -1.6334  1.6993 -0.6851
15238TIP3    H267206   2.858   0.333  15.492  0.7325 -1.1564  0.4882
15239TIP3   OH267207   3.353   2.843  11.220  0.1250 -0.3743 -0.8663
15239TIP3    H167208   3.422   2.842  11.286  0.7286  1.6332 -1.3744
15239TIP3    H267209   3.399   2.828  11.137 -0.6713 -3.2723 -0.8891
15240TIP3   OH267210   3.578   5.595   2.984  0.2331  0.2186 -0.3194
15240TIP3    H167211   3.483   5.590   2.974  0.1855  1.9432 -1.2434
15240TIP3    H267212   3.591   5.668   3.045  0.9588  0.9990 -1.3617
15241TIP3   OH267213   5.368   3.874  11.054  0.7320 -0.2610 -0.5304
15241TIP3    H167214   5.332   3.946  11.002 -0.9685  0.2821  1.2333
15241TIP3    H267215   5.390   3.806  10.991  0.4377  1.0316 -2.0720
15242TIP3   OH267216   6.048   0.251   4.392 -0.0738 -0.4653  0.0746
15242TIP3    H167217   5.972   0.196   4.411 -0.3126  0.2321  1.2599
15242TIP3    H267218   6.084   0.273   4.478 -0.1851  1.4818 -0.3360
15243TIP3   OH267219   0.885   6.748  15.981 -0.1761 -0.2459 -0.1725
15243TIP3    H167220   0.909   6.802  16.057  0.7315  0.4610 -0.9339
15243TIP3    H267221   0.930   6.665  15.996 -0.4804 -0.3220  0.3472
15244TIP3   OH267222   1.575   3.094   1.436 -0.5614  0.3726  0.4062
15244TIP3    H167223   1.645   3.029   1.437 -0.0925  0.7728 -1.8323
15244TIP3    H267224   1.502   3.052   1.481  0.3174 -0.9933  0.6110
15245TIP3   OH267225   5.258   1.590  10.985  0.8451 -0.4943 -0.5106
15245TIP3    H167226   5.219   1.654  11.044  0.6477 -0.1881 -0.9691
15245TIP3    H267227   5.239   1.623  10.897  1.8181 -0.5297 -0.7514
15246TIP3   OH267228   0.194   4.486   3.357  0.0324 -0.4206  0.6820
15246TIP3    H167229   0.176   4.537   3.278 -2.1076 -1.0108  0.7416
15246TIP3    H267230   0.186   4.549   3.429  3.3385  0.4440  0.4565
15247TIP3   OH267231   1.459   4.655  12.313 -0.1196  0.3738 -0.3607
15247TIP3    H167232   1.427   4.573  12.352  0.6936 -0.5736 -1.6033
15247TIP3    H267233   1.525   4.686  12.375 -2.9027  2.1022  1.9924
15248TIP3   OH267234   1.706   4.649  16.100  0.0849 -0.0152  0.0677
15248TIP3    H167235   1.644   4.722  16.104  2.2711  1.9679 -0.1260
15248TIP3    H267236   1.652   4.574  16.078 -2.4451  1.3057  1.2723
15249TIP3   OH267237   3.127   3.762  16.043  0.1194  0.2644  0.4625
15249TIP3    H167238   3.215   3.764  16.005  0.3273  0.5235  0.9469
15249TIP3    H267239   3.135   3.814  16.124 -0.6520  0.9391  0.1224
15250TIP3   OH267240   5.976   1.419   5.234 -0.3940 -0.5470  0.0143
15250TIP3    H167241   5.891   1.377   5.222  0.0549 -1.0430 -1.7348
15250TIP3    H267242   6.039   1.355   5.202  0.5335  0.3530 -0.0024
15251TIP3   OH267243   3.473   1.724  10.996 -0.6286 -0.0989 -0.0539
15251TIP3    H167244   3.405   1.784  11.026 -2.7922 -0.8675 -2.9752
15251TIP3    H267245   3.445   1.638  11.027 -1.4832 -0.5178 -1.8374
15252TIP3   OH267246   1.225   0.531  15.267  0.1810  0.0547 -0.1524
15252TIP3    H167247   1.168   0.605  15.285  0.3398 -0.0756  0.9150
15252TIP3    H267248   1.311   0.570  15.248 -0.0650  0.2072 -0.9763
15253TIP3   OH267249   3.314   0.868   2.423 -0.2379  0.1910  0.5113
15253TIP3    H167250   3.324   0.780   2.459  1.0047  0.8926  2.0336
15253TIP3    H267251   3.356   0.865   2.338 -1.0168 -0.8958  0.1490
15254TIP3   OH267252   1.996   5.238  12.079  0.3647  0.4450 -0.0118
15254TIP3    H167253   1.980   5.176  12.007 -0.1418  0.7407 -0.1570
15254TIP3    H267254   1.917   5.291  12.083  0.9803  1.4031 -0.1995
15255TIP3   OH267255   6.531   4.386  13.665 -0.6453 -0.2235 -0.3900
15255TIP3    H167256   6.584   4.465  13.659 -0.1903 -0.6243 -2.3862
15255TIP3    H267257   6.554   4.347  13.750 -0.3757  1.3932  0.3121
15256TIP3   OH267258   3.522   2.170   3.034 -0.2032 -0.1743 -0.5090
15256TIP3    H167259   3.575   2.172   2.955  2.9113 -0.6631  1.4014
15256TIP3    H267260   3.550   2.091   3.080 -1.5071  0.3694  1.3555
15257TIP3   OH267261   4.299   1.665   6.267  0.3731  0.2007  0.0023
15257TIP3    H167262   4.284   1.606   6.341  0.3655  2.1849  1.6729
15257TIP3    H267263   4.389   1.696   6.278  0.7495 -0.2934 -1.4754
15258TIP3   OH267264   6.178   0.944   1.405 -0.7382 -0.6076 -0.1767
15258TIP3    H167265   6.223   1.010   1.352 -0.9087 -0.4533 -0.1311
15258TIP3    H267266   6.115   0.994   1.457  0.0332 -0.6505  0.8371
15259TIP3   OH267267   3.126   3.169   6.348  0.5368  0.1483 -0.6717
15259TIP3    H167268   3.178   3.136   6.275  0.0703  0.4137 -1.1313
15259TIP3    H267269   3.039   3.185   6.311  0.1364 -0.2479  0.0790
15260TIP3   OH267270   2.758   3.085   5.877 -0.3093 -0.2754  0.4414
15260TIP3    H167271   2.784   2.998   5.906 -0.7244 -0.3137  0.7095
15260TIP3    H267272   2.738   3.132   5.958  2.1408  0.8171  0.4892
15261TIP3   OH267273   2.275   0.390   1.527 -0.2171  0.3928  0.2088
15261TIP3    H167274   2.191   0.346   1.512  0.3127 -0.4660 -0.3173
15261TIP3    H267275   2.251   0.478   1.556 -1.3066  0.5229 -0.9968
15262TIP3   OH267276   1.169   1.537   0.120  0.1493  0.2104 -0.4052
15262TIP3    H167277   1.164   1.563   0.029 -0.1182  2.2515  0.1439
15262TIP3    H267278   1.259   1.505   0.131 -0.0226 -0.6995 -1.5131
15263TIP3   OH267279   3.275   4.529   3.974 -0.8839 -0.3056  0.1698
15263TIP3    H167280   3.268   4.619   4.007  0.4090 -1.0787  2.8001
15263TIP3    H267281   3.342   4.534   3.906 -1.6705  0.8900 -0.5516
15264TIP3   OH267282   2.020   1.026  11.603  0.3131 -0.0083 -0.1368
15264TIP3    H167283   2.018   1.070  11.518 -0.7573 -0.1885 -0.2148
15264TIP3    H267284   2.012   1.098  11.667  0.1539  0.0435 -0.2153
15265TIP3   OH267285   5.786   4.405  11.364  0.1790 -0.4288  0.2302
15265TIP3    H167286   5.723   4.434  11.430  2.6156 -0.5182  2.8184
15265TIP3    H267287   5.811   4.485  11.318 -1.6101 -0.3753 -0.7506
15266TIP3   OH267288   3.568   2.559   0.538  0.3092  0.1045  0.6825
15266TIP3    H167289   3.497   2.580   0.599  2.3134  2.1960  2.4779
15266TIP3    H267290   3.625   2.500   0.588  0.1781 -1.1218 -0.5488
15267TIP3   OH267291   1.741   6.806  12.618  0.3106 -0.1885 -0.2204
15267TIP3    H167292   1.770   6.896  12.630 -1.2291  0.2246  0.6873
15267TIP3    H267293   1.771   6.760  12.696 -1.1516  0.1813  0.5979
15268TIP3   OH267294   5.432   1.684  11.577  0.1868 -0.3705  0.5828
15268TIP3    H167295   5.369   1.703  11.647 -0.9277  1.7276 -0.8895
15268TIP3    H267296   5.378   1.664  11.501  1.3883 -2.6152  0.2482
15269TIP3   OH267297   0.168   0.877  16.107 -0.8169 -0.2303  0.1861
15269TIP3    H167298   0.121   0.796  16.128 -1.9446 -1.0519 -4.4623
15269TIP3    H267299   0.252   0.848  16.073 -0.7895  0.5905 -0.4700
15270TIP3   OH267300   5.859   0.112  16.563 -0.4742  0.1215  0.1673
15270TIP3    H167301   5.882   0.065  16.643 -1.4532 -0.4787  0.1139
15270TIP3    H267302   5.943   0.127  16.519 -0.1733 -2.1010 -0.1021
15271TIP3   OH267303   0.919   0.534   5.771  0.2625 -0.0477  0.7943
15271TIP3    H167304   0.874   0.613   5.800 -1.1657 -0.7809  0.6806
15271TIP3    H267305   0.918   0.477   5.848  0.2050 -0.3959  0.5395
15272TIP3   OH267306   0.263   6.077  14.275  0.4651  0.2510  0.0486
15272TIP3    H167307   0.203   6.150  14.285 -0.4322 -0.2945 -1.0517
15272TIP3    H267308   0.283   6.075  14.181 -0.6278 -1.7023 -0.2019
15273TIP3   OH267309   4.578   2.388  12.080  0.2911  0.6537 -0.1525
15273TIP3    H167310   4.592   2.359  11.990  1.0976 -0.4727  0.3155
15273TIP3    H267311   4.647   2.344  12.130 -1.3536 -0.3193  1.3323
15274TIP3   OH267312   1.549   6.700   5.006  0.8980 -0.0542 -0.2800
15274TIP3    H167313   1.538   6.654   5.089  0.6646  1.4827  0.5655
15274TIP3    H267314   1.464   6.693   4.963  1.3124 -1.7579 -0.9097
15275TIP3   OH267315   2.375   1.606   2.405  0.3433 -0.0753 -0.6211
15275TIP3    H167316   2.375   1.587   2.499 -1.6635  1.5667 -0.2154
15275TIP3    H267317   2.334   1.529   2.366 -0.1623 -0.1555  0.0380
15276TIP3   OH267318   2.823   3.640  15.821 -0.1900  0.2236  0.1179
15276TIP3    H167319   2.860   3.727  15.836  0.0038 -0.2405  2.8566
15276TIP3    H267320   2.857   3.613  15.735  0.1138  2.6190 -0.5738
15277TIP3   OH267321   0.300   4.882   5.247 -0.2973 -0.5758  0.3264
15277TIP3    H167322   0.263   4.813   5.192 -0.5390 -0.5830  0.4994
15277TIP3    H267323   0.386   4.899   5.209 -2.0901  2.6093 -2.9109
15278TIP3   OH267324   5.949   2.806   0.119 -0.1531 -0.1652  0.1615
15278TIP3    H167325   5.901   2.749   0.059 -0.3625 -1.8755  1.8493
15278TIP3    H267326   5.882   2.865   0.155  0.1703  1.6614 -2.0466
15279TIP3   OH267327   4.488   1.612   2.200 -0.1535 -0.2571 -0.4095
15279TIP3    H167328   4.437   1.582   2.276  1.1941 -0.5115  0.4283
15279TIP3    H267329   4.483   1.708   2.204 -1.2982 -0.2766 -0.8771
15280TIP3   OH267330   1.793   5.987   3.565 -0.1134  0.1242  0.3562
15280TIP3    H167331   1.752   6.016   3.484  0.4913  2.4109  0.7917
15280TIP3    H267332   1.723   5.945   3.614 -1.3579  1.7688  0.0526
15281TIP3   OH267333   1.096   5.735  11.295  0.2371  0.8212  0.7201
15281TIP3    H167334   1.088   5.697  11.382  1.6636 -0.0225  0.5293
15281TIP3    H267335   1.081   5.661  11.236  0.7331  1.0602  0.2875
15282TIP3   OH267336   0.601   4.200   4.785 -0.3609  0.1991  0.1153
15282TIP3    H167337   0.642   4.114   4.776 -0.2933  0.1727  0.6254
15282TIP3    H267338   0.627   4.248   4.706  3.9310  1.5267  1.9862
15283TIP3   OH267339   4.539   3.561  10.745 -0.4284 -0.0024 -0.3708
15283TIP3    H167340   4.445   3.544  10.753 -0.3969  0.4406  1.1632
15283TIP3    H267341   4.576   3.478  10.717 -1.3507  0.0270 -1.8027
15284TIP3   OH267342   3.610   3.931   1.616  0.0590  0.3779  0.7131
15284TIP3    H167343   3.673   3.947   1.686  0.7742  2.4170 -0.3227
15284TIP3    H267344   3.538   3.991   1.634 -0.2842  0.0828  0.3347
15285TIP3   OH267345   3.840   1.747  15.872  0.0754  0.2519  0.1874
15285TIP3    H167346   3.926   1.759  15.912  0.0015 -4.6560  2.6072
15285TIP3    H267347   3.805   1.835  15.862  4.8450  2.4219  0.0742
15286TIP3   OH267348   5.086   6.302  16.069 -0.5326 -0.1390  0.4712
15286TIP3    H167349   5.012   6.271  16.121  0.1287 -0.3581  1.3031
15286TIP3    H267350   5.059   6.389  16.038 -1.6521 -0.7575 -0.3419
15287TIP3   OH267351   4.017   5.465   4.701  0.1153  0.0390  0.3375
15287TIP3    H167352   4.086   5.531   4.692 -1.6861  2.2953  1.8685
15287TIP3    H267353   4.048   5.408   4.772  1.0601  0.0624 -0.0333
15288TIP3   OH267354   0.183   4.296   2.009  0.3930  0.5646  0.0722
15288TIP3    H167355   0.140   4.300   2.095 -1.1121 -0.3174 -0.5939
15288TIP3    H267356   0.236   4.216   2.012 -0.2325  0.1376 -0.0542
15289TIP3   OH267357   5.497   0.566  14.411 -0.4488 -0.2118  0.1469
15289TIP3    H167358   5.591   0.581  14.424 -0.9957  1.7905  2.4376
15289TIP3    H267359   5.469   0.519  14.490 -1.3844 -0.9029 -0.5699
15290TIP3   OH267360   6.024   0.439   4.902 -0.5752 -0.0926 -0.1563
15290TIP3    H167361   6.112   0.473   4.886 -0.6143  0.3789  0.5854
15290TIP3    H267362   5.988   0.496   4.969 -2.3811  1.2848 -2.1739
15291TIP3   OH267363   2.398   6.491   4.293 -0.0068 -0.1980  0.1623
15291TIP3    H167364   2.321   6.435   4.294  0.3457 -0.8710 -2.5178
15291TIP3    H267365   2.367   6.575   4.260 -0.2016  0.7313  2.5292
15292TIP3   OH267366   0.708   3.403   0.396 -0.4308  0.1305  0.7866
15292TIP3    H167367   0.674   3.340   0.459 -0.2291 -1.2291 -0.4119
15292TIP3    H267368   0.679   3.370   0.311  0.1660  1.3548  0.0777
15293TIP3   OH267369   5.724   5.547   0.713  0.0780 -0.7496  0.4433
15293TIP3    H167370   5.679   5.512   0.789 -0.9169 -0.7603 -0.1308
15293TIP3    H267371   5.753   5.634   0.740 -0.6463 -0.5814  0.6965
15294TIP3   OH267372   4.621   1.553  15.775  0.4065  0.2727  0.1962
15294TIP3    H167373   4.683   1.595  15.716  0.7857 -0.2239  0.2325
15294TIP3    H267374   4.671   1.537  15.855  0.4211 -0.7044  0.0032
15295TIP3   OH267375   1.580   3.187   0.400  0.0412 -0.4537 -0.1370
15295TIP3    H167376   1.540   3.196   0.313 -1.1183  0.3695  0.4528
15295TIP3    H267377   1.531   3.117   0.442  0.2333 -0.4785  0.0443
15296TIP3   OH267378   5.353   0.981  14.728  0.0529 -0.1634  0.5161
15296TIP3    H167379   5.424   1.025  14.774 -1.3882  1.3452  1.4128
15296TIP3    H267380   5.381   0.979  14.636  0.5347  1.9338  0.5781
15297TIP3   OH267381   3.589   4.958  12.570 -0.3877 -0.0478 -0.2734
15297TIP3    H167382   3.674   4.960  12.614 -0.8508 -1.9270  0.7883
15297TIP3    H267383   3.526   4.952  12.641 -1.4185  0.8651 -1.0743
15298TIP3   OH267384   1.137   5.316  15.078  0.2833  0.0065 -0.2184
15298TIP3    H167385   1.159   5.387  15.018  0.8827 -0.1773 -0.2246
15298TIP3    H267386   1.123   5.240  15.022  1.8148 -0.4092 -0.0935
15299TIP3   OH267387   2.341   2.709  16.954 -0.1292 -0.1238  0.4575
15299TIP3    H167388   2.294   2.762  16.890 -0.0860  0.5155  0.9555
15299TIP3    H267389   2.300   2.622  16.947  0.5455 -0.3579 -1.1601
15300TIP3   OH267390   5.375   2.072  14.350  0.1086  0.3785  0.0697
15300TIP3    H167391   5.372   2.165  14.372 -0.1959  0.0457  1.5596
15300TIP3    H267392   5.441   2.036  14.409  0.5948 -0.2791 -0.8513
15301TIP3   OH267393   2.253   3.581   2.532  0.4784 -0.3064  0.5291
15301TIP3    H167394   2.306   3.578   2.452  2.1493 -0.2296  1.5993
15301TIP3    H267395   2.247   3.490   2.560  1.2895 -0.1678  1.1841
15302TIP3   OH267396   3.761   5.426   1.612 -0.0549 -0.1983 -0.2935
15302TIP3    H167397   3.684   5.402   1.664  0.5068 -0.3147  0.5003
15302TIP3    H267398   3.730   5.496   1.555 -0.7075 -0.1015  0.1642
15303TIP3   OH267399   0.378   3.949   2.372 -0.1912  0.7177  0.0273
15303TIP3    H167400   0.458   3.904   2.399  0.2314  1.8806  0.8079
15303TIP3    H267401   0.320   3.942   2.448 -0.6332  0.3531 -0.3356
15304TIP3   OH267402   1.464   5.338   0.616  0.1497  0.1414  0.1903
15304TIP3    H167403   1.375   5.354   0.584  0.4919  0.7782 -0.4794
15304TIP3    H267404   1.507   5.292   0.545  0.6213  0.6450  0.1472
15305TIP3   OH267405   5.616   3.683  11.922 -0.1756 -0.2746 -0.7164
15305TIP3    H167406   5.521   3.677  11.910 -0.1506  0.8744 -1.5896
15305TIP3    H267407   5.638   3.604  11.971 -1.7813  0.1251  0.7598
15306TIP3   OH267408   4.991   4.253   0.047  0.4624  0.3694  0.2492
15306TIP3    H167409   5.029   4.208   0.122  0.5760 -0.8351 -0.5114
15306TIP3    H267410   5.060   4.252  -0.019 -0.5509 -1.0383 -0.8312
15307TIP3   OH267411   2.778   2.563  15.650  0.6460 -0.3317 -0.3877
15307TIP3    H167412   2.822   2.487  15.612  1.9003 -0.2821  0.8713
15307TIP3    H267413   2.779   2.545  15.744 -2.0341 -0.2936 -0.2897
15308TIP3   OH267414   3.118   2.308  12.965  0.1110  0.1627  0.1071
15308TIP3    H167415   3.153   2.262  13.041  0.1862  1.0551  0.6370
15308TIP3    H267416   3.041   2.257  12.939  0.3021 -0.3583  0.5487
15309TIP3   OH267417   0.077   0.620  16.950  0.6080 -0.5563 -0.1672
15309TIP3    H167418   0.164   0.609  16.989  0.6442 -0.3565 -0.1870
15309TIP3    H267419   0.024   0.656  17.021  0.5989 -0.4691 -0.2174
15310TIP3   OH267420   5.508   0.039   0.150  0.7689 -0.1246  0.1527
15310TIP3    H167421   5.502   0.087   0.232 -1.7074 -0.7560  0.4359
15310TIP3    H267422   5.578  -0.025   0.164  0.4496 -0.1524  1.7495
15311TIP3   OH267423   2.807   2.022   6.493 -0.0263 -0.1560 -0.2309
15311TIP3    H167424   2.874   2.087   6.470 -0.7551  0.8031  0.3295
15311TIP3    H267425   2.799   2.027   6.588  0.2817 -1.4556 -0.1163
15312TIP3   OH267426   4.129   5.073  15.981 -0.3187 -0.7247  0.4031
15312TIP3    H167427   4.050   5.029  15.949 -1.2793  0.3940  1.1447
15312TIP3    H267428   4.100   5.121  16.058  0.9787  0.1591  0.3672
15313TIP3   OH267429   1.299   2.137  13.574  0.0491  0.1553 -0.1006
15313TIP3    H167430   1.332   2.172  13.657  0.2699 -1.7105  0.6394
15313TIP3    H267431   1.215   2.098  13.597 -0.6863  1.1027 -1.1166
15314TIP3   OH267432   5.875   3.667  14.064 -0.1234 -0.2541 -0.3939
15314TIP3    H167433   5.903   3.579  14.088 -0.9430 -0.6886 -0.9539
15314TIP3    H267434   5.794   3.653  14.015 -0.7215  0.8662  0.2278
15315TIP3   OH267435   6.768   6.378   1.104  0.2242  0.0035 -0.5827
15315TIP3    H167436   6.734   6.353   1.190  2.2977 -0.4018  0.1916
15315TIP3    H267437   6.863   6.364   1.111  0.3476 -1.3108 -3.3644
15316TIP3   OH267438   5.563   3.180   5.550  0.0134 -0.7989  0.2266
15316TIP3    H167439   5.481   3.175   5.599 -0.8332  0.0239 -1.0569
15316TIP3    H267440   5.553   3.114   5.481 -0.7833  1.0995 -1.6039
15317TIP3   OH267441   5.167   4.488   5.012  0.0418  0.5120 -0.1162
15317TIP3    H167442   5.256   4.515   4.990 -0.2053  2.0658  0.6075
15317TIP3    H267443   5.123   4.570   5.037 -1.1154 -0.4520  1.1767
15318TIP3   OH267444   6.434   3.056   1.532 -0.8247 -0.3254  0.3490
15318TIP3    H167445   6.378   3.030   1.459 -2.5393  0.2048  1.4297
15318TIP3    H267446   6.424   3.151   1.539  0.2775 -0.2039  0.5237
15319TIP3   OH267447   5.270   2.938  10.373 -0.0922  0.4733 -0.6309
15319TIP3    H167448   5.364   2.924  10.384 -0.5387 -1.9180  0.8092
15319TIP3    H267449   5.237   2.856  10.336 -2.0382 -0.1549  2.1448
15320TIP3   OH267450   0.235   3.039   4.340 -0.0732  0.2711 -0.2394
15320TIP3    H167451   0.150   3.025   4.382 -0.0616 -0.3902 -0.4312
15320TIP3    H267452   0.214   3.072   4.253 -0.1941 -1.3801 -0.8672
15321TIP3   OH267453   5.585   3.433  16.496 -0.2409 -0.5443 -0.1809
15321TIP3    H167454   5.647   3.453  16.426 -0.1965  0.7261  0.2009
15321TIP3    H267455   5.520   3.504  16.492  0.2920  0.0991  1.6505
15322TIP3   OH267456   4.437   5.828  14.677 -0.3552 -0.5663  0.1166
15322TIP3    H167457   4.521   5.798  14.644 -1.1149 -0.6701 -1.8739
15322TIP3    H267458   4.384   5.748  14.681 -0.3968 -0.4874  1.2539
15323TIP3   OH267459   1.655   3.650  11.294  0.1445  0.4192  0.7013
15323TIP3    H167460   1.724   3.598  11.334  0.4605  2.2577  2.7441
15323TIP3    H267461   1.597   3.674  11.367 -0.7017  1.7871 -0.3655
15324TIP3   OH267462   2.818   1.814  15.638  0.1651  0.5372 -0.3586
15324TIP3    H167463   2.725   1.797  15.621  0.0298 -0.7110  1.3833
15324TIP3    H267464   2.860   1.806  15.553 -1.5291  3.1163 -1.5814
15325TIP3   OH267465   4.856   4.076   4.481 -0.2343 -0.2853 -0.8111
15325TIP3    H167466   4.781   4.122   4.444  0.4980  0.8286 -0.9306
15325TIP3    H267467   4.859   4.105   4.572  1.5846  1.7422 -1.4510
15326TIP3   OH267468   1.565   2.742   5.436 -0.3880 -0.3487 -0.1060
15326TIP3    H167469   1.475   2.724   5.463 -0.7308 -0.9480 -1.5558
15326TIP3    H267470   1.599   2.801   5.503 -1.4801 -1.0238  1.0821
15327TIP3   OH267471   2.741   2.479  11.838  0.3302  0.4538 -1.0513
15327TIP3    H167472   2.791   2.553  11.803  1.0003  1.8804  2.5065
15327TIP3    H267473   2.806   2.426  11.885 -0.8526  0.1790  0.3474
15328TIP3   OH267474   2.274   1.299   5.996  0.1464  0.2539 -0.2433
15328TIP3    H167475   2.198   1.336   6.042 -0.3560 -1.0362  0.0123
15328TIP3    H267476   2.331   1.268   6.067  0.3071  0.0748 -0.4498
15329TIP3   OH267477   5.102   3.117  11.806  0.1504  0.2399 -0.1808
15329TIP3    H167478   5.139   3.109  11.894 -1.3768 -0.2648  0.4451
15329TIP3    H267479   5.158   3.182  11.763  0.7933  0.6723  1.2275
15330TIP3   OH267480   1.906   6.214   0.287 -0.0368 -0.4675  0.1972
15330TIP3    H167481   1.929   6.235   0.196 -0.6849 -2.4581 -0.4855
15330TIP3    H267482   1.949   6.130   0.304 -1.0502 -0.8016  1.2398
15331TIP3   OH267483   0.563   3.925   2.751 -0.2151  0.1579 -0.3455
15331TIP3    H167484   0.500   3.989   2.784  0.4632  0.2075  0.9105
15331TIP3    H267485   0.553   3.850   2.810 -1.5477 -1.2540 -2.2396
15332TIP3   OH267486   4.069   4.590   5.558 -0.1862  0.5688 -0.5786
15332TIP3    H167487   4.040   4.501   5.579  4.4696 -1.3907 -1.0506
15332TIP3    H267488   4.107   4.623   5.639  0.5115  0.9743 -1.0532
15333TIP3   OH267489   2.850   6.408   3.325  0.5701  0.2200  0.3617
15333TIP3    H167490   2.901   6.488   3.332  1.2614 -0.0566 -1.1894
15333TIP3    H267491   2.906   6.340   3.361  0.3702  0.2738  0.7799
15334TIP3   OH267492   3.034   4.806   1.419 -0.1547  0.9396  0.0655
15334TIP3    H167493   2.971   4.819   1.349 -0.4034  2.6836  0.5829
15334TIP3    H267494   3.102   4.750   1.380 -0.4678  1.5601 -1.4283
15335TIP3   OH267495   6.696   1.798  15.754  0.4177  0.3522 -0.4025
15335TIP3    H167496   6.637   1.727  15.779  0.3839  0.3800 -0.4021
15335TIP3    H267497   6.708   1.849  15.834 -0.1769  0.7904 -0.5843
15336TIP3   OH267498   3.935   6.100  15.428  0.2649 -0.1241  0.1274
15336TIP3    H167499   4.028   6.119  15.419 -0.0717  1.2739 -0.8059
15336TIP3    H267500   3.910   6.145  15.509  0.2686  0.1225 -0.0055
15337TIP3   OH267501   1.526   0.380   0.089  0.5325 -0.6932  0.2986
15337TIP3    H167502   1.545   0.334   0.171 -0.6269  1.3978  1.8559
15337TIP3    H267503   1.584   0.455   0.089  0.9407 -0.9764 -1.1484
15338TIP3   OH267504   1.054   0.587   1.815  0.0048  0.7238  0.4886
15338TIP3    H167505   1.137   0.554   1.782 -0.6492 -0.9630  0.4257
15338TIP3    H267506   0.994   0.581   1.741 -0.8932 -0.9242  1.2826
15339TIP3   OH267507   5.020   3.201  15.326 -0.3277  0.5106 -0.0578
15339TIP3    H167508   5.007   3.235  15.415 -1.2258 -0.3021  0.1361
15339TIP3    H267509   4.931   3.189  15.292 -0.0918 -2.0372  0.0397
15340TIP3   OH267510   4.608   1.224   1.169 -0.4506  0.4428 -0.2034
15340TIP3    H167511   4.573   1.203   1.256 -1.2518 -2.4915 -1.1241
15340TIP3    H267512   4.674   1.157   1.152  1.4719  2.3976 -0.9591
15341TIP3   OH267513   0.410   4.799  13.448  0.2699 -0.1775 -0.4138
15341TIP3    H167514   0.396   4.879  13.396  0.1779 -0.1983 -0.4211
15341TIP3    H267515   0.429   4.831  13.536  0.1988 -0.1473 -0.4086
15342TIP3   OH267516   0.431   3.245  15.772  0.1792  0.2283  0.0512
15342TIP3    H167517   0.458   3.327  15.813  0.8480 -0.1803  0.4672
15342TIP3    H267518   0.474   3.245  15.686 -0.7004  0.7935 -0.4006
15343TIP3   OH267519   2.547   5.689  12.478  0.1502  0.6275  0.1392
15343TIP3    H167520   2.601   5.669  12.402 -1.0199 -0.2299 -0.5128
15343TIP3    H267521   2.605   5.676  12.553  1.0111  0.3421 -0.5593
15344TIP3   OH267522   4.907   2.408   6.384 -0.7063  0.4328  0.2389
15344TIP3    H167523   4.898   2.489   6.434 -1.1535  1.7132 -1.7586
15344TIP3    H267524   4.817   2.377   6.372 -0.6279  0.2800  0.0434
15345TIP3   OH267525   1.274   1.800  13.586 -0.3434  0.2937 -0.2888
15345TIP3    H167526   1.201   1.789  13.525 -0.6265 -0.7527  0.2129
15345TIP3    H267527   1.233   1.799  13.672  0.0699  1.6117 -0.0600
15346TIP3   OH267528   6.194   5.037   1.301  0.1199  0.0484  0.3091
15346TIP3    H167529   6.190   5.035   1.396  0.6122  1.5708  0.3888
15346TIP3    H267530   6.118   4.986   1.272 -1.1888  1.2270  1.5321
15347TIP3   OH267531   6.072   1.274  13.573  0.6930  0.3795  0.1356
15347TIP3    H167532   6.127   1.237  13.642 -0.7579 -2.0641  0.0684
15347TIP3    H267533   5.984   1.243  13.592  0.1219  0.2039 -2.4154
15348TIP3   OH267534   1.778   2.293  15.059  0.1188 -0.4701 -0.6784
15348TIP3    H167535   1.775   2.226  15.127 -1.2096 -0.4474 -0.6934
15348TIP3    H267536   1.717   2.262  14.992  0.3432  0.2029 -1.2068
15349TIP3   OH267537   1.451   2.208  15.149 -0.6315  0.3304  0.7644
15349TIP3    H167538   1.462   2.282  15.209 -0.7521 -0.6027  1.9841
15349TIP3    H267539   1.421   2.248  15.067 -2.3647  1.4804  1.9009
15350TIP3   OH267540   0.726   6.643   5.218 -0.1770  0.0583 -0.2650
15350TIP3    H167541   0.708   6.600   5.134 -0.6385 -0.2491 -0.0158
15350TIP3    H267542   0.639   6.661   5.254  0.0212  0.4009  0.0398
15351TIP3   OH267543   6.803   2.287   5.113  0.5542 -0.3219 -0.4831
15351TIP3    H167544   6.805   2.202   5.157  1.1876  0.0295  0.1782
15351TIP3    H267545   6.720   2.288   5.066 -1.5008  0.3664  2.8615
15352TIP3   OH267546   3.109   3.731   6.719 -0.1863  0.8027 -0.0275
15352TIP3    H167547   3.067   3.755   6.637  1.8049  2.4203 -0.6495
15352TIP3    H267548   3.126   3.815   6.763  0.1646  0.0505  1.3289
15353TIP3   OH267549   0.817   4.897   6.274 -0.4781 -0.1758 -0.6094
15353TIP3    H167550   0.808   4.989   6.247 -1.9505 -0.0217  0.2936
15353TIP3    H267551   0.846   4.902   6.365  0.5273 -0.6461 -0.8886
15354TIP3   OH267552   0.721   2.382  11.382 -0.0094  0.2595 -0.3454
15354TIP3    H167553   0.687   2.347  11.300 -1.6529  2.3647 -0.6456
15354TIP3    H267554   0.651   2.367  11.445 -0.1585  1.6541 -0.1531
15355TIP3   OH267555   1.817   1.922  12.297  0.0465  0.3779 -0.2068
15355TIP3    H167556   1.734   1.880  12.319  0.4902  0.0253  0.9092
15355TIP3    H267557   1.827   1.908  12.203 -0.5044 -0.8030 -0.1144
15356TIP3   OH267558   0.120   5.238   1.154  0.5049 -0.2910 -0.4352
15356TIP3    H167559   0.101   5.284   1.236 -1.2075 -2.2704  0.3634
15356TIP3    H267560   0.077   5.153   1.163  0.0840 -0.5218 -3.4796
15357TIP3   OH267561   4.299   2.011   3.124 -0.4953  0.2974  0.2464
15357TIP3    H167562   4.206   2.014   3.105 -0.2154  1.3064 -1.1588
15357TIP3    H267563   4.305   2.010   3.220 -1.9583 -2.4351  0.3980
15358TIP3   OH267564   2.124   0.706  13.045  0.1486  0.0452  0.0997
15358TIP3    H167565   2.051   0.748  13.000  1.0219  2.3333  0.6632
15358TIP3    H267566   2.089   0.678  13.129 -0.4965 -0.5492 -0.3536
15359TIP3   OH267567   0.128   2.369   0.899  0.4043 -0.8145  0.0908
15359TIP3    H167568   0.220   2.387   0.879  0.4668  0.0929  1.1040
15359TIP3    H267569   0.079   2.412   0.828  0.7467 -0.9989 -0.2570
15360TIP3   OH267570   0.711   1.711  10.392 -0.4164 -0.6759 -0.3472
15360TIP3    H167571   0.698   1.622  10.360 -2.0556  0.1811 -2.2723
15360TIP3    H267572   0.623   1.748  10.398  0.1643  0.6117  1.1238
15361TIP3   OH267573   0.164   2.794   5.821  0.5493 -0.1695  0.0117
15361TIP3    H167574   0.249   2.839   5.815  0.0277  0.9625  0.8265
15361TIP3    H267575   0.126   2.804   5.734  1.3523 -0.9219 -0.4426
15362TIP3   OH267576   3.238   5.970   4.247  0.5334 -0.5015  0.1350
15362TIP3    H167577   3.190   5.997   4.325 -2.7841 -2.0715 -1.1448
15362TIP3    H267578   3.250   5.875   4.258  3.2333 -0.2211  0.2372
15363TIP3   OH267579   3.016   6.640  11.210 -0.1470 -1.0501 -0.5874
15363TIP3    H167580   3.109   6.637  11.186  0.2322 -1.5265  0.8359
15363TIP3    H267581   3.002   6.562  11.263 -0.9502 -0.1663  0.5795
15364TIP3   OH267582   0.674   2.631  16.686 -0.5809 -0.0906  0.4511
15364TIP3    H167583   0.647   2.667  16.602 -2.0196  0.5751  1.1618
15364TIP3    H267584   0.593   2.627  16.737 -0.0441 -2.1038  1.2273
15365TIP3   OH267585   5.520   0.722   4.668 -0.0620  0.2114 -0.4274
15365TIP3    H167586   5.590   0.702   4.731  0.2522  0.5067 -0.6743
15365TIP3    H267587   5.443   0.740   4.722 -0.1272 -0.7863 -0.1772
15366TIP3   OH267588   4.538   6.813  12.499 -0.1584  0.2282  0.4259
15366TIP3    H167589   4.609   6.763  12.538 -0.4453 -0.6142 -0.1205
15366TIP3    H267590   4.579   6.864  12.430  0.1544  0.8575  1.0621
15367TIP3   OH267591   5.683   6.472  10.422 -0.4846 -0.2655  0.2713
15367TIP3    H167592   5.734   6.534  10.473 -2.5692  1.2585  0.6185
15367TIP3    H267593   5.594   6.481  10.454 -1.4172 -1.1408 -1.8575
15368TIP3   OH267594   6.234   4.353   3.071  0.2736 -0.2519 -1.1936
15368TIP3    H167595   6.213   4.311   3.155  1.8138  0.3837 -0.4440
15368TIP3    H267596   6.162   4.329   3.014  0.5059 -3.0015 -0.4937
15369TIP3   OH267597   6.703   3.706  16.574  0.3643 -0.2342  0.6987
15369TIP3    H167598   6.787   3.701  16.527  0.5461  0.3658  0.9451
15369TIP3    H267599   6.637   3.704  16.505  0.5895 -0.5065  0.4874
15370TIP3   OH267600   2.177   0.117  11.944 -1.0414 -0.7784  0.0294
15370TIP3    H167601   2.188   0.211  11.957 -0.5610 -0.7230 -0.7433
15370TIP3    H267602   2.125   0.089  12.019 -2.6535  0.3863 -0.5819
15371TIP3   OH267603   3.527   1.004  16.908  0.4475 -0.4193  0.3783
15371TIP3    H167604   3.443   0.968  16.936  0.0077  0.1627 -0.1700
15371TIP3    H267605   3.522   1.003  16.812  0.3397  1.2725  0.3370
15372TIP3   OH267606   0.878   3.591   0.489 -0.0220  0.0247 -0.5783
15372TIP3    H167607   0.895   3.538   0.568  1.3969 -0.1336 -0.9630
15372TIP3    H267608   0.809   3.543   0.443 -0.1590 -0.4208  0.0727
15373TIP3   OH267609   3.964   1.278  15.218 -0.2317 -0.1443  0.1080
15373TIP3    H167610   3.951   1.192  15.178 -0.6030 -0.3332  0.6206
15373TIP3    H267611   3.958   1.262  15.312 -0.4899  0.4716  0.2026
15374TIP3   OH267612   0.682   0.358   2.148 -0.3924 -0.1495 -1.2174
15374TIP3    H167613   0.734   0.412   2.089 -0.3310 -0.0267 -1.0482
15374TIP3    H267614   0.745   0.298   2.188 -0.3236  0.2348 -0.7436
15375TIP3   OH267615   3.643   4.446   2.176 -0.3837  1.0790 -0.3599
15375TIP3    H167616   3.571   4.429   2.115  0.9871 -0.1250 -1.7530
15375TIP3    H267617   3.712   4.386   2.148  0.6477  1.1327  1.8611
15376TIP3   OH267618   3.493   0.945   5.545 -0.4080 -0.0890  0.2246
15376TIP3    H167619   3.453   0.912   5.626 -0.3001  0.1210  0.3650
15376TIP3    H267620   3.423   0.994   5.502 -0.4034 -0.0184  0.2971
15377TIP3   OH267621   6.211   0.527  15.814  0.0781 -0.5619  0.4360
15377TIP3    H167622   6.253   0.566  15.890  0.1032  1.6733 -0.6707
15377TIP3    H267623   6.249   0.571  15.739 -0.3470 -2.3278 -0.8867
15378TIP3   OH267624   3.284   2.892  15.786 -0.3475  0.5750  0.6750
15378TIP3    H167625   3.366   2.933  15.759  0.7662  1.3876  4.7214
15378TIP3    H267626   3.224   2.965  15.800 -0.8582  0.1973  0.4846
15379TIP3   OH267627   2.472   3.801  15.291  0.2465  0.6493 -0.5350
15379TIP3    H167628   2.483   3.780  15.198  0.3679  0.0919 -0.4026
15379TIP3    H267629   2.424   3.883  15.292 -2.4032 -0.7901 -1.0734
15380TIP3   OH267630   1.801   3.091   4.822 -0.1273 -0.3079  0.3607
15380TIP3    H167631   1.858   3.015   4.832 -0.3586 -0.5963 -0.4503
15380TIP3    H267632   1.795   3.128   4.910 -1.0189 -1.9515  1.0418
15381TIP3   OH267633   1.761   5.045  14.833  0.0386 -0.6421  0.5317
15381TIP3    H167634   1.757   5.140  14.834  1.3289 -0.5399 -0.8844
15381TIP3    H267635   1.785   5.021  14.923 -0.3393  0.3431  0.9093
15382TIP3   OH267636   2.143   1.643  14.038 -0.2683  0.0826  0.2095
15382TIP3    H167637   2.090   1.716  14.071 -0.5407 -0.0222  0.0068
15382TIP3    H267638   2.189   1.680  13.962  1.0551  0.5893  1.2044
15383TIP3   OH267639   6.232   3.673  16.653  0.2190  0.3570  0.0210
15383TIP3    H167640   6.183   3.591  16.652  1.0215 -0.1423  0.9561
15383TIP3    H267641   6.317   3.651  16.689  0.4299  1.6151  0.3561
15384TIP3   OH267642   2.857   2.338   4.106  0.4743 -0.2514 -0.1127
15384TIP3    H167643   2.800   2.385   4.046  1.8833  1.0031 -0.5379
15384TIP3    H267644   2.799   2.306   4.175 -0.4641  2.9029  0.6999
15385TIP3   OH267645   3.901   1.107  11.482  0.4403  0.1331 -0.1190
15385TIP3    H167646   3.898   1.176  11.416  0.2534 -0.9714 -1.3166
15385TIP3    H267647   3.956   1.142  11.551  1.4001  0.9847 -1.2787
15386TIP3   OH267648   5.106   2.030  14.431 -0.4618  0.2830 -0.6747
15386TIP3    H167649   5.182   2.064  14.385 -0.6327  0.5002 -0.8007
15386TIP3    H267650   5.138   2.010  14.519 -0.0071 -0.6451 -1.0415
15387TIP3   OH267651   2.178   5.432   0.469 -0.2107 -0.0092  0.5037
15387TIP3    H167652   2.205   5.446   0.378 -0.3596  1.3068  0.6485
15387TIP3    H267653   2.195   5.339   0.484 -1.0020 -0.4615 -1.1328
15388TIP3   OH267654   4.446   3.764   4.451 -0.7749 -0.5480  0.5968
15388TIP3    H167655   4.486   3.682   4.479  1.6649  0.9853  2.0363
15388TIP3    H267656   4.473   3.774   4.360 -1.3697 -1.4645  0.3071
15389TIP3   OH267657   5.565   0.253  15.591  0.2108  0.0916 -0.9480
15389TIP3    H167658   5.550   0.304  15.511  0.8070  0.0644 -1.0821
15389TIP3    H267659   5.560   0.162  15.562 -1.0840  0.0566 -0.6661
15390TIP3   OH267660   1.806   4.649  12.378 -0.3487 -0.0750  0.1537
15390TIP3    H167661   1.739   4.613  12.437  0.6954  0.2838  1.6180
15390TIP3    H267662   1.846   4.720  12.428  0.7125  0.1142 -0.9288
15391TIP3   OH267663   0.886   0.815  12.976 -0.3037  0.0710  0.0787
15391TIP3    H167664   0.845   0.745  13.026  0.1501  0.0715  0.4686
15391TIP3    H267665   0.856   0.896  13.019 -0.5588  0.1029 -0.1589
15392TIP3   OH267666   5.336   4.145  13.466 -0.3038 -0.0367 -0.0764
15392TIP3    H167667   5.378   4.059  13.467 -1.2130 -0.4960 -0.1548
15392TIP3    H267668   5.396   4.202  13.515  0.0291 -0.8525  0.4817
15393TIP3   OH267669   6.605   3.030   2.187 -0.0825 -0.7210 -0.6079
15393TIP3    H167670   6.555   3.002   2.110  0.8209 -3.0765 -0.4082
15393TIP3    H267671   6.689   2.986   2.178  0.1739 -0.7489  1.5381
15394TIP3   OH267672   6.096   2.584   0.204  0.5721  0.4228 -0.0947
15394TIP3    H167673   6.052   2.669   0.200 -1.1547 -0.4692 -1.5088
15394TIP3    H267674   6.034   2.528   0.251  0.4241 -0.7135 -1.5758
15395TIP3   OH267675   0.421   3.649   5.443 -0.0894 -0.5405  0.5448
15395TIP3    H167676   0.331   3.639   5.474 -0.5149 -0.0167 -0.4925
15395TIP3    H267677   0.413   3.698   5.362  1.0109 -1.8101 -0.3716
15396TIP3   OH267678   6.643   5.022   0.264 -0.1687  0.4382 -0.4297
15396TIP3    H167679   6.736   5.045   0.267 -0.2924  0.7964  1.3057
15396TIP3    H267680   6.622   4.992   0.352 -1.9553  1.4260 -0.4698
15397TIP3   OH267681   4.695   6.240   5.190 -0.0411  0.6522  0.2683
15397TIP3    H167682   4.790   6.231   5.183  0.2798  3.1225  0.5142
15397TIP3    H267683   4.661   6.196   5.113  1.0909 -2.2210  1.2623
15398TIP3   OH267684   5.417   4.880  13.565  0.2422  1.1568  0.0468
15398TIP3    H167685   5.491   4.915  13.615  0.6175  0.7357 -0.2149
15398TIP3    H267686   5.430   4.912  13.476  1.1129 -0.4108 -0.4227
15399TIP3   OH267687   0.492   2.237  16.254  0.5400  0.2358  0.2635
15399TIP3    H167688   0.406   2.278  16.252  0.3877 -0.0961 -0.7351
15399TIP3    H267689   0.553   2.311  16.260  0.2045  0.4953  0.5401
15400TIP3   OH267690   4.699   3.119   4.989  1.1637 -0.1080 -0.0557
15400TIP3    H167691   4.639   3.178   4.942 -1.1849 -1.6833  0.8028
15400TIP3    H267692   4.663   3.032   4.974  1.8580 -0.8991  2.4880
15401TIP3   OH267693   5.642   1.366  12.605  0.2907 -0.0519 -0.3245
15401TIP3    H167694   5.661   1.458  12.621  1.7692 -0.1393 -1.3979
15401TIP3    H267695   5.577   1.367  12.535 -0.8532  0.1748  0.7046
15402TIP3   OH267696   2.905   1.009   1.341  0.4395  0.1804 -0.1940
15402TIP3    H167697   2.980   0.951   1.354  1.5540  1.7640  0.9005
15402TIP3    H267698   2.850   0.994   1.418  0.8477  0.7145  0.2111
15403TIP3   OH267699   6.794   3.586   1.415 -0.4579  0.3351 -0.0210
15403TIP3    H167700   6.829   3.619   1.497 -0.9505  0.0993  0.2859
15403TIP3    H267701   6.707   3.625   1.407 -0.0216  1.1741 -0.9413
15404TIP3   OH267702   0.571   6.829  14.656  0.2761  0.1277 -0.2575
15404TIP3    H167703   0.613   6.913  14.642  1.4256 -0.3599  0.1653
15404TIP3    H267704   0.477   6.850  14.663  0.2149  1.0482 -2.7715
15405TIP3   OH267705   4.586   5.074   5.445  0.0370 -0.6264 -0.1520
15405TIP3    H167706   4.645   5.117   5.507 -0.6602  0.5707 -0.3070
15405TIP3    H267707   4.512   5.046   5.498 -0.2552 -0.1945 -0.3343
15406TIP3   OH267708   1.621   2.403  13.868 -0.0074 -0.3759 -0.2871
15406TIP3    H167709   1.658   2.315  13.875  2.3970  0.5869  0.0302
15406TIP3    H267710   1.578   2.404  13.783 -1.7958 -2.4105  0.4990
15407TIP3   OH267711   5.052   2.687  14.538 -0.0836 -0.1466 -0.2371
15407TIP3    H167712   5.119   2.676  14.470 -0.8201 -1.9556 -0.7500
15407TIP3    H267713   5.043   2.600  14.577 -1.4566  0.2692  0.4501
15408TIP3   OH267714   6.524   5.825   6.134 -0.2458 -0.2883 -0.3963
15408TIP3    H167715   6.584   5.814   6.208  1.2074 -2.1314 -1.7569
15408TIP3    H267716   6.458   5.757   6.146 -0.1887 -0.3869 -0.6379
15409TIP3   OH267717   1.807   2.558  15.999 -0.5638 -0.0986  0.5729
15409TIP3    H167718   1.895   2.584  15.972 -0.6427  0.6816  1.0391
15409TIP3    H267719   1.759   2.550  15.917  0.2609 -1.7869  0.2254
15410TIP3   OH267720   2.115   1.117   4.688  0.0750  0.0147 -0.0230
15410TIP3    H167721   2.193   1.061   4.683  0.1409  0.1177 -0.1530
15410TIP3    H267722   2.112   1.161   4.603 -0.8896 -1.0099 -0.5590
15411TIP3   OH267723   0.170   5.643  11.590 -0.2516 -0.2381 -0.5959
15411TIP3    H167724   0.101   5.709  11.593 -0.4887 -0.4697 -0.8390
15411TIP3    H267725   0.132   5.565  11.630  0.3064  0.0112  0.4438
15412TIP3   OH267726   4.890   4.558  10.997 -0.3347  0.3229  0.0655
15412TIP3    H167727   4.969   4.556  10.944 -0.8342 -0.1656 -0.6921
15412TIP3    H267728   4.916   4.523  11.082  0.2570  0.1675 -0.1783
15413TIP3   OH267729   6.266   6.165  15.190  0.1975  0.1184 -0.0792
15413TIP3    H167730   6.350   6.127  15.214  0.6818  0.8580 -0.5276
15413TIP3    H267731   6.201   6.104  15.223  0.9203 -0.5965  0.0534
15414TIP3   OH267732   6.543   0.582  14.739 -0.0510  0.1693 -0.1215
15414TIP3    H167733   6.572   0.494  14.764 -0.4929  0.0170 -0.1397
15414TIP3    H267734   6.610   0.640  14.776 -0.4747 -0.0821  1.0814
15415TIP3   OH267735   1.555   2.840   1.863  0.3145 -1.3297 -0.4086
15415TIP3    H167736   1.561   2.791   1.782 -0.7215 -1.0287 -0.6779
15415TIP3    H267737   1.510   2.781   1.924 -1.2407 -0.6342 -0.8332
15416TIP3   OH267738   0.772   1.108  16.109 -0.6852  0.0795 -0.3945
15416TIP3    H167739   0.717   1.173  16.153 -0.1577  0.3089 -0.0656
15416TIP3    H267740   0.839   1.085  16.173  1.4939  2.1086 -1.7539
15417TIP3   OH267741   4.718   1.401  11.181  0.0035 -0.0092  0.1777
15417TIP3    H167742   4.689   1.397  11.272 -2.2221  0.8997 -0.4161
15417TIP3    H267743   4.653   1.350  11.133  0.0074  1.1354 -1.1146
15418TIP3   OH267744   1.240   6.107  15.650  0.3194 -0.0134  0.2680
15418TIP3    H167745   1.304   6.164  15.608 -1.5230  1.0202 -1.2658
15418TIP3    H267746   1.211   6.047  15.581 -0.9739  0.1014  0.6832
15419TIP3   OH267747   0.585   0.180  16.393 -0.2296  0.5652  0.4440
15419TIP3    H167748   0.525   0.231  16.339  0.0598  1.5204  1.0114
15419TIP3    H267749   0.620   0.114  16.333  0.8306  2.2090 -0.8118
15420TIP3   OH267750   6.565   0.046   3.822  0.4171  0.1499 -0.2423
15420TIP3    H167751   6.602  -0.037   3.792 -1.3538 -0.8460  0.1879
15420TIP3    H267752   6.483   0.055   3.774 -0.2389  0.8091  0.9510
15421TIP3   OH267753   6.376   6.877  16.567  0.0083 -0.2054  0.0114
15421TIP3    H167754   6.421   6.961  16.556  1.1050 -0.7526  0.2553
15421TIP3    H267755   6.365   6.844  16.478  1.2857 -0.6751  0.0100
15422TIP3   OH267756   4.846   3.589  16.759  0.4022 -0.6186  0.0395
15422TIP3    H167757   4.888   3.615  16.841 -0.3294  0.4887  0.0844
15422TIP3    H267758   4.787   3.661  16.738 -3.7253 -3.2546  1.5006
15423TIP3   OH267759   3.157   3.947   0.919  0.2609  0.0150  0.6882
15423TIP3    H167760   3.201   4.031   0.931  1.8124 -0.6718  0.0390
15423TIP3    H267761   3.071   3.970   0.884  1.3166  1.2967 -1.2571
15424TIP3   OH267762   5.656   4.536  10.984 -0.2214  0.3974  0.4561
15424TIP3    H167763   5.625   4.580  10.905 -0.5658 -0.1927  0.2573
15424TIP3    H267764   5.669   4.607  11.047  0.8708  0.9730 -0.3799
15425TIP3   OH267765   5.348   5.667   0.565  0.3959 -0.1258  0.0235
15425TIP3    H167766   5.260   5.693   0.593  0.4725  0.2551 -0.0832
15425TIP3    H267767   5.354   5.574   0.588  0.5922  0.2566  1.6411
15426TIP3   OH267768   0.751   3.210  15.216 -0.4293 -0.3658 -0.0575
15426TIP3    H167769   0.792   3.244  15.137  0.1920 -1.5014 -0.2325
15426TIP3    H267770   0.793   3.257  15.288  1.1981 -1.4892 -0.2334
15427TIP3   OH267771   0.186   1.582   1.424  0.6583  0.6653 -0.4705
15427TIP3    H167772   0.151   1.493   1.427  0.5311  0.7246 -0.2065
15427TIP3    H267773   0.276   1.571   1.393 -0.1217  0.6673 -3.0077
15428TIP3   OH267774   0.712   4.046   3.400  0.8482  0.3268  0.5521
15428TIP3    H167775   0.632   4.094   3.418  0.8492  0.1310  1.0824
15428TIP3    H267776   0.774   4.112   3.371  1.1907  0.8200  2.3244
15429TIP3   OH267777   2.652   0.100  11.552 -0.0690  0.3917  0.2706
15429TIP3    H167778   2.570   0.127  11.510  0.6996  0.0848 -1.5655
15429TIP3    H267779   2.668   0.012  11.518  1.3140  0.6865  0.0676
15430TIP3   OH267780   3.206   2.361   3.750  0.4150  0.3417 -0.3765
15430TIP3    H167781   3.176   2.317   3.829 -2.3419 -0.3372 -1.6885
15430TIP3    H267782   3.206   2.454   3.773  0.4233  0.1073  0.6132
15431TIP3   OH267783   1.821   3.905  12.874 -0.9744 -0.5817  1.1816
15431TIP3    H167784   1.823   3.827  12.820  1.0643  1.4354 -1.9924
15431TIP3    H267785   1.902   3.902  12.924 -0.0428  0.1830 -0.2015
15432TIP3   OH267786   3.748   5.028  12.265 -0.2667  0.1199 -0.3990
15432TIP3    H167787   3.714   4.998  12.180  0.3943  0.4406 -0.7830
15432TIP3    H267788   3.830   5.072  12.243  0.8962 -1.4570  0.6105
15433TIP3   OH267789   6.632   0.629  11.566  0.1929  0.0578  0.3772
15433TIP3    H167790   6.675   0.633  11.651  1.7323 -1.5176 -0.2595
15433TIP3    H267791   6.542   0.604  11.584  0.2365  0.7053  1.5752
15434TIP3   OH267792   0.972   3.777   4.234  0.1429 -0.0718  0.3094
15434TIP3    H167793   0.950   3.756   4.325  2.1055  0.4024  0.9488
15434TIP3    H267794   0.889   3.805   4.195 -0.7825 -0.4870  1.8856
15435TIP3   OH267795   2.531   6.493   0.186 -0.2009  0.2135 -0.3458
15435TIP3    H167796   2.494   6.438   0.117  1.0991  0.6968 -1.4478
15435TIP3    H267797   2.515   6.443   0.266  0.8941 -1.7845 -1.2938
15436TIP3   OH267798   2.684   0.808  15.949  0.0979 -0.2889  0.0604
15436TIP3    H167799   2.660   0.889  15.994 -2.1669 -0.4871 -0.6494
15436TIP3    H267800   2.769   0.784  15.986 -0.7485  0.5528  2.8029
15437TIP3   OH267801   5.492   6.135  15.674 -0.1093  0.1336 -0.4505
15437TIP3    H167802   5.446   6.214  15.702 -0.2416  0.2353 -0.9447
15437TIP3    H267803   5.581   6.165  15.655 -0.7262  0.6381 -2.8218
15438TIP3   OH267804   5.249   2.369  13.372  0.2515 -0.3359 -0.2346
15438TIP3    H167805   5.327   2.416  13.398  0.5165 -0.9545  0.1198
15438TIP3    H267806   5.209   2.340  13.454  0.2863 -1.0211 -0.4499
15439TIP3   OH267807   2.190   5.704   3.607  0.7349  0.1975  0.0610
15439TIP3    H167808   2.166   5.786   3.564  1.6811  0.2762 -0.3545
15439TIP3    H267809   2.271   5.724   3.654  0.4560 -0.2544  0.7403
15440TIP3   OH267810   5.503   3.899  11.299 -0.0564  0.5334 -0.0220
15440TIP3    H167811   5.435   3.922  11.235  0.7702  0.7614 -0.8422
15440TIP3    H267812   5.455   3.877  11.379 -1.1859 -0.9813 -1.0733
15441TIP3   OH267813   1.673   5.814  13.469 -0.4051  0.2385 -0.1318
15441TIP3    H167814   1.672   5.826  13.374  0.8817  2.1391  0.0461
15441TIP3    H267815   1.766   5.810  13.492 -0.6259 -3.7951  0.7359
15442TIP3   OH267816   6.528   4.416   0.644  0.5019 -0.4256 -0.6368
15442TIP3    H167817   6.583   4.403   0.721 -0.1507  0.5723  0.0157
15442TIP3    H267818   6.446   4.371   0.665 -0.3137  1.2928  0.0026
15443TIP3   OH267819   0.431   5.948   4.279  0.7589 -0.1933 -0.6218
15443TIP3    H167820   0.367   6.002   4.326  1.4965  0.9974 -0.9437
15443TIP3    H267821   0.386   5.923   4.198  0.5178  0.2074 -0.6132
15444TIP3   OH267822   1.034   1.078   1.261  0.4598  0.0517 -0.4919
15444TIP3    H167823   1.075   1.005   1.306 -0.0770  0.1005  0.0885
15444TIP3    H267824   1.054   1.063   1.168  0.7342 -0.5834 -0.3339
15445TIP3   OH267825   2.358   2.656  12.508 -0.4953  0.4252 -0.4386
15445TIP3    H167826   2.300   2.627  12.437 -1.6537  1.1662  0.1626
15445TIP3    H267827   2.359   2.751  12.501 -1.7825  0.6368  1.3441
15446TIP3   OH267828   6.872   6.488  16.257  0.0313  0.2208  0.1952
15446TIP3    H167829   6.884   6.529  16.171  3.0867  1.9850  1.3193
15446TIP3    H267830   6.811   6.546  16.303  0.6970  0.9369  0.1918
15447TIP3   OH267831   5.796   6.732  16.286 -0.5935 -0.1334  0.8586
15447TIP3    H167832   5.839   6.738  16.372  2.1262  0.7986 -0.4733
15447TIP3    H267833   5.789   6.638  16.270  1.0277 -0.3345  1.1338
15448TIP3   OH267834   2.342   4.420   5.794  0.0364 -0.3844 -0.0139
15448TIP3    H167835   2.409   4.476   5.833  0.5568 -1.2098  0.2968
15448TIP3    H267836   2.391   4.358   5.740 -0.5107 -0.7290 -0.1210
15449TIP3   OH267837   0.041   1.332  14.648  0.5940 -0.4768 -0.2714
15449TIP3    H167838   0.085   1.415  14.628 -1.2340  0.0603 -2.5557
15449TIP3    H267839   0.111   1.267  14.647  1.8611  0.8292  0.0630
15450TIP3   OH267840   3.694   2.959   0.926  0.2483 -0.4145  0.0254
15450TIP3    H167841   3.679   2.920   1.012  2.3769 -0.0802  0.6024
15450TIP3    H267842   3.641   3.039   0.926  0.8854  0.0463  1.4062
15451TIP3   OH267843   4.767   0.854   4.622  0.5718  0.5066 -0.2236
15451TIP3    H167844   4.736   0.897   4.543  0.6654  0.1739 -0.4413
15451TIP3    H267845   4.779   0.925   4.685  0.7091  0.7947 -0.5761
15452TIP3   OH267846   1.149   3.833   2.855 -0.1833 -0.6740  0.2397
15452TIP3    H167847   1.174   3.777   2.928 -1.5088 -1.5047  0.0863
15452TIP3    H267848   1.205   3.806   2.782  0.3378 -0.6338  0.6246
15453TIP3   OH267849   4.801   4.772  10.602  0.5952 -0.1839  0.1788
15453TIP3    H167850   4.885   4.746  10.639  0.4074 -2.1115 -0.6223
15453TIP3    H267851   4.824   4.829  10.528  1.1211  0.3403  0.7390
15454TIP3   OH267852   3.716   5.466  16.264 -0.1227  0.2122  0.2461
15454TIP3    H167853   3.737   5.408  16.337 -0.4564  1.5417  1.4477
15454TIP3    H267854   3.794   5.465  16.209 -0.0424 -1.1805  0.3569
15455TIP3   OH267855   2.800   1.591  16.338 -0.1795  0.3999 -0.1035
15455TIP3    H167856   2.734   1.534  16.378  0.1422 -0.2836 -0.5328
15455TIP3    H267857   2.831   1.543  16.262  1.5328  0.2587  0.6239
15456TIP3   OH267858   4.617   5.364   0.544  0.4435  0.0742  0.2740
15456TIP3    H167859   4.620   5.295   0.611  1.4223  0.6228  0.8287
15456TIP3    H267860   4.560   5.431   0.581 -2.0198 -1.1406 -1.0370
15457TIP3   OH267861   4.310   6.295   3.422  0.2848  0.0575 -0.7172
15457TIP3    H167862   4.369   6.370   3.428  0.5683 -0.2228  0.2699
15457TIP3    H267863   4.225   6.330   3.451  0.1719  0.2485 -1.2770
15458TIP3   OH267864   3.822   1.485  11.348  0.4368  0.4694  0.4101
15458TIP3    H167865   3.832   1.510  11.256 -1.3784 -1.6247 -0.4426
15458TIP3    H267866   3.903   1.438  11.370 -0.2130 -1.4101 -1.0118
15459TIP3   OH267867   4.986   3.120   2.633  0.2194 -0.3308 -0.2102
15459TIP3    H167868   4.938   3.057   2.687  0.4782  1.5365  2.3565
15459TIP3    H267869   4.936   3.124   2.552 -3.0275  0.1629  1.6291
15460TIP3   OH267870   0.573   0.418  10.758  0.5684  0.2266 -0.1314
15460TIP3    H167871   0.594   0.328  10.785 -0.9025  0.0149  0.4143
15460TIP3    H267872   0.507   0.407  10.689  1.0852  0.8854 -0.7529
15461TIP3   OH267873   5.892   4.646   2.512  0.2663 -0.5065 -0.1940
15461TIP3    H167874   5.839   4.572   2.484  1.2615 -0.6380 -1.8258
15461TIP3    H267875   5.968   4.606   2.556 -0.0991 -0.3717  0.5835
15462TIP3   OH267876   5.375   0.476   3.404 -0.3950  0.0376  0.7270
15462TIP3    H167877   5.388   0.505   3.313 -0.7638 -1.2874  0.2314
15462TIP3    H267878   5.304   0.411   3.398  0.3229 -0.8736  1.8099
15463TIP3   OH267879   3.054   1.766   2.764  0.9093  0.6076 -0.4980
15463TIP3    H167880   3.117   1.727   2.825 -1.1729 -1.0708  0.7446
15463TIP3    H267881   3.046   1.702   2.693 -0.9749 -0.3303  0.4883
15464TIP3   OH267882   3.546   1.033   2.516  0.2340 -0.1710 -0.1688
15464TIP3    H167883   3.488   1.056   2.443  0.4255 -2.4888 -1.1452
15464TIP3    H267884   3.505   0.956   2.556  1.9629 -1.0961 -0.0833
15465TIP3   OH267885   0.416   4.639  16.082  0.0253 -0.0659  0.2609
15465TIP3    H167886   0.327   4.664  16.056  0.2165  1.5918  1.0671
15465TIP3    H267887   0.411   4.628  16.177  0.5934 -0.3887  0.2592
15466TIP3   OH267888   5.839   5.174   2.271 -0.2255  0.0983  0.4469
15466TIP3    H167889   5.858   5.081   2.283  0.1684  0.0286 -0.6140
15466TIP3    H267890   5.915   5.208   2.224 -0.4009  0.9462  0.7597
15467TIP3   OH267891   0.903   0.848   6.144  0.4316 -0.4131  0.0722
15467TIP3    H167892   0.996   0.829   6.156  0.8131  1.1712 -0.1269
15467TIP3    H267893   0.860   0.806   6.219  1.4483 -0.2283  0.7799
15468TIP3   OH267894   3.488   5.224   3.789 -0.0910  0.1359  0.3324
15468TIP3    H167895   3.467   5.186   3.874  1.0258 -1.9944 -0.2600
15468TIP3    H267896   3.582   5.246   3.796  0.3897 -1.4281 -0.7732
15469TIP3   OH267897   5.284   2.265   1.211  0.4966 -0.4521 -0.3943
15469TIP3    H167898   5.274   2.324   1.136  0.4273 -0.5948 -0.4991
15469TIP3    H267899   5.279   2.177   1.172  0.4221 -0.5257 -0.2168
15470TIP3   OH267900   1.810   4.067   2.190  0.0133 -0.5410  0.1732
15470TIP3    H167901   1.867   4.129   2.234 -0.2226 -0.8816  0.9756
15470TIP3    H267902   1.859   3.985   2.190  0.2660 -0.4063 -0.7576
15471TIP3   OH267903   3.185   5.707   1.890 -0.2403 -0.1047  0.1718
15471TIP3    H167904   3.229   5.656   1.823 -0.3141  1.0514 -0.7895
15471TIP3    H267905   3.127   5.645   1.933  0.2966 -1.0149 -0.3873
15472TIP3   OH267906   0.320   5.933   2.863  0.6748 -0.0464  0.4944
15472TIP3    H167907   0.283   5.848   2.841  1.0044  0.2825 -1.4843
15472TIP3    H267908   0.400   5.939   2.812  0.5810  1.5153  0.4704
15473TIP3   OH267909   6.759   6.874  13.435 -0.2345  0.1699  0.1899
15473TIP3    H167910   6.698   6.801  13.423  0.3170 -0.1392 -0.7980
15473TIP3    H267911   6.728   6.918  13.515 -1.2307 -0.4828  0.1788
15474TIP3   OH267912   0.590   2.202   1.232 -0.8003  0.5774 -0.5061
15474TIP3    H167913   0.545   2.243   1.157 -1.3549  1.2006  0.1514
15474TIP3    H267914   0.524   2.145   1.272 -0.7255  0.7869 -0.0792
15475TIP3   OH267915   6.656   5.202  11.150  0.0980  0.1733  0.1671
15475TIP3    H167916   6.712   5.265  11.104 -0.0141 -1.3618 -2.2583
15475TIP3    H267917   6.715   5.158  11.211  0.5859  1.3270  0.5641
15476TIP3   OH267918   6.572   2.861   4.874  0.0443 -0.1441 -0.3740
15476TIP3    H167919   6.652   2.886   4.828  0.9704 -1.3557  0.5350
15476TIP3    H267920   6.524   2.806   4.812  0.4955 -0.4018 -0.4972
15477TIP3   OH267921   4.087   2.468  15.695  0.8322 -0.5164  0.5080
15477TIP3    H167922   4.144   2.539  15.727 -0.9909  0.4355  1.8018
15477TIP3    H267923   4.128   2.441  15.613  0.9576  2.9415 -0.7689
15478TIP3   OH267924   5.364   1.941  15.999  0.3236  0.1699  0.2323
15478TIP3    H167925   5.422   1.905  16.066 -0.5120  2.0969  2.1179
15478TIP3    H267926   5.393   2.031  15.989 -1.1542  0.6243 -0.1508
15479TIP3   OH267927   0.550   0.672  16.130  0.3031  0.3891 -0.0397
15479TIP3    H167928   0.611   0.723  16.077  0.3903  0.0194 -0.3022
15479TIP3    H267929   0.590   0.585  16.135 -0.9044 -0.3102 -1.4830
15480TIP3   OH267930   4.992   5.026   0.382  0.2458  0.4158  0.0344
15480TIP3    H167931   4.938   5.041   0.305  0.7998  1.2541 -0.1994
15480TIP3    H267932   4.944   4.960   0.433 -1.3101  1.6123  0.1708
15481TIP3   OH267933   3.182   5.066   0.100 -0.3196 -0.0613  0.0163
15481TIP3    H167934   3.237   5.126   0.051  0.2159 -1.6215 -1.3892
15481TIP3    H267935   3.138   5.121   0.165  0.1037  1.8205 -1.2156
15482TIP3   OH267936   0.949   4.794  16.600 -0.1988  1.0871  0.0594
15482TIP3    H167937   0.861   4.778  16.567 -0.6604  3.4668 -0.0522
15482TIP3    H267938   0.989   4.707  16.607 -2.1850  0.0460 -0.8662
15483TIP3   OH267939   4.150   6.829   5.648 -0.0504 -0.3753 -0.3334
15483TIP3    H167940   4.142   6.765   5.719 -0.1255  0.5080  0.4747
15483TIP3    H267941   4.157   6.914   5.693  0.0448  0.1866 -1.3807
15484TIP3   OH267942   0.048   3.461  12.463  0.2065 -0.8719 -0.2649
15484TIP3    H167943   0.139   3.488  12.456 -0.0163  0.2836  0.8467
15484TIP3    H267944   0.000   3.542  12.482 -0.6821 -1.7974  1.8283
15485TIP3   OH267945   3.156   2.092  11.240 -0.2966  0.0940 -0.0360
15485TIP3    H167946   3.128   2.183  11.236  0.3425  0.3058  0.0887
15485TIP3    H267947   3.130   2.062  11.327 -0.3447  0.2118 -0.0099
15486TIP3   OH267948   1.595   1.542  14.656  0.1755  0.3509 -0.1480
15486TIP3    H167949   1.551   1.625  14.640  0.2106  0.3734 -0.1286
15486TIP3    H267950   1.622   1.547  14.748  0.7090  0.5689 -0.3128
15487TIP3   OH267951   2.974   0.263  15.846 -0.9126 -0.2298  0.1414
15487TIP3    H167952   2.975   0.171  15.874 -3.1879 -0.7006 -1.1226
15487TIP3    H267953   2.915   0.265  15.771 -1.5450  2.4214  0.5958
15488TIP3   OH267954   0.175   3.774  16.370 -0.0805 -0.2925 -0.0695
15488TIP3    H167955   0.198   3.748  16.459 -0.0655 -1.2246 -0.3393
15488TIP3    H267956   0.119   3.851  16.381 -0.9974 -1.0589  0.7887
15489TIP3   OH267957   4.088   0.919  12.900  0.0801 -0.4689 -0.0976
15489TIP3    H167958   4.124   0.894  12.815  1.1823 -1.8930  0.7365
15489TIP3    H267959   4.165   0.929  12.956 -0.6930 -0.9531  1.0753
15490TIP3   OH267960   3.229   6.886  11.025 -0.2973  0.2409  0.1269
15490TIP3    H167961   3.159   6.945  10.996  0.6918  1.0071 -0.7785
15490TIP3    H267962   3.306   6.942  11.035  0.2026 -0.5822  1.1020
15491TIP3   OH267963   4.500   6.336  13.548  0.0953  0.1757  0.2037
15491TIP3    H167964   4.471   6.296  13.466  0.7787  0.8457 -0.3746
15491TIP3    H267965   4.546   6.265  13.594  1.3450  0.2852 -0.8353
15492TIP3   OH267966   2.151   2.702   5.250  0.8210  0.3719  0.1975
15492TIP3    H167967   2.141   2.721   5.343 -1.2140  1.6595 -0.2227
15492TIP3    H267968   2.070   2.734   5.210  2.4904  1.8402 -2.3082
15493TIP3   OH267969   1.751   2.496   1.827  0.6866 -0.3354 -0.4939
15493TIP3    H167970   1.814   2.482   1.897  0.6383 -0.3822 -0.4601
15493TIP3    H267971   1.666   2.501   1.871  0.5852 -1.0061 -0.6152
15494TIP3   OH267972   4.792   3.320   2.214  0.2236 -0.3146 -0.0493
15494TIP3    H167973   4.755   3.265   2.145 -0.5735  0.4033 -0.2049
15494TIP3    H267974   4.809   3.404   2.172  1.3205 -0.3785  0.2193
15495TIP3   OH267975   0.896   4.499   5.933  0.5070  0.1139 -0.5480
15495TIP3    H167976   0.889   4.545   6.016  0.4033 -1.4811  0.3508
15495TIP3    H267977   0.853   4.415   5.948  1.3660 -0.5968 -1.9137
15496TIP3   OH267978   4.619   6.436  14.656 -0.4409 -0.3294  0.0267
15496TIP3    H167979   4.549   6.500  14.657 -1.7013 -1.6498  0.6192
15496TIP3    H267980   4.585   6.364  14.603  0.5134 -0.9450  0.2149
15497TIP3   OH267981   3.610   4.102   3.524  0.3782 -0.5978  0.1608
15497TIP3    H167982   3.527   4.076   3.563 -0.4776 -0.9687 -1.7930
15497TIP3    H267983   3.651   4.020   3.497  0.0972 -0.2837 -1.3103
15498TIP3   OH267984   2.726   0.002  12.121  0.3028 -0.4482  0.3247
15498TIP3    H167985   2.773   0.028  12.200 -1.0109  1.8042  0.4343
15498TIP3    H267986   2.688   0.083  12.087 -1.1034 -1.7201 -1.3411
15499TIP3   OH267987   2.901   3.640   3.205  0.5255 -0.6413 -0.1610
15499TIP3    H167988   2.959   3.714   3.219 -0.1181 -0.4197  1.6841
15499TIP3    H267989   2.914   3.615   3.114  1.8973  0.7489 -0.3777
15500TIP3   OH267990   2.060   5.748  16.309  0.2722 -0.3080 -0.0396
15500TIP3    H167991   2.136   5.713  16.263  1.4121  1.7311  0.1902
15500TIP3    H267992   2.017   5.804  16.245 -0.0645 -0.1117  0.3568
15501TIP3   OH267993   1.698   5.845  15.968 -0.3678  0.2102 -0.0428
15501TIP3    H167994   1.740   5.912  15.914  0.0781  0.0837  0.1462
15501TIP3    H267995   1.762   5.826  16.037 -0.8228  0.1784  0.3782
15502TIP3   OH267996   5.891   0.624  12.168 -0.2198  0.7848  0.3298
15502TIP3    H167997   5.937   0.607  12.250  0.9137  1.3810 -0.1642
15502TIP3    H267998   5.919   0.712  12.142 -1.4688  1.0773 -0.1122
15503TIP3   OH267999   5.808   0.865  12.794  0.6428  0.0360  0.0965
15503TIP3    H168000   5.726   0.852  12.842 -0.4009  1.1472 -1.2768
15503TIP3    H268001   5.876   0.858  12.860 -0.7587  2.3744  1.9726
15504TIP3   OH268002   1.903   2.910  10.979  0.1066 -0.1021 -0.2123
15504TIP3    H168003   1.922   2.820  11.007  1.3362  0.3669  0.5307
15504TIP3    H268004   1.911   2.907  10.883  0.6517 -0.6759 -0.1561
15505TIP3   OH268005   3.537   3.116   1.902  0.0763  0.1385  0.1104
15505TIP3    H168006   3.532   3.080   1.991  1.6348  0.0965  0.2101
15505TIP3    H268007   3.616   3.170   1.903  0.2700 -0.1048 -1.3448
15506TIP3   OH268008   1.693   0.662  12.781 -0.4080  0.8020  0.3519
15506TIP3    H168009   1.604   0.635  12.806 -0.5113 -0.7668 -1.5218
15506TIP3    H268010   1.750   0.597  12.822 -0.1819  1.1949  0.6723
15507TIP3   OH268011   1.187   4.197   4.674  0.3842 -0.3098  0.1071
15507TIP3    H168012   1.172   4.182   4.581  1.8083 -1.7099  0.0671
15507TIP3    H268013   1.130   4.272   4.695 -0.4154 -0.3334 -1.7249
15508TIP3   OH268014   4.994   6.411  11.341  0.0625  0.1899 -0.2662
15508TIP3    H168015   4.966   6.362  11.419 -0.5256  0.5862 -0.2192
15508TIP3    H268016   5.084   6.382  11.325 -0.7337 -2.0023 -1.1114
15509TIP3   OH268017   6.646   3.184   0.267 -0.5790 -0.0468 -0.1857
15509TIP3    H168018   6.588   3.192   0.192 -0.6267 -0.9958 -0.2499
15509TIP3    H268019   6.669   3.275   0.289 -1.2376  0.2757 -0.8105
15510TIP3   OH268020   2.761   1.552   4.102  0.5585  0.2509  0.1834
15510TIP3    H168021   2.719   1.585   4.023  1.0659  0.0161 -0.1904
15510TIP3    H268022   2.854   1.565   4.087  0.8155 -1.6794 -0.1500
15511TIP3   OH268023   6.781   1.512   5.380  0.2732  0.0805  0.1246
15511TIP3    H168024   6.847   1.464   5.430  0.4679 -0.6567 -0.8251
15511TIP3    H268025   6.750   1.579   5.441  0.7284 -0.5923  1.1294
15512TIP3   OH268026   6.139   4.541   3.433  0.1325  0.6086  0.2580
15512TIP3    H168027   6.222   4.574   3.466  1.5111 -0.3303 -2.0193
15512TIP3    H268028   6.139   4.448   3.453  0.4047  0.2858 -1.1535
15513TIP3   OH268029   5.848   3.432   4.551 -0.1333  0.4395  0.1173
15513TIP3    H168030   5.765   3.443   4.504 -1.5704  0.3771  2.4665
15513TIP3    H268031   5.856   3.511   4.605  0.5440 -0.2251  1.0382
15514TIP3   OH268032   5.264   1.754   4.057 -0.2377 -0.5249  0.5546
15514TIP3    H168033   5.270   1.660   4.040  1.4550 -0.4435  0.5136
15514TIP3    H268034   5.245   1.760   4.151  0.7512 -0.9171  0.7932
15515TIP3   OH268035   0.192   3.523   4.832  0.4103 -0.1484  0.1590
15515TIP3    H168036   0.159   3.554   4.917 -0.0969  0.6943 -0.3346
15515TIP3    H268037   0.115   3.527   4.774  0.3621 -2.1464  0.0092
15516TIP3   OH268038   5.736   4.269  13.522 -0.0850 -0.0063 -0.5214
15516TIP3    H168039   5.645   4.298  13.520 -0.6997 -1.7444  0.1463
15516TIP3    H268040   5.776   4.320  13.593 -1.0628 -0.5782  0.4673
15517TIP3   OH268041   5.865   2.807   1.011  0.3176 -0.6175 -0.0208
15517TIP3    H168042   5.925   2.878   1.036  0.6864 -0.2435 -1.8167
15517TIP3    H268043   5.842   2.827   0.920 -0.5533 -2.1409 -0.1573
15518TIP3   OH268044   6.247   0.630   6.290 -0.3327  0.5855 -0.0676
15518TIP3    H168045   6.279   0.540   6.296  0.2379  0.8502  1.6775
15518TIP3    H268046   6.166   0.623   6.240 -0.1372 -0.8591 -0.2418
15519TIP3   OH268047   1.170   0.762   5.774  0.3995 -0.2846  0.0224
15519TIP3    H168048   1.195   0.809   5.694 -1.6949 -2.0736 -1.8413
15519TIP3    H268049   1.077   0.780   5.785  0.5350 -0.4980  1.8035
15520TIP3   OH268050   2.982   3.953  13.975  0.4158  1.2850  0.0825
15520TIP3    H168051   3.053   3.941  14.037 -0.5080  0.0064  0.9468
15520TIP3    H268052   2.944   4.037  13.998  2.1500  2.4206 -0.9670
15521TIP3   OH268053   2.384   5.288   5.996 -0.1307 -0.1616  0.2075
15521TIP3    H168054   2.468   5.306   5.955 -1.1362  3.1750 -0.6898
15521TIP3    H268055   2.396   5.203   6.039  3.9086  0.5022  0.7737
15522TIP3   OH268056   2.295   1.134   3.563  0.4944 -0.5975  0.2806
15522TIP3    H168057   2.271   1.109   3.474  1.1604  1.3299 -0.4946
15522TIP3    H268058   2.213   1.165   3.601  0.7073  1.3839 -0.7257
15523TIP3   OH268059   2.796   1.134  16.299  0.6299 -0.1230 -0.9476
15523TIP3    H168060   2.771   1.210  16.246  0.0218  0.6091  0.3187
15523TIP3    H268061   2.717   1.114  16.350  0.9203 -1.3518 -0.9515
15524TIP3   OH268062   1.537   4.770  15.302  0.1939  0.0079 -0.2924
15524TIP3    H168063   1.486   4.693  15.326  3.5598 -2.4359 -0.2857
15524TIP3    H268064   1.478   4.844  15.318 -2.4078 -2.3450  2.0903
15525TIP3   OH268065   3.219   2.182   5.996 -0.5961  0.0932 -0.1602
15525TIP3    H168066   3.204   2.220   6.082  2.1082  3.8730 -1.0776
15525TIP3    H268067   3.303   2.136   6.004  0.3788  1.6387 -0.9801
15526TIP3   OH268068   6.823   3.782  10.849 -0.0933  0.3336  0.2716
15526TIP3    H168069   6.894   3.795  10.786 -0.0119  1.8176  0.6311
15526TIP3    H268070   6.778   3.867  10.852 -1.2554 -0.2839  0.8127
15527TIP3   OH268071   2.813   3.974   4.595 -0.5830  0.1114 -0.3456
15527TIP3    H168072   2.815   3.905   4.660  0.9121  1.2573  0.8992
15527TIP3    H268073   2.724   4.010   4.600 -0.8625 -0.6262  0.1307
15528TIP3   OH268074   3.943   4.555   0.685  0.1925  0.0004  0.3821
15528TIP3    H168075   4.029   4.537   0.647  0.0387  0.0326  0.0134
15528TIP3    H268076   3.881   4.529   0.616 -0.1095 -0.5336  0.8428
15529TIP3   OH268077   3.853   3.818   3.194  0.3245  0.2700  0.7947
15529TIP3    H168078   3.874   3.912   3.202  0.2450  0.5169 -1.4190
15529TIP3    H268079   3.937   3.776   3.176  0.2280  0.0175  0.9244
15530TIP3   OH268080   2.145   4.613   3.078  0.1939  0.0198 -0.1635
15530TIP3    H168081   2.131   4.701   3.114 -0.6831  0.7154 -2.0938
15530TIP3    H268082   2.231   4.616   3.038  0.0058  0.1234 -0.5629
15531TIP3   OH268083   4.807   6.719  13.385 -0.1722  0.3729  0.3437
15531TIP3    H168084   4.840   6.740  13.472 -0.2400  0.6082  0.3129
15531TIP3    H268085   4.751   6.643  13.399 -0.5606  0.6990  0.5804
15532TIP3   OH268086   2.561   1.188   2.066  0.0660 -0.3406 -0.2605
15532TIP3    H168087   2.583   1.138   2.145 -1.8907 -0.9291 -0.0340
15532TIP3    H268088   2.639   1.181   2.011  0.7050 -1.6772  0.7519
15533TIP3   OH268089   1.189   6.032  12.954  0.0652 -0.5389 -0.3138
15533TIP3    H168090   1.261   5.990  13.001 -0.4657  0.6020  1.6541
15533TIP3    H268091   1.160   5.967  12.890  1.0910 -2.0365  0.6807
15534TIP3   OH268092   2.284   4.265   4.017  0.2636 -0.1120 -0.0238
15534TIP3    H168093   2.311   4.347   3.976  0.4942 -0.4195 -0.4920
15534TIP3    H268094   2.365   4.230   4.055  0.3587 -0.6018 -0.6704
15535TIP3   OH268095   1.847   0.301  14.848 -0.1844  0.1477 -0.1141
15535TIP3    H168096   1.814   0.240  14.914 -2.3159  0.4174 -0.8678
15535TIP3    H268097   1.783   0.298  14.777 -0.7621  3.6948  0.0476
15536TIP3   OH268098   2.501   6.684  12.397  0.1568 -0.3589 -0.3149
15536TIP3    H168099   2.526   6.600  12.438  2.9091  0.1369 -0.7631
15536TIP3    H268100   2.538   6.750  12.455 -1.2549  0.5578 -0.4251
15537TIP3   OH268101   1.705   2.125  12.986  0.5455 -0.4814 -0.3085
15537TIP3    H168102   1.629   2.067  12.994 -0.3382  0.2670 -2.5711
15537TIP3    H268103   1.667   2.213  12.978  1.7473  0.1191  0.3076
15538TIP3   OH268104   6.641   4.722   4.548 -0.0667 -0.1891  0.4511
15538TIP3    H168105   6.656   4.813   4.573 -2.6808  0.6834 -0.8035
15538TIP3    H268106   6.607   4.681   4.627  1.4438 -0.2322  1.1234
15539TIP3   OH268107   5.746   2.273  11.386  0.4115 -0.0051 -0.0185
15539TIP3    H168108   5.734   2.272  11.291  0.5390  1.5893 -0.0862
15539TIP3    H268109   5.722   2.362  11.412 -1.9916 -1.0544  1.7943
15540TIP3   OH268110   3.742   3.136   2.294  0.1223 -0.4783 -0.1010
15540TIP3    H168111   3.814   3.180   2.250 -0.6119  1.4370  0.4999
15540TIP3    H268112   3.782   3.094   2.371  0.5194  1.2436  0.6745
15541TIP3   OH268113   6.718   1.353   3.810 -0.1404 -0.0570 -0.1875
15541TIP3    H168114   6.811   1.338   3.791 -0.1559 -0.4661  0.0489
15541TIP3    H268115   6.719   1.415   3.884 -0.0615  0.1357 -0.3477
15542TIP3   OH268116   1.157   6.116  16.652  0.3510  0.4617 -0.4762
15542TIP3    H168117   1.218   6.051  16.685 -0.8858 -2.0297 -2.7242
15542TIP3    H268118   1.090   6.122  16.720  0.1275 -1.2051 -0.5089
15543TIP3   OH268119   0.659   1.330  11.644  0.4927 -0.2423 -0.4417
15543TIP3    H168120   0.753   1.336  11.657  0.4122 -1.9310  1.4682
15543TIP3    H268121   0.648   1.304  11.552  1.8681 -0.0007 -0.6830
15544TIP3   OH268122   3.954   2.903  12.636 -0.4774 -0.3849  0.3056
15544TIP3    H168123   3.861   2.928  12.629 -0.4389  0.5196  2.4238
15544TIP3    H268124   3.958   2.845  12.712  0.4755 -1.7830 -0.7563
15545TIP3   OH268125   5.471   6.840   3.414 -0.9694 -0.1372  0.2288
15545TIP3    H168126   5.537   6.900   3.449  1.5013 -2.7607  0.4712
15545TIP3    H268127   5.393   6.894   3.403  1.0250  3.0759  0.4193
15546TIP3   OH268128   3.324   3.962  12.130  0.4700  0.2718  0.1582
15546TIP3    H168129   3.299   3.913  12.208  1.1341  0.3445  0.4184
15546TIP3    H268130   3.341   4.050  12.162 -1.7946  1.0105 -0.4666
15547TIP3   OH268131   2.213   0.869  12.802 -0.4061 -0.1427 -0.8135
15547TIP3    H168132   2.193   0.871  12.895  0.5816  1.3335 -0.6110
15547TIP3    H268133   2.164   0.942  12.765  0.8160  0.5634 -1.0893
15548TIP3   OH268134   6.560   0.803  12.157 -0.1665  0.4993 -0.6288
15548TIP3    H168135   6.618   0.746  12.108 -0.0309  1.3815 -1.5365
15548TIP3    H268136   6.518   0.857  12.090  0.0772  1.7939  0.2326
15549TIP3   OH268137   5.682   0.074   0.379  0.3218  0.3719  0.1646
15549TIP3    H168138   5.774   0.100   0.370  0.4412 -0.3985 -1.0137
15549TIP3    H268139   5.673   0.049   0.471  1.3212  0.3551  0.2670
15550TIP3   OH268140   0.846   3.967  16.430 -0.3052 -0.1354  0.4683
15550TIP3    H168141   0.753   3.947  16.418 -0.6199  1.4895 -0.0967
15550TIP3    H268142   0.887   3.882  16.447 -1.8727 -0.8919  0.6633
15551TIP3   OH268143   1.305   6.044   4.108  0.1120  0.0865  0.0688
15551TIP3    H168144   1.355   5.971   4.145 -0.4827  0.4144  1.5611
15551TIP3    H268145   1.330   6.044   4.015  1.7244 -0.6933  0.4595
15552TIP3   OH268146   2.646   0.756  14.450  0.1596 -0.0156 -0.0093
15552TIP3    H168147   2.716   0.801  14.497 -1.2267  0.5323  1.6232
15552TIP3    H268148   2.617   0.688  14.510 -0.6092 -0.3347 -0.7341
15553TIP3   OH268149   5.690   5.028  11.867 -0.1500 -0.0524 -0.3725
15553TIP3    H168150   5.633   5.076  11.807 -3.3258 -2.7791  0.1865
15553TIP3    H268151   5.671   5.065  11.953 -1.0966 -0.9220 -0.1938
15554TIP3   OH268152   5.828   5.495  16.545 -0.6529  0.0231 -0.4617
15554TIP3    H168153   5.834   5.586  16.575  0.0460 -0.1279 -0.1359
15554TIP3    H268154   5.769   5.453  16.608 -1.0125  0.2540 -0.6386
15555TIP3   OH268155   4.326   2.694   2.482  0.1801  0.4407 -0.3806
15555TIP3    H168156   4.252   2.751   2.503 -1.4372 -0.8044 -2.2962
15555TIP3    H268157   4.322   2.684   2.387  4.4830  2.4149 -0.9833
15556TIP3   OH268158   6.677   3.919   1.137 -0.3016 -0.6137  0.2428
15556TIP3    H168159   6.668   3.931   1.232  0.8754  1.4509  0.1537
15556TIP3    H268160   6.589   3.893   1.108 -1.6566  2.0892  1.5135
15557TIP3   OH268161   0.821   5.943   0.170  0.6382  0.3796  0.0938
15557TIP3    H168162   0.857   5.864   0.212  0.2439  0.9361  1.5256
15557TIP3    H268163   0.855   5.940   0.081  0.6785 -1.3882  0.1227
15558TIP3   OH268164   2.773   5.610  14.850 -0.1882 -0.2536 -0.3540
15558TIP3    H168165   2.742   5.657  14.773 -1.4754 -0.6401 -0.1071
15558TIP3    H268166   2.751   5.667  14.923 -2.3175 -1.4007  0.0016
15559TIP3   OH268167   1.837   4.863   2.387  0.0286  0.1437  0.2952
15559TIP3    H168168   1.912   4.840   2.332 -0.4503  2.3938 -1.4634
15559TIP3    H268169   1.875   4.909   2.462  0.5103 -0.3701  0.3715
15560TIP3   OH268170   1.031   4.642   1.762 -0.5594 -0.3775 -0.1519
15560TIP3    H168171   1.089   4.716   1.780 -0.0330 -1.1343  1.3751
15560TIP3    H268172   1.058   4.611   1.675  0.3805  0.1413 -0.0530
15561TIP3   OH268173   3.121   2.876  16.892 -0.2335 -0.3840  0.5097
15561TIP3    H168174   3.200   2.828  16.919 -0.3092 -1.0779 -0.4510
15561TIP3    H268175   3.060   2.808  16.865  0.1545  0.2541 -2.2590
15562TIP3   OH268176   2.123   4.563   1.740  0.4426 -0.3337  0.4323
15562TIP3    H168177   2.184   4.495   1.768  1.2347 -0.1949 -0.8784
15562TIP3    H268178   2.097   4.537   1.651 -0.9109 -0.0432  0.7268
15563TIP3   OH268179   5.568   0.352   4.253  0.2091 -0.2374  0.0376
15563TIP3    H168180   5.593   0.346   4.345  0.3358  1.6441  0.1598
15563TIP3    H268181   5.518   0.271   4.236  1.6011 -1.4193  1.2722
15564TIP3   OH268182   4.889   2.127  12.538  0.0428 -0.0855 -0.5329
15564TIP3    H168183   4.941   2.046  12.532 -0.5590 -0.5565  0.3681
15564TIP3    H268184   4.858   2.128  12.629  0.2846  1.3185 -0.4473
15565TIP3   OH268185   2.077   3.270  11.308  0.4925  0.0616  0.1729
15565TIP3    H168186   2.138   3.272  11.381 -1.1597 -1.1913  1.6760
15565TIP3    H268187   2.098   3.189  11.261 -0.0370 -0.4012  0.7261
15566TIP3   OH268188   5.481   6.333  14.879 -0.5889 -0.2438  0.4898
15566TIP3    H168189   5.533   6.253  14.890  0.5679  0.3056 -0.7383
15566TIP3    H268190   5.400   6.315  14.928  0.1527 -1.6704  1.2833
15567TIP3   OH268191   1.704   0.866   3.887 -0.4131  0.0675  0.4352
15567TIP3    H168192   1.744   0.920   3.955 -0.5268  0.9169 -0.1659
15567TIP3    H268193   1.622   0.910   3.866 -1.0175 -0.9003  0.6598
15568TIP3   OH268194   1.714   0.199   2.906 -0.6999  0.4015  0.7409
15568TIP3    H168195   1.731   0.139   2.978  0.1040  1.5841  1.5787
15568TIP3    H268196   1.697   0.143   2.830  2.6917 -0.9457  0.8252
15569TIP3   OH268197   4.691   6.719  14.899 -0.3313  0.1714  0.1471
15569TIP3    H168198   4.704   6.688  14.988  1.2468 -0.6137 -0.3115
15569TIP3    H268199   4.749   6.796  14.892  2.0460 -1.5931 -1.0543
15570TIP3   OH268200   0.893   2.577  15.477  0.1308  0.0301  0.0226
15570TIP3    H168201   0.940   2.497  15.450  1.0051  0.5805 -0.1370
15570TIP3    H268202   0.962   2.635  15.509 -0.4968  0.7469  0.0944
15571TIP3   OH268203   3.092   4.589  13.225  0.5199  0.4875  0.2000
15571TIP3    H168204   3.089   4.553  13.136 -0.5882  1.4586 -0.1889
15571TIP3    H268205   3.049   4.524  13.279 -1.1217  0.9853 -0.4293
15572TIP3   OH268206   3.517   4.675  14.284  0.1646 -0.1611  0.2372
15572TIP3    H168207   3.527   4.739  14.213  0.6553  0.1910  0.6160
15572TIP3    H268208   3.586   4.611  14.269  0.4610  0.0771  0.5593
15573TIP3   OH268209   2.889   1.766   1.504 -0.2909 -0.1422  0.5256
15573TIP3    H168210   2.815   1.734   1.555  0.9822 -2.0373  1.2949
15573TIP3    H268211   2.963   1.764   1.565  0.3147  2.3726 -0.0035
15574TIP3   OH268212   0.388   4.645  14.343  0.3490  0.6774  0.2876
15574TIP3    H168213   0.309   4.689  14.376 -0.4158 -1.7480  1.9636
15574TIP3    H268214   0.399   4.680  14.255 -2.9713  0.7357 -0.2572
15575TIP3   OH268215   4.576   2.175  14.221  0.1848 -0.1969 -0.5819
15575TIP3    H168216   4.568   2.268  14.199 -1.8314 -0.4251 -1.0365
15575TIP3    H268217   4.511   2.132  14.166 -0.5584 -1.5750  1.2749
15576TIP3   OH268218   0.686   4.157   1.068  0.5802  0.7572 -0.4347
15576TIP3    H168219   0.748   4.097   1.109 -1.5571 -2.7127 -1.7950
15576TIP3    H268220   0.638   4.196   1.141  1.4311  0.0978  0.4997
15577TIP3   OH268221   4.665   4.204  14.005 -0.1997 -0.5249 -0.1361
15577TIP3    H168222   4.698   4.115  14.019 -0.1146 -0.6656 -1.1636
15577TIP3    H268223   4.742   4.253  13.976 -0.6842 -0.6687 -1.7945
15578TIP3   OH268224   5.520   3.677  14.699 -0.0738  0.0333  0.6020
15578TIP3    H168225   5.531   3.654  14.607 -0.9497  1.6595  0.0402
15578TIP3    H268226   5.601   3.723  14.722  0.0372 -0.1426  0.5647
15579TIP3   OH268227   4.684   3.769   0.384  0.0788 -0.0688 -0.0547
15579TIP3    H168228   4.703   3.862   0.378 -0.4715  0.1363  1.1444
15579TIP3    H268229   4.766   3.726   0.360  0.8417  0.7394  1.0255
15580TIP3   OH268230   6.689   0.442  15.114 -0.5310 -0.3615  0.1239
15580TIP3    H168231   6.649   0.528  15.099 -0.5246 -0.3596  0.1179
15580TIP3    H268232   6.627   0.396  15.169 -0.6261 -0.4230 -0.0352
15581TIP3   OH268233   0.362   0.611  13.410  0.3140  0.5908 -0.7061
15581TIP3    H168234   0.347   0.623  13.504  2.0528 -0.5741 -0.2254
15581TIP3    H268235   0.383   0.699  13.378 -1.7930  1.2811 -0.3745
15582TIP3   OH268236   0.261   1.658   4.316  0.5436 -0.0209  0.2792
15582TIP3    H168237   0.226   1.657   4.406  1.5938 -3.8720  0.8116
15582TIP3    H268238   0.204   1.599   4.267  2.0494 -0.7955 -0.6229
15583TIP3   OH268239   2.786   3.906  13.581 -0.0586 -0.0239 -0.2382
15583TIP3    H168240   2.784   3.888  13.675 -0.0466  0.5383 -0.1278
15583TIP3    H268241   2.757   3.824  13.541  2.1047 -1.0551  0.1375
15584TIP3   OH268242   1.084   5.400  14.470 -0.5175  0.0682  0.0040
15584TIP3    H168243   1.166   5.354  14.457  0.3521  1.3582  0.7160
15584TIP3    H268244   1.100   5.488  14.437 -0.9925  0.8726  1.8135
15585TIP3   OH268245   3.603   6.345  15.165  0.4933 -0.0158  0.2515
15585TIP3    H168246   3.638   6.420  15.214  0.0685 -0.7000  1.6384
15585TIP3    H268247   3.674   6.281  15.167  0.3846 -0.1385  0.1576
15586TIP3   OH268248   1.974   6.675   5.433 -0.0387  0.3691  0.1491
15586TIP3    H168249   1.917   6.712   5.365 -1.2726 -0.4840  0.6759
15586TIP3    H268250   1.916   6.664   5.509  0.9301 -0.1814  0.8268
15587TIP3   OH268251   2.629   5.815  13.293 -0.1779 -0.0797 -0.2865
15587TIP3    H168252   2.679   5.886  13.333  0.0173 -0.3762  0.0046
15587TIP3    H268253   2.542   5.852  13.277 -0.1959  0.1093  0.2242
15588TIP3   OH268254   1.622   1.181  11.087  0.4217 -0.0606  0.2478
15588TIP3    H168255   1.530   1.163  11.106  0.3076 -1.3368 -1.3099
15588TIP3    H268256   1.622   1.269  11.050  0.0287  0.4615  1.4278
15589TIP3   OH268257   5.950   5.190  15.127 -0.2355 -0.4439  0.0924
15589TIP3    H168258   5.866   5.229  15.104  0.5937  1.0163 -0.5653
15589TIP3    H268259   6.013   5.262  15.125  1.7901 -2.0466 -3.2656
15590TIP3   OH268260   4.599   2.670  11.889 -0.7817  0.1235 -0.5840
15590TIP3    H168261   4.524   2.727  11.905 -0.7147  0.2187 -0.6077
15590TIP3    H268262   4.596   2.606  11.960 -0.3039  0.7356  0.0021
15591TIP3   OH268263   3.535   0.842   0.587  0.3374  0.0064  0.1017
15591TIP3    H168264   3.462   0.781   0.585  0.1778  0.2106 -0.7154
15591TIP3    H268265   3.550   0.865   0.495  0.7335  0.7861  0.3508
15592TIP3   OH268266   4.619   1.350   5.767  0.3733  0.2676  0.3994
15592TIP3    H168267   4.603   1.443   5.752  2.3503  0.5723 -0.0132
15592TIP3    H268268   4.679   1.324   5.698  0.4529 -1.1493  0.9658
15593TIP3   OH268269   6.225   1.701  14.773  0.7827 -0.2728  0.0339
15593TIP3    H168270   6.240   1.607  14.781  2.3608 -0.1916 -1.4713
15593TIP3    H268271   6.222   1.732  14.864 -0.7245 -1.8798  0.5696
15594TIP3   OH268272   4.065   1.516   2.268 -0.3490 -0.6049  0.0649
15594TIP3    H168273   4.023   1.453   2.327  0.1237  0.3096  1.4247
15594TIP3    H268274   4.105   1.581   2.326  2.6763 -1.2325 -1.1692
15595TIP3   OH268275   0.435   3.751  16.858  1.0138  0.7628  0.0750
15595TIP3    H168276   0.344   3.765  16.885  0.6967 -2.0856  0.8231
15595TIP3    H268277   0.433   3.754  16.763 -0.0707 -0.0748  0.0516
15596TIP3   OH268278   6.574   3.671   0.104 -0.1679  0.1828  0.5467
15596TIP3    H168279   6.615   3.706   0.025  0.2472  1.5791  1.3423
15596TIP3    H268280   6.484   3.651   0.078 -0.6875  2.6927  0.2250
15597TIP3   OH268281   0.661   1.527  15.630 -0.0337  0.6172  0.9576
15597TIP3    H168282   0.749   1.566  15.633  0.3611 -0.0602 -0.9443
15597TIP3    H268283   0.661   1.463  15.701  0.4104  1.7590  2.0414
15598TIP3   OH268284   5.129   2.513  15.630 -0.2397 -0.8250 -0.0012
15598TIP3    H168285   5.108   2.604  15.654 -0.2158 -1.4055  2.4549
15598TIP3    H268286   5.210   2.520  15.579 -0.9458  0.6143 -1.0014
15599TIP3   OH268287   1.457   6.127  14.175 -0.5179 -0.3635 -0.2922
15599TIP3    H168288   1.421   6.050  14.219 -1.3700  0.6168  0.7672
15599TIP3    H268289   1.513   6.168  14.240 -0.0802 -0.0651 -0.8493
15600TIP3   OH268290   1.973   0.017   2.177 -0.5471 -0.2991  0.0431
15600TIP3    H168291   1.930  -0.051   2.229 -1.1414  0.6071  0.7523
15600TIP3    H268292   1.990   0.088   2.238  2.2503 -0.6952 -0.1334
15601TIP3   OH268293   5.154   2.588   4.612  0.1883  0.3105  0.2378
15601TIP3    H168294   5.172   2.674   4.650  0.3601 -0.7312  2.6681
15601TIP3    H268295   5.219   2.579   4.542 -0.3576  2.4405 -0.6224
15602TIP3   OH268296   0.858   4.400  15.714  0.2619  0.2798  0.1005
15602TIP3    H168297   0.922   4.337  15.680 -0.2078 -0.0216 -0.2272
15602TIP3    H268298   0.784   4.347  15.743 -0.5475  0.7286 -1.0662
15603TIP3   OH268299   6.627   4.038  13.750 -0.1760  0.4925 -0.3619
15603TIP3    H168300   6.663   3.987  13.822 -0.1738 -1.3232 -1.5724
15603TIP3    H268301   6.581   4.111  13.792  0.0519 -0.3521  1.4361
15604TIP3   OH268302   5.305   1.963   0.580 -0.1058  0.0711  0.1432
15604TIP3    H168303   5.321   1.877   0.541  0.5431 -0.2222  1.0322
15604TIP3    H268304   5.262   1.944   0.664  1.0793  0.5370  0.8829
15605TIP3   OH268305   5.747   5.946  15.809 -0.3735 -0.2270  0.2521
15605TIP3    H168306   5.738   6.032  15.769  3.7237 -0.5065 -1.8178
15605TIP3    H268307   5.774   5.889  15.737 -2.0959 -3.1384  1.7143
15606TIP3   OH268308   2.289   2.663   0.703  0.3811  0.3725  0.3695
15606TIP3    H168309   2.331   2.702   0.626 -0.6156  1.0481  0.1451
15606TIP3    H268310   2.258   2.578   0.674  2.2068 -0.4688  0.7444
15607TIP3   OH268311   1.519   5.885   4.972  0.5625  0.0064 -0.1740
15607TIP3    H168312   1.599   5.937   4.977  0.8418 -0.5275  1.6338
15607TIP3    H268313   1.448   5.948   4.985  0.6214  0.5118 -1.9763
15608TIP3   OH268314   4.275   2.768   6.105  0.5338  1.3720 -0.3074
15608TIP3    H168315   4.210   2.745   6.039 -0.7030  0.9346  1.0154
15608TIP3    H268316   4.224   2.793   6.182  1.9283  1.8342  0.5144
15609TIP3   OH268317   6.485   0.742   3.120 -0.3701  0.2570  0.4502
15609TIP3    H168318   6.554   0.713   3.061 -3.4711 -0.2027 -3.3658
15609TIP3    H268319   6.436   0.663   3.141 -0.5977  0.7569  1.9634
15610TIP3   OH268320   4.099   0.907  10.703 -0.0513 -0.2824 -0.0980
15610TIP3    H168321   4.168   0.968  10.675 -0.3532 -0.6673 -1.8189
15610TIP3    H268322   4.018   0.953  10.684 -0.2724 -0.6560 -0.0554
15611TIP3   OH268323   5.739   3.127  15.427  0.3975  0.3842 -0.1535
15611TIP3    H168324   5.680   3.193  15.464  0.1026  0.2041 -0.2913
15611TIP3    H268325   5.694   3.044  15.444  1.1829  0.1447  0.8095
15612TIP3   OH268326   4.683   5.436   1.450 -0.6917 -0.2928  0.1691
15612TIP3    H168327   4.687   5.340   1.448 -0.5008 -0.3230 -2.9481
15612TIP3    H268328   4.766   5.462   1.490 -0.6914 -1.4103  0.9506
15613TIP3   OH268329   3.554   4.412  12.576 -0.3944  0.4815 -0.2196
15613TIP3    H168330   3.530   4.486  12.521 -1.1331  0.0860 -0.4386
15613TIP3    H268331   3.512   4.429  12.660 -0.3860  0.4125 -0.2016
15614TIP3   OH268332   6.165   5.052   5.010 -0.2004 -0.4051 -0.2393
15614TIP3    H168333   6.162   4.961   4.981  1.9035 -0.4887 -0.3019
15614TIP3    H268334   6.139   5.048   5.102  1.6767 -1.3571  0.2898
15615TIP3   OH268335   2.768   5.985   0.967  0.0113 -0.1475 -0.1764
15615TIP3    H168336   2.696   5.935   1.005 -0.9178  2.0951  1.2246
15615TIP3    H268337   2.770   5.958   0.875 -3.1816  0.2410 -0.4691
15616TIP3   OH268338   4.153   5.752   5.164  0.2231 -0.3363  0.1754
15616TIP3    H168339   4.143   5.688   5.093 -0.9181  0.2371 -0.2006
15616TIP3    H268340   4.114   5.710   5.240  0.2252 -0.4135  0.1338
15617TIP3   OH268341   4.339   1.531   1.795 -0.1310  0.7638  0.2426
15617TIP3    H168342   4.353   1.568   1.707  0.4971  1.6318  0.6982
15617TIP3    H268343   4.344   1.606   1.854  1.7319 -0.0940  1.2655
15618TIP3   OH268344   5.137   6.648  14.002  0.2176  0.4115  0.0252
15618TIP3    H168345   5.061   6.670  13.947 -0.0765  0.4179  0.4355
15618TIP3    H268346   5.105   6.582  14.062  0.6183  0.2048  0.0099
15619TIP3   OH268347   6.009   4.700   4.284 -0.0347  0.4121 -0.0575
15619TIP3    H168348   6.061   4.626   4.251 -3.4114 -3.0918  1.6978
15619TIP3    H268349   6.055   4.729   4.363  0.7831 -0.5872 -0.1558
15620TIP3   OH268350   3.663   3.027   4.099  0.1549 -1.0112 -0.0509
15620TIP3    H168351   3.616   3.078   4.033  0.3866 -0.0494  0.5066
15620TIP3    H268352   3.659   3.081   4.178  0.1257 -2.0131  0.6498
15621TIP3   OH268353   2.640   1.506  10.665  0.0338  0.5552 -0.1329
15621TIP3    H168354   2.639   1.469  10.754 -0.7196 -1.2959 -0.8648
15621TIP3    H268355   2.693   1.445  10.614 -0.7849  0.7821 -1.2830
15622TIP3   OH268356   4.380   3.370   0.051  0.3067  0.1470 -0.0204
15622TIP3    H168357   4.471   3.359   0.079  0.1658 -0.2935  0.2555
15622TIP3    H268358   4.331   3.303   0.098 -0.1652  0.3841 -0.1671
15623TIP3   OH268359   3.941   6.833   5.028  0.0292 -0.1152 -0.4273
15623TIP3    H168360   3.859   6.881   5.014  0.9793  1.6710 -0.0807
15623TIP3    H268361   3.934   6.799   5.117 -0.1558  0.3680 -0.2578
15624TIP3   OH268362   5.450   4.404   4.069  0.2825  0.6151  0.3953
15624TIP3    H168363   5.430   4.464   3.997  1.4290 -1.3114 -1.6252
15624TIP3    H268364   5.366   4.391   4.113 -1.3933 -1.1613 -3.0048
15625TIP3   OH268365   4.072   0.359   0.235 -0.4659 -0.1347 -0.7385
15625TIP3    H168366   4.095   0.375   0.327 -0.0817 -1.2397 -0.6341
15625TIP3    H268367   4.030   0.274   0.235 -2.1767  0.6624 -1.3360
15626TIP3   OH268368   6.031   3.108  12.714 -0.1198  0.4745  0.4849
15626TIP3    H168369   5.977   3.043  12.758 -1.0307  0.9356  0.0715
15626TIP3    H268370   6.004   3.192  12.752 -0.0299  0.7554 -0.0536
15627TIP3   OH268371   0.169   3.480   2.735  0.6138  0.3856  0.6932
15627TIP3    H168372   0.127   3.477   2.821  0.4025  1.5383  0.6459
15627TIP3    H268373   0.097   3.469   2.673  0.8159 -0.8549  0.6481
15628TIP3   OH268374   4.096   2.280   1.719 -0.2619 -0.1972 -0.4554
15628TIP3    H168375   4.153   2.327   1.657 -0.3556  1.8106  0.8962
15628TIP3    H268376   4.142   2.286   1.803 -2.3697  1.5386  0.7040
15629TIP3   OH268377   2.446   4.717  16.034 -0.8833 -0.0188 -0.1753
15629TIP3    H168378   2.468   4.624  16.034 -0.2940  0.1119 -0.8865
15629TIP3    H268379   2.368   4.724  16.089  0.4533 -0.5900  1.8949
15630TIP3   OH268380   3.220   5.046   6.280 -0.3606  0.1770 -0.2131
15630TIP3    H168381   3.189   4.980   6.342  0.7830  0.4116  0.6279
15630TIP3    H268382   3.309   5.020   6.259 -0.7152  0.1118 -1.7840
15631TIP3   OH268383   6.723   0.374  11.465  0.4183 -0.0421 -0.4790
15631TIP3    H168384   6.729   0.436  11.537 -1.1603  0.3132 -0.6239
15631TIP3    H268385   6.793   0.310  11.482  0.0414  0.0010  1.3816
15632TIP3   OH268386   5.981   2.885   2.213  0.4926 -0.0608 -0.4448
15632TIP3    H168387   5.991   2.946   2.140 -0.3658 -0.5164 -0.9621
15632TIP3    H268388   6.040   2.918   2.280  2.1613 -0.2789 -1.7540
15633TIP3   OH268389   0.869   0.898   2.079 -0.4082 -0.2566 -0.0604
15633TIP3    H168390   0.785   0.907   2.033 -0.3306  0.1261 -0.1297
15633TIP3    H268391   0.868   0.968   2.144  0.5625  0.8018 -1.1516
15634TIP3   OH268392   2.832   5.521   2.784 -0.1085 -0.3635 -0.5568
15634TIP3    H168393   2.775   5.444   2.779 -0.8689  0.2824 -2.8227
15634TIP3    H268394   2.778   5.586   2.829  0.6906 -1.1959  1.7614
15635TIP3   OH268395   6.511   2.566   3.216 -0.2561  0.1147  0.1365
15635TIP3    H168396   6.583   2.607   3.264 -1.5008  2.1914  0.3473
15635TIP3    H268397   6.554   2.508   3.154  1.5184 -0.0589  1.4383
15636TIP3   OH268398   2.184   5.225   3.745 -0.0087  0.0811  0.4929
15636TIP3    H168399   2.276   5.217   3.718 -0.4699 -0.8001 -0.9622
15636TIP3    H268400   2.160   5.314   3.721  0.2697  0.0881  0.2297
15637TIP3   OH268401   1.753   0.334  12.513 -0.1650  0.2435 -0.2847
15637TIP3    H168402   1.788   0.424  12.513  0.2851  0.0728  0.0782
15637TIP3    H268403   1.775   0.300  12.426  2.1895 -0.4626  0.5139
15638TIP3   OH268404   4.834   4.563  12.332 -0.2679  0.1989  0.8023
15638TIP3    H168405   4.796   4.616  12.403 -0.6358  1.2266 -0.1418
15638TIP3    H268406   4.927   4.586  12.333 -0.7682  2.5936 -1.0021
15639TIP3   OH268407   1.680   5.791  11.812 -0.2324  0.4385  0.0578
15639TIP3    H168408   1.651   5.713  11.860 -2.8266  0.8753 -0.6560
15639TIP3    H268409   1.754   5.759  11.759 -1.2892 -1.5917 -0.3058
15640TIP3   OH268410   4.040   1.268   6.056 -0.3990  0.9196 -0.4367
15640TIP3    H168411   4.058   1.288   6.148  1.3155  0.2694 -0.6100
15640TIP3    H268412   3.950   1.300   6.042 -1.7610 -1.3778  2.1826
15641TIP3   OH268413   6.876   6.770  11.039  0.0106  0.4838  0.0483
15641TIP3    H168414   6.903   6.696  11.093  0.8867 -0.6691 -1.8676
15641TIP3    H268415   6.870   6.844  11.101  1.1893 -0.6912  1.6595
15642TIP3   OH268416   0.481   3.635  11.229 -0.2961  0.3532 -0.2126
15642TIP3    H168417   0.546   3.636  11.300 -0.4638  0.0031 -0.0522
15642TIP3    H268418   0.483   3.724  11.194 -0.0334  0.4620  0.0697
15643TIP3   OH268419   5.067   4.512   3.950 -0.2126 -0.1646 -0.4707
15643TIP3    H168420   5.117   4.462   4.015  1.6189  0.7761 -1.1184
15643TIP3    H268421   5.057   4.599   3.989 -0.6999 -0.1202 -0.6853
15644TIP3   OH268422   5.461   4.648   5.675 -0.6903 -0.4059  0.3538
15644TIP3    H168423   5.502   4.728   5.643 -1.8629 -0.3539 -1.1418
15644TIP3    H268424   5.436   4.601   5.595 -1.3429 -1.5664  1.2146
15645TIP3   OH268425   4.772   0.769  10.850  0.2005  0.1113  0.2240
15645TIP3    H168426   4.812   0.820  10.920  0.6004 -0.7521  0.6415
15645TIP3    H268427   4.678   0.775  10.865  0.2559  0.5190  0.4088
15646TIP3   OH268428   2.283   5.434  10.390 -0.0882 -0.5696  0.2708
15646TIP3    H168429   2.345   5.416  10.319 -0.6604 -1.7488  0.0513
15646TIP3    H268430   2.197   5.432  10.348 -0.3013  1.4459  0.4926
15647TIP3   OH268431   5.748   5.173  10.859  0.5263 -0.4754  0.5112
15647TIP3    H168432   5.807   5.214  10.921 -0.0169  0.5308  0.3845
15647TIP3    H268433   5.803   5.114  10.808  1.8162  1.7615 -0.8306
15648TIP3   OH268434   3.307   4.801   2.891  0.1831  0.1482 -0.4164
15648TIP3    H168435   3.305   4.726   2.832 -0.1012 -0.1867  0.0105
15648TIP3    H268436   3.265   4.872   2.842 -1.5036 -0.5520 -0.0522
15649TIP3   OH268437   2.095   2.112  11.922  0.0841 -0.6330  0.0783
15649TIP3    H168438   2.073   2.205  11.909  1.9438 -0.1630 -0.0122
15649TIP3    H268439   2.107   2.078  11.833  1.3785 -0.4175  0.1521
15650TIP3   OH268440   3.291   3.253   3.043 -0.1229  0.5325 -0.0525
15650TIP3    H168441   3.363   3.203   3.003  1.5552  0.6111  2.6414
15650TIP3    H268442   3.247   3.295   2.969  0.7142 -1.9052 -2.0886
15651TIP3   OH268443   3.341   3.457  15.520  0.0207  0.1148  0.8941
15651TIP3    H168444   3.381   3.416  15.444 -2.0126  0.3594 -0.3720
15651TIP3    H268445   3.381   3.544  15.525  0.8497 -0.2511  0.6817
15652TIP3   OH268446   2.497   4.028   2.097  1.3170 -0.0378  0.5343
15652TIP3    H168447   2.531   3.977   2.171  0.5666 -1.2577  0.0605
15652TIP3    H268448   2.405   4.003   2.090  0.3924  2.7089  1.3795
15653TIP3   OH268449   3.359   0.601   5.261  0.2879  0.1447 -0.3330
15653TIP3    H168450   3.319   0.612   5.347  0.0221  2.6002 -0.6756
15653TIP3    H268451   3.443   0.558   5.278 -0.1320 -0.1652  1.0374
15654TIP3   OH268452   0.162   3.641   3.951 -0.5468 -0.3530 -0.2258
15654TIP3    H168453   0.091   3.667   3.892 -0.7071  0.8899  0.4771
15654TIP3    H268454   0.242   3.667   3.906 -0.6078 -0.4645 -0.3996
15655TIP3   OH268455   3.982   6.154   0.193  0.0892 -0.0495  0.1326
15655TIP3    H168456   3.945   6.081   0.243  1.8737 -0.3921  1.0505
15655TIP3    H268457   3.951   6.140   0.104 -0.9757 -0.9715  0.6117
15656TIP3   OH268458   6.446   2.630  11.875  0.0118 -0.2312  0.8036
15656TIP3    H168459   6.370   2.666  11.829  0.0252 -1.5869 -0.3085
15656TIP3    H268460   6.481   2.705  11.924 -1.3388  0.6949  0.4167
15657TIP3   OH268461   1.063   1.009  15.387  0.4465  0.3311 -0.0042
15657TIP3    H168462   1.119   1.039  15.459 -2.3015  2.1717  1.5097
15657TIP3    H268463   1.069   1.078  15.322 -0.4916  0.8472  0.4380
15658TIP3   OH268464   2.020   4.761   2.641  0.2418 -0.5635  0.0887
15658TIP3    H168465   2.034   4.671   2.611  0.5949 -0.6619  0.5381
15658TIP3    H268466   2.078   4.770   2.717  1.6551  0.6345 -1.0753
15659TIP3   OH268467   3.719   1.324  16.157 -0.0180  0.0245 -0.4208
15659TIP3    H168468   3.763   1.360  16.080  1.9268 -1.1390  0.0553
15659TIP3    H268469   3.632   1.363  16.157  0.3950  1.0392 -2.4711
15660TIP3   OH268470   3.965   5.130   4.350 -0.0442  0.5857  0.1271
15660TIP3    H168471   3.997   5.145   4.439 -0.3489  0.4825  0.2545
15660TIP3    H268472   3.924   5.213   4.325 -0.9410  0.2688  0.5007
15661TIP3   OH268473   1.059   2.525   5.745 -0.1062  0.0632  0.2932
15661TIP3    H168474   1.148   2.493   5.731 -0.1248  0.1178  0.0427
15661TIP3    H268475   1.070   2.596   5.809 -0.0560 -0.3743  0.7739
15662TIP3   OH268476   2.593   3.118   2.753  0.3959  0.2987 -0.6021
15662TIP3    H168477   2.524   3.182   2.733  0.6034  0.0959 -2.1259
15662TIP3    H268478   2.607   3.073   2.670  1.4142 -0.5988  0.0438
15663TIP3   OH268479   1.615   4.100  13.363  0.2428  0.2418 -0.4595
15663TIP3    H168480   1.660   4.030  13.316 -0.2784 -0.2931 -0.1751
15663TIP3    H268481   1.595   4.166  13.296 -3.0439 -1.7368 -1.6522
15664TIP3   OH268482   4.488   6.177   6.260 -0.5567  0.0489 -0.5216
15664TIP3    H168483   4.427   6.109   6.231  0.0315 -0.2934 -0.9978
15664TIP3    H268484   4.552   6.183   6.189 -0.6277  1.1518 -0.5143
15665TIP3   OH268485   1.974   6.726  15.516 -0.3566  0.0242 -0.6692
15665TIP3    H168486   1.961   6.817  15.486  0.1284  0.2637 -0.1574
15665TIP3    H268487   1.891   6.683  15.495 -0.7173  0.6678 -0.6160
15666TIP3   OH268488   3.670   1.767   3.464  0.1325 -0.6678 -0.0128
15666TIP3    H168489   3.732   1.791   3.532 -0.0556 -0.1224 -0.0255
15666TIP3    H268490   3.658   1.672   3.474  0.4054 -0.6552  0.4537
15667TIP3   OH268491   1.728   4.259   0.013 -0.5238  0.2455 -0.0827
15667TIP3    H168492   1.723   4.216   0.098  0.2037  0.1730 -0.0732
15667TIP3    H268493   1.814   4.301   0.012 -0.6475  0.4976 -0.6640
15668TIP3   OH268494   4.036   1.727  11.487  0.2149 -0.3869 -0.1027
15668TIP3    H168495   4.001   1.638  11.481 -0.8613  0.0923 -1.2349
15668TIP3    H268496   4.051   1.752  11.396 -2.9026  1.8981 -0.1279
15669TIP3   OH268497   2.040   3.740  13.497  0.1327  0.5052  0.5127
15669TIP3    H168498   2.124   3.695  13.496  0.3272  0.8713 -0.4249
15669TIP3    H268499   1.984   3.689  13.439 -0.6942 -0.4369  2.0562
15670TIP3   OH268500   3.758   0.885  14.884  0.1091  0.3629  0.1372
15670TIP3    H168501   3.762   0.940  14.962  0.3659  1.3017 -0.5270
15670TIP3    H268502   3.834   0.826  14.893 -0.2829 -0.0366  0.9497
15671TIP3   OH268503   3.602   5.284   5.132  0.1802  0.4089 -0.2515
15671TIP3    H168504   3.548   5.218   5.088 -1.2929  0.7016  1.0388
15671TIP3    H268505   3.539   5.343   5.173  1.4395  0.1842  2.2090
15672TIP3   OH268506   5.085   5.105  16.952 -0.5180 -0.1534  0.6598
15672TIP3    H168507   5.040   5.185  16.924  1.5278  1.2043  1.0416
15672TIP3    H268508   5.031   5.072  17.023 -0.7705  1.6246  1.3663
15673TIP3   OH268509   0.983   0.196  13.113 -0.0953  0.2298 -0.2146
15673TIP3    H168510   1.047   0.212  13.182 -0.5448 -1.2651  0.5910
15673TIP3    H268511   0.899   0.218  13.152 -0.6122 -2.6317  0.5523
15674TIP3   OH268512   0.434   4.839   0.585 -1.0324 -0.3888  0.3029
15674TIP3    H168513   0.432   4.866   0.493 -0.7006 -1.1145  0.0822
15674TIP3    H268514   0.527   4.835   0.607 -1.1057 -0.4579  0.6060
15675TIP3   OH268515   5.641   5.952   4.772  0.3437 -0.2304 -0.8045
15675TIP3    H168516   5.615   5.917   4.857  0.0336  0.3849 -0.6396
15675TIP3    H268517   5.562   5.943   4.718  0.0048  0.9215 -0.5311
15676TIP3   OH268518   3.764   5.989   6.696  0.0735 -0.3687 -0.3728
15676TIP3    H168519   3.670   5.998   6.714  0.0400 -0.5626 -0.4467
15676TIP3    H268520   3.803   5.977   6.782 -0.0286 -0.7875 -0.3827
15677TIP3   OH268521   1.600   4.165   2.437 -0.9179  0.4961  0.3238
15677TIP3    H168522   1.547   4.097   2.480 -0.6758  0.3685  0.4257
15677TIP3    H268523   1.580   4.156   2.344  0.7002 -1.1467  0.0662
15678TIP3   OH268524   3.930   1.893   0.353 -0.1726 -0.4740 -0.3129
15678TIP3    H168525   3.890   1.905   0.439 -0.5173  2.3075 -0.7782
15678TIP3    H268526   3.989   1.818   0.364  0.8936  0.6563  2.7459
15679TIP3   OH268527   6.514   1.355  11.254 -0.5465 -0.2170 -0.1422
15679TIP3    H168528   6.499   1.379  11.345 -0.2938  1.4242 -0.4887
15679TIP3    H268529   6.551   1.267  11.257  0.2020  0.1186  1.3926
15680TIP3   OH268530   2.450   6.371  14.134 -0.5631  0.3723  0.2365
15680TIP3    H168531   2.441   6.334  14.047  0.6388 -0.3700  0.4029
15680TIP3    H268532   2.418   6.461  14.126  2.5216  1.4468 -1.8220
15681TIP3   OH268533   6.356   0.871  13.119  0.2190  0.2351  0.1782
15681TIP3    H168534   6.352   0.962  13.089  0.5359  0.5874  1.1376
15681TIP3    H268535   6.336   0.819  13.042  0.1108  1.1197 -0.4086
15682TIP3   OH268536   4.795   6.372  16.594 -0.1672  0.3200  0.4852
15682TIP3    H168537   4.791   6.417  16.678 -0.2353  0.6391  0.3103
15682TIP3    H268538   4.751   6.430  16.533  0.9072  0.6430 -0.0140
15683TIP3   OH268539   6.239   3.936  16.745  0.0528 -0.0680 -0.2970
15683TIP3    H168540   6.167   3.999  16.754  1.1319  1.0659  0.7005
15683TIP3    H268541   6.201   3.864  16.694 -1.1865  1.4332 -1.6271
15684TIP3   OH268542   5.056   2.742  16.742 -0.1098 -0.4551  0.0801
15684TIP3    H168543   4.977   2.765  16.791  0.2744 -0.5134  0.7465
15684TIP3    H268544   5.102   2.680  16.799  0.9632  0.4379  0.2212
15685TIP3   OH268545   5.373   6.614   2.440  0.1306 -0.0294 -0.3101
15685TIP3    H168546   5.448   6.556   2.428  0.0671 -0.0576 -0.5779
15685TIP3    H268547   5.325   6.608   2.358  1.0991  1.7967 -1.0777
15686TIP3   OH268548   3.925   4.024  14.774 -0.3018 -0.0169 -0.2921
15686TIP3    H168549   3.889   4.112  14.781  0.2865  0.1477  0.9780
15686TIP3    H268550   3.877   3.973  14.840 -0.3496 -0.5510 -0.7299
15687TIP3   OH268551   2.298   0.828   2.877  0.1329  0.2911 -0.2291
15687TIP3    H168552   2.342   0.809   2.961  0.4252 -1.3200 -0.7032
15687TIP3    H268553   2.326   0.757   2.820 -0.1311  1.3325 -1.6905
15688TIP3   OH268554   5.521   5.388  12.522 -0.3585  0.4834 -0.2689
15688TIP3    H168555   5.518   5.436  12.605 -1.2868  0.2514 -0.1574
15688TIP3    H268556   5.550   5.300  12.546  1.7832  1.0436 -0.5288
15689TIP3   OH268557   6.037   4.545   1.088  0.7547 -0.2276  0.1766
15689TIP3    H168558   5.976   4.548   1.015 -0.5899 -0.3593  1.2499
15689TIP3    H268559   5.999   4.480   1.148  1.8589 -0.1842  0.9498
15690TIP3   OH268560   0.469   0.410   4.189  0.1103  0.4962  0.3563
15690TIP3    H168561   0.516   0.461   4.255  1.1774 -1.0916  0.9035
15690TIP3    H268562   0.384   0.392   4.229 -1.1338  3.4884 -0.6841
15691TIP3   OH268563   3.294   3.135  16.884  0.2522 -0.1786 -0.4057
15691TIP3    H168564   3.272   3.214  16.933 -0.1818 -0.8696  0.5440
15691TIP3    H268565   3.324   3.073  16.951  0.1192 -0.9752 -1.0691
15692TIP3   OH268566   1.336   3.441   3.521  0.3734 -0.0129  0.6449
15692TIP3    H168567   1.338   3.435   3.617 -2.0790 -2.8923  0.6596
15692TIP3    H268568   1.399   3.375   3.492  2.7305  2.2928  0.1124
15693TIP3   OH268569   0.401   1.941   5.242 -0.1778 -0.1451  0.3504
15693TIP3    H168570   0.364   1.924   5.155  1.0464 -1.1468 -0.0209
15693TIP3    H268571   0.480   1.992   5.224  0.1395 -0.4550  0.8575
15694TIP3   OH268572   2.421   0.434  10.442  0.4443  0.2094  0.1630
15694TIP3    H168573   2.417   0.459  10.350 -0.4162  0.5980  0.2980
15694TIP3    H268574   2.473   0.354  10.443 -0.9642 -0.7505 -0.8687
15695TIP3   OH268575   5.321   1.574  14.723 -0.1439  0.1728  0.0448
15695TIP3    H168576   5.341   1.492  14.678 -0.1303 -0.6704  1.5006
15695TIP3    H268577   5.406   1.606  14.754  0.1066  1.7714 -2.1171
15696TIP3   OH268578   2.853   0.638   3.352 -0.4656  0.5512  0.4970
15696TIP3    H168579   2.788   0.666   3.417 -1.9809  0.0287 -0.7319
15696TIP3    H268580   2.878   0.550   3.378 -0.6467  0.5571  0.6893
15697TIP3   OH268581   1.108   1.775   3.184  0.5307  0.5909 -0.2776
15697TIP3    H168582   1.134   1.745   3.097  0.5209  2.2041 -0.8771
15697TIP3    H268583   1.039   1.839   3.168 -0.9827 -0.6101  1.0634
15698TIP3   OH268584   5.094   1.305  11.592  0.8937 -0.0212 -0.2915
15698TIP3    H168585   5.162   1.243  11.565 -0.1646 -0.9282 -1.0113
15698TIP3    H268586   5.083   1.290  11.686  2.1568  0.6362 -0.0211
15699TIP3   OH268587   6.356   5.014   3.057 -0.1063 -0.1100  0.0030
15699TIP3    H168588   6.325   5.090   3.008  1.5114  1.6031  1.4547
15699TIP3    H268589   6.276   4.968   3.084 -1.1429  1.2738 -0.5930
15700TIP3   OH268590   0.713   1.209   2.717 -0.1710 -0.2628 -0.5146
15700TIP3    H168591   0.781   1.265   2.755  0.3441 -1.3907  0.2725
15700TIP3    H268592   0.754   1.123   2.709 -0.9125 -0.5330 -1.8031
15701TIP3   OH268593   2.550   4.539   6.506 -0.3575 -0.4164  0.0538
15701TIP3    H168594   2.544   4.461   6.561 -0.1455  0.5960  1.5429
15701TIP3    H268595   2.489   4.601   6.544 -0.4753  0.1952 -1.0786
15702TIP3   OH268596   1.244   2.589   3.422  0.2367  0.0717 -0.6878
15702TIP3    H168597   1.219   2.654   3.488 -1.9015 -1.0267 -0.3109
15702TIP3    H268598   1.311   2.632   3.370  1.1369  1.4213  1.4533
15703TIP3   OH268599   4.570   3.440   4.027 -0.8301  0.2743  0.1149
15703TIP3    H168600   4.575   3.434   3.932  1.7067 -0.7002  0.2156
15703TIP3    H268601   4.646   3.493   4.051 -0.9234 -0.2383  1.6377
15704TIP3   OH268602   2.869   2.407  13.114  0.4489 -0.6023  0.9600
15704TIP3    H168603   2.959   2.399  13.083  0.0750  0.6646 -0.6266
15704TIP3    H268604   2.877   2.450  13.199  1.3145  2.1923 -0.3958
15705TIP3   OH268605   2.131   3.736  16.313  0.0425 -0.2827 -0.2552
15705TIP3    H168606   2.223   3.715  16.293  0.0475 -0.4846 -0.0243
15705TIP3    H268607   2.097   3.774  16.232  0.0781 -1.0512 -0.6383
15706TIP3   OH268608   5.775   1.017  16.344 -0.3127 -0.2277  0.2894
15706TIP3    H168609   5.746   1.097  16.388 -0.3645  1.4560 -2.5318
15706TIP3    H268610   5.705   0.997  16.281  0.7946 -1.0639 -0.7323
15707TIP3   OH268611   1.865   5.858   4.194 -0.1682  0.1546  0.2801
15707TIP3    H168612   1.802   5.900   4.253 -0.8050 -1.0334  0.4797
15707TIP3    H268613   1.812   5.823   4.123  0.2314 -0.9410  0.4923
15708TIP3   OH268614   3.930   2.523   0.397  0.3785 -0.0614 -0.3928
15708TIP3    H168615   3.900   2.447   0.446 -2.9993  0.6025 -1.1791
15708TIP3    H268616   3.970   2.487   0.318  4.8628 -1.0871  2.0133
15709TIP3   OH268617   0.099   4.798  11.644  0.3445  0.3308  0.0332
15709TIP3    H168618   0.113   4.876  11.591  0.4708 -0.2788 -0.8518
15709TIP3    H268619   0.111   4.725  11.583  0.9877 -0.3999  1.0136
15710TIP3   OH268620   2.678   5.401   4.416 -0.1297  0.0499 -0.3093
15710TIP3    H168621   2.750   5.339   4.404 -0.8343 -0.6686 -0.9521
15710TIP3    H268622   2.711   5.484   4.382  0.8943  0.0877  0.7352
15711TIP3   OH268623   5.663   1.654   5.201  0.0821 -0.2457 -0.3373
15711TIP3    H168624   5.749   1.664   5.242 -0.2627 -0.0729  0.3618
15711TIP3    H268625   5.629   1.744   5.196 -0.0560 -0.3137 -0.6089
15712TIP3   OH268626   3.838   6.499   5.085  0.2605  0.4694  0.0862
15712TIP3    H168627   3.842   6.556   5.161  3.2401  0.8556 -0.2189
15712TIP3    H268628   3.914   6.441   5.095 -0.2326 -0.5807 -1.7428
15713TIP3   OH268629   0.175   3.296   0.574 -0.0281 -0.2600 -0.4316
15713TIP3    H168630   0.259   3.330   0.543 -0.3163  2.3075  1.3779
15713TIP3    H268631   0.112   3.323   0.507  0.2727 -0.5008 -0.8197
15714TIP3   OH268632   0.357   3.164  16.166  0.2577  0.2050 -0.2585
15714TIP3    H168633   0.444   3.147  16.201  0.6120 -0.7136 -1.4957
15714TIP3    H268634   0.310   3.209  16.236  2.4869  3.0282 -0.3904
15715TIP3   OH268635   3.586   4.314   3.720 -0.3820  0.0432  0.6445
15715TIP3    H168636   3.624   4.253   3.657 -0.1163  0.1636  0.6854
15715TIP3    H268637   3.493   4.290   3.724 -0.8631  1.2798 -1.2783
15716TIP3   OH268638   3.445   4.398   4.905  0.8315  0.4933 -0.4285
15716TIP3    H168639   3.414   4.461   4.840 -0.1963 -0.2188 -0.6540
15716TIP3    H268640   3.445   4.447   4.987 -0.4185  0.6732 -0.5126
15717TIP3   OH268641   5.912   4.468  12.203 -0.2419  0.1166 -0.2662
15717TIP3    H168642   5.874   4.488  12.289  0.7981 -0.3831  0.3414
15717TIP3    H268643   5.974   4.540  12.187  2.6505 -1.7877  1.3917
15718TIP3   OH268644   4.084   2.845   2.003  0.3468 -0.1442 -0.1252
15718TIP3    H168645   3.995   2.873   2.021  0.6842  0.3521  0.8164
15718TIP3    H268646   4.087   2.833   1.908 -0.8252 -0.5525 -0.1267
15719TIP3   OH268647   6.375   4.210  16.918  0.2487  0.0067 -0.3494
15719TIP3    H168648   6.289   4.206  16.961  0.1741  0.3428 -0.4704
15719TIP3    H268649   6.436   4.177  16.984  0.1671  0.7595  0.1082
15720TIP3   OH268650   5.966   0.753   5.010 -0.0699  0.0469 -0.3399
15720TIP3    H168651   5.981   0.730   4.919  0.9000 -0.6322 -0.0203
15720TIP3    H268652   6.009   0.838   5.021 -1.9751  1.1681 -1.0176
15721TIP3   OH268653   5.585   1.574  15.452 -0.3038  0.2706  0.2452
15721TIP3    H168654   5.542   1.496  15.417 -2.6621  1.4473  0.3768
15721TIP3    H268655   5.541   1.591  15.535  1.2248  0.8996  0.9713
15722TIP3   OH268656   6.139   4.972   0.719 -0.4479 -0.0892 -0.6697
15722TIP3    H168657   6.065   4.964   0.780 -1.5472  0.5883 -1.8741
15722TIP3    H268658   6.210   5.007   0.772 -0.8591 -1.1162  0.6083
15723TIP3   OH268659   1.032   1.631  11.635  0.5512  0.2712  0.3703
15723TIP3    H168660   0.972   1.567  11.597  1.2166  0.4418 -1.0489
15723TIP3    H268661   0.980   1.712  11.640  0.1002 -0.0527  0.9392
15724TIP3   OH268662   6.485   1.611   1.179 -0.0319 -0.2872 -0.7351
15724TIP3    H168663   6.422   1.568   1.236 -0.2533  0.0650 -0.7153
15724TIP3    H268664   6.567   1.563   1.194 -0.5221 -1.4357 -1.5402
15725TIP3   OH268665   5.201   3.904   4.690 -0.5409  0.2216  0.5247
15725TIP3    H168666   5.210   3.817   4.728  0.7996  0.5923  1.1093
15725TIP3    H268667   5.172   3.888   4.600  1.4740 -0.9497  0.0193
15726TIP3   OH268668   0.376   1.933   3.468  0.3234  0.3144 -0.1816
15726TIP3    H168669   0.434   1.902   3.398  2.3689  3.0705  0.1220
15726TIP3    H268670   0.305   1.979   3.421  0.7782  0.7132 -0.4871
15727TIP3   OH268671   2.408   1.314   4.341  0.6345 -0.4984  0.7991
15727TIP3    H168672   2.469   1.387   4.351  1.0478 -0.6534 -0.4522
15727TIP3    H268673   2.353   1.318   4.420  0.9056  0.9094  0.9473
15728TIP3   OH268674   2.686   3.431   2.293  0.1285  0.1097 -0.0726
15728TIP3    H168675   2.775   3.417   2.323 -0.3006 -0.6753  0.8843
15728TIP3    H268676   2.666   3.521   2.317  0.3818  0.0301  0.4405
15729TIP3   OH268677   4.554   3.917   1.540 -0.1602  0.1662  0.0151
15729TIP3    H168678   4.510   3.994   1.503 -0.3408  0.3040  0.5178
15729TIP3    H268679   4.583   3.945   1.626  0.8254  0.0447 -0.2622
15730TIP3   OH268680   6.556   6.745  15.528 -0.2923 -0.4857  0.3250
15730TIP3    H168681   6.580   6.652  15.529 -0.5419 -0.6655  4.0720
15730TIP3    H268682   6.471   6.748  15.571 -0.4356  1.4660 -0.0379
15731TIP3   OH268683   2.680   2.580  15.214  0.4200 -1.0463  0.5830
15731TIP3    H168684   2.633   2.601  15.134  2.5951  0.2636 -0.4447
15731TIP3    H268685   2.655   2.650  15.275  1.0453 -0.2962  0.0085
15732TIP3   OH268686   1.135   4.380   1.045  0.6294 -0.1885 -1.2378
15732TIP3    H168687   1.148   4.287   1.025 -1.2102 -0.6815 -0.3333
15732TIP3    H268688   1.043   4.396   1.026  0.8321  1.3840 -1.0428
15733TIP3   OH268689   6.812   4.533   2.582  0.0833  0.2512  0.8414
15733TIP3    H168690   6.812   4.617   2.628 -3.1046  0.7689  0.1362
15733TIP3    H268691   6.837   4.555   2.492  0.3698  0.2350  0.9151
15734TIP3   OH268692   5.196   3.814  13.397  0.0104  0.4934 -0.0045
15734TIP3    H168693   5.284   3.843  13.373  0.0305  0.0897 -0.4363
15734TIP3    H268694   5.139   3.858  13.334 -0.1561  1.1477  0.5821
15735TIP3   OH268695   3.922   1.593  10.027  0.0754  0.0337  0.0275
15735TIP3    H168696   3.903   1.590  10.121 -2.2515 -1.5100 -0.4113
15735TIP3    H268697   3.942   1.503  10.003  4.9675  0.9163 -0.3395
15736TIP3   OH268698   0.681   5.264   1.563 -0.5331  0.0020  0.0421
15736TIP3    H168699   0.673   5.345   1.613  1.5450 -0.5926  1.4644
15736TIP3    H268700   0.749   5.214   1.608  0.0650 -1.4468 -2.2785
15737TIP3   OH268701   4.573   4.974   0.409  0.0102 -0.3310 -0.0492
15737TIP3    H168702   4.503   4.938   0.356  0.2152 -1.2288  0.2809
15737TIP3    H268703   4.530   5.041   0.463 -0.2838  0.2426 -0.9821
15738TIP3   OH268704   5.366   2.218  14.038  0.0442  0.1283 -0.0861
15738TIP3    H168705   5.402   2.268  13.964  0.0324  0.5435  0.1896
15738TIP3    H268706   5.404   2.258  14.116 -0.6943  0.3092  0.1870
15739TIP3   OH268707   3.034   6.548  16.197 -0.6862 -0.2859 -0.3001
15739TIP3    H168708   2.979   6.558  16.120 -0.5069 -4.1461 -1.1513
15739TIP3    H268709   2.983   6.492  16.256  1.2190 -1.7987  0.0241
15740TIP3   OH268710   3.522   5.277  12.414 -0.1720  0.9523  0.3884
15740TIP3    H168711   3.550   5.357  12.458 -1.9280  0.9868  1.5449
15740TIP3    H268712   3.509   5.302  12.323  0.2652  1.7359  0.5373
15741TIP3   OH268713   3.687   3.561   6.438  0.1007 -0.1086 -0.5589
15741TIP3    H168714   3.678   3.477   6.483 -1.4797 -1.7467 -3.5455
15741TIP3    H268715   3.778   3.563   6.408  0.6933  0.2303  1.1965
15742TIP3   OH268716   1.034   3.675  11.071  0.4232  0.5364 -0.1129
15742TIP3    H168717   1.118   3.647  11.034  0.4647  1.6267 -0.8933
15742TIP3    H268718   1.034   3.770  11.062  0.0781  0.7803  2.0184
15743TIP3   OH268719   5.109   6.578   4.662  0.1608  0.3905  0.3349
15743TIP3    H168720   5.040   6.514   4.680 -0.4158  0.5794 -1.1012
15743TIP3    H268721   5.138   6.606   4.749 -0.6896 -0.6185  0.9763
15744TIP3   OH268722   0.091   1.810  14.310  0.3916  0.4650 -0.2169
15744TIP3    H168723   0.056   1.868  14.378  0.5748  0.2443  0.0719
15744TIP3    H268724   0.035   1.825  14.234 -1.7097 -1.3991  0.8501
15745TIP3   OH268725   4.783   3.948  14.025 -0.1294  0.1210  0.0782
15745TIP3    H168726   4.775   3.882  14.094  0.4243 -0.3079 -0.2655
15745TIP3    H268727   4.842   3.909  13.961 -0.2480  0.7210 -0.4026
15746TIP3   OH268728   5.692   5.342   6.275  0.0829 -0.1894 -0.0347
15746TIP3    H168729   5.747   5.291   6.335  1.6973  0.6984 -0.6761
15746TIP3    H268730   5.627   5.385   6.331 -1.4973 -3.0497  0.5039
15747TIP3   OH268731   4.932   3.304  14.616 -0.4420  0.0687 -0.0061
15747TIP3    H168732   4.903   3.395  14.614 -1.8207 -0.3376  0.5035
15747TIP3    H268733   4.859   3.256  14.654  0.5709 -1.1518  0.4714
15748TIP3   OH268734   6.044   6.288  13.819 -0.1243  0.3929  0.4341
15748TIP3    H168735   6.051   6.262  13.728 -0.0705  0.5109  0.4044
15748TIP3    H268736   5.952   6.311  13.832 -0.4903 -1.1750  0.8205
15749TIP3   OH268737   3.535   1.568  15.027  0.1472 -0.0529 -0.3388
15749TIP3    H168738   3.453   1.608  14.999  0.7603  2.4676  1.1799
15749TIP3    H268739   3.595   1.641  15.040  2.9320 -1.8395 -2.0676
15750TIP3   OH268740   1.667   3.224  13.953 -0.3568 -0.0927  0.1957
15750TIP3    H168741   1.717   3.203  13.874  0.5413  1.0180  0.4423
15750TIP3    H268742   1.611   3.297  13.927 -1.5213 -1.0084  0.0605
15751TIP3   OH268743   0.064   2.314   3.351 -0.1287 -0.4056 -0.1621
15751TIP3    H168744   0.032   2.325   3.441 -0.9966  0.1603 -0.5270
15751TIP3    H268745  -0.015   2.313   3.298  0.4165  0.0281 -0.9963
15752TIP3   OH268746   6.565   4.294  11.764  0.1490  0.5032  0.4836
15752TIP3    H168747   6.570   4.266  11.673 -0.4853 -0.5376  0.7456
15752TIP3    H268748   6.640   4.252  11.807  0.6043  1.2112  0.3982
15753TIP3   OH268749   3.855   6.524   4.510  0.8843 -0.2125 -0.1558
15753TIP3    H168750   3.806   6.466   4.452 -0.7317  0.7924  0.1542
15753TIP3    H268751   3.863   6.476   4.592 -0.3623 -0.0550  0.0725
15754TIP3   OH268752   5.325   0.877   2.063  0.1189  0.3598 -0.1884
15754TIP3    H168753   5.334   0.868   1.968 -0.5576 -0.4503 -0.1970
15754TIP3    H268754   5.376   0.805   2.099 -1.2194 -0.5650 -0.0366
15755TIP3   OH268755   4.681   4.147  15.569  0.0770 -0.2614 -0.1161
15755TIP3    H168756   4.747   4.121  15.634  0.0183  0.2027  0.1308
15755TIP3    H268757   4.598   4.143  15.616  0.2778  2.6661  0.6523
15756TIP3   OH268758   2.726   3.214   3.372  0.2034 -0.4861  0.1992
15756TIP3    H168759   2.728   3.118   3.372  2.2654 -0.4848  0.8618
15756TIP3    H268760   2.713   3.237   3.280  1.2336 -1.4066 -0.2003
15757TIP3   OH268761   4.646   2.577   5.192  0.4987  0.2217 -0.0834
15757TIP3    H168762   4.613   2.493   5.161 -0.3628  0.6801 -0.4672
15757TIP3    H268763   4.570   2.635   5.190  0.8559  0.7711  1.0903
15758TIP3   OH268764   3.110   3.954   2.930  0.0605 -0.0726  0.2238
15758TIP3    H168765   3.180   3.888   2.924 -1.1004 -1.3828  0.4992
15758TIP3    H268766   3.071   3.956   2.843 -1.6069 -1.7562  0.8607
15759TIP3   OH268767   5.893   0.416   2.485  0.3268  0.1108  0.0633
15759TIP3    H168768   5.983   0.385   2.497  0.8110  1.6544  0.6273
15759TIP3    H268769   5.902   0.495   2.432 -0.6013  0.7798  0.8729
15760TIP3   OH268770   1.224   0.349  10.267 -0.2625  0.0119 -0.5084
15760TIP3    H168771   1.147   0.341  10.323  0.1720  0.2092  0.1362
15760TIP3    H268772   1.294   0.306  10.317  0.1427  0.2327 -0.8810
15761TIP3   OH268773   5.806   5.956  10.374  0.2688  0.0167 -0.4669
15761TIP3    H168774   5.878   5.896  10.390 -0.7630 -1.4230 -1.0065
15761TIP3    H268775   5.805   6.015  10.450  3.1184  1.2950 -1.2891
15762TIP3   OH268776   1.819   2.475   4.895 -0.3507  0.3189  0.1830
15762TIP3    H168777   1.865   2.559   4.896  0.4158 -0.0589  2.2802
15762TIP3    H268778   1.781   2.468   4.983 -1.8153 -0.7970 -0.5032
15763TIP3   OH268779   1.830   0.708  11.202 -0.3944 -0.2882  0.3646
15763TIP3    H168780   1.757   0.688  11.261 -1.6247 -0.2128 -1.0703
15763TIP3    H268781   1.831   0.635  11.140  1.2424 -0.6535  0.7713
15764TIP3   OH268782   1.482   6.553   1.395  0.5768 -0.1495  0.1451
15764TIP3    H168783   1.455   6.463   1.411  0.1515 -0.0298  0.1125
15764TIP3    H268784   1.445   6.575   1.310 -2.0019  1.0712  1.4887
15765TIP3   OH268785   6.334   3.266   5.305  0.0834  0.1195  0.3854
15765TIP3    H168786   6.279   3.205   5.255  0.3550 -0.9030  1.3219
15765TIP3    H268787   6.399   3.211   5.347  0.6584  1.1229  0.8288
15766TIP3   OH268788   2.284   3.933   0.269  0.1872 -0.8851 -0.2479
15766TIP3    H168789   2.211   3.994   0.278  0.4155 -0.6920  0.3762
15766TIP3    H268790   2.243   3.849   0.249 -0.0525 -0.2029 -3.0681
15767TIP3   OH268791   3.453   0.537  13.834  0.2338 -0.0338  0.4057
15767TIP3    H168792   3.365   0.546  13.797 -0.1134  0.5026  1.3230
15767TIP3    H268793   3.509   0.519  13.759 -0.5373  0.3905 -0.2875
15768TIP3   OH268794   6.679   4.341  14.674  0.2328 -0.0669  0.0646
15768TIP3    H168795   6.728   4.274  14.722  1.0820 -1.0618 -2.0962
15768TIP3    H268796   6.712   4.424  14.709  1.2873 -0.7573  0.7494
15769TIP3   OH268797   0.153   5.477  13.609  0.1265  0.1994  0.2606
15769TIP3    H168798   0.224   5.477  13.546  1.5106  2.8052  1.6532
15769TIP3    H268799   0.197   5.479  13.695 -1.6392 -0.0901  1.2245
15770TIP3   OH268800   5.511   6.099  15.019  0.1169  0.4233 -0.0712
15770TIP3    H168801   5.528   6.015  15.063  1.3797  1.1809  0.9740
15770TIP3    H268802   5.472   6.154  15.087 -0.9717  0.6180 -0.8266
15771TIP3   OH268803   3.884   2.372  11.512  0.0118  0.2184 -0.1757
15771TIP3    H168804   3.827   2.448  11.513 -1.0413 -0.5267 -0.6012
15771TIP3    H268805   3.918   2.365  11.601  0.4150  1.3691 -0.2198
15772TIP3   OH268806   5.325   2.776  16.069  0.1952 -0.1487  0.1156
15772TIP3    H168807   5.384   2.842  16.107 -0.2687  0.8566 -0.8299
15772TIP3    H268808   5.384   2.717  16.021  0.6168 -0.4238  0.9525
15773TIP3   OH268809   1.490   5.887   2.526  0.2139  0.8068  0.3945
15773TIP3    H168810   1.438   5.878   2.445 -2.3755  0.5704  1.9751
15773TIP3    H268811   1.525   5.976   2.522 -0.6077  1.1145 -0.6012
15774TIP3   OH268812   2.105   0.743   2.038  0.3665  0.1623  0.8459
15774TIP3    H168813   2.088   0.649   2.040  0.7112  0.1091  2.3584
15774TIP3    H268814   2.144   0.758   1.952  1.8593 -1.3761  1.1997
15775TIP3   OH268815   3.517   4.367   4.163  0.2125  0.3499 -0.2202
15775TIP3    H168816   3.572   4.316   4.223 -0.5518  2.3534  2.3009
15775TIP3    H268817   3.577   4.431   4.124  0.1597  0.9029  0.6045
15776TIP3   OH268818   3.335   2.848   0.608  0.0025  0.1073 -0.4609
15776TIP3    H168819   3.260   2.874   0.661 -0.4261 -0.9724 -0.5071
15776TIP3    H268820   3.303   2.772   0.558  0.8427  0.2074 -1.1631
15777TIP3   OH268821   1.760   3.841  16.074  0.3560 -0.0011 -0.5822
15777TIP3    H168822   1.770   3.760  16.024  1.5082 -0.0807 -0.2493
15777TIP3    H268823   1.671   3.870  16.054  0.2194 -0.8958 -1.3752
15778TIP3   OH268824   3.715   6.402   0.113 -0.2385 -0.2016 -0.4554
15778TIP3    H168825   3.790   6.420   0.056 -2.6114  1.4066 -3.3480
15778TIP3    H268826   3.648   6.366   0.055 -1.7107 -1.8927  2.0597
15779TIP3   OH268827   3.226   3.782  14.586  0.1641  0.0990 -0.2616
15779TIP3    H168828   3.246   3.746  14.673  0.7029  2.2928  0.5967
15779TIP3    H268829   3.293   3.848  14.572 -1.6747  1.9226 -0.9893
15780TIP3   OH268830   5.266   5.904   0.979 -0.2952  0.1232 -0.1753
15780TIP3    H168831   5.271   5.964   0.904  1.6420  1.1675  0.7320
15780TIP3    H268832   5.239   5.820   0.940 -3.1749  1.5057 -1.4720
15781TIP3   OH268833   2.105   6.116  16.737 -0.1357  0.2195 -0.3682
15781TIP3    H168834   2.063   6.049  16.790 -0.7796 -0.0835 -1.2500
15781TIP3    H268835   2.036   6.149  16.680 -0.0391  2.2243  0.5981
15782TIP3   OH268836   6.618   3.341  16.774  0.3715 -0.3653  0.5867
15782TIP3    H168837   6.688   3.405  16.783  0.3081 -0.3260  0.7991
15782TIP3    H268838   6.610   3.327  16.679  0.3385 -0.0084  0.5368
15783TIP3   OH268839   6.759   1.296   4.786 -0.6275  0.2401 -0.1709
15783TIP3    H168840   6.666   1.277   4.772 -0.7373 -0.3826  1.2353
15783TIP3    H268841   6.792   1.218   4.832  0.5373  0.5575 -0.4452
15784TIP3   OH268842   6.587   0.802   3.368  0.5403 -0.0406  0.5845
15784TIP3    H168843   6.634   0.877   3.333 -0.3484  0.0302 -0.5062
15784TIP3    H268844   6.545   0.762   3.291  1.4703 -2.0035  1.0333
15785TIP3   OH268845   0.349   1.761  16.783  0.0189 -0.4693 -0.5930
15785TIP3    H168846   0.283   1.810  16.833  0.2637  0.0110 -0.7299
15785TIP3    H268847   0.300   1.695  16.735 -0.5172  0.6290 -1.6079
15786TIP3   OH268848   1.947   2.441   2.029 -0.3835  0.1036 -0.9217
15786TIP3    H168849   1.996   2.359   2.036 -1.4841 -0.4172  1.4147
15786TIP3    H268850   2.013   2.509   2.040 -0.0540 -0.5849  2.5361
15787TIP3   OH268851   3.414   1.515  11.933  0.2454  0.1747 -0.7473
15787TIP3    H168852   3.414   1.598  11.981 -0.5322 -0.2040 -0.0730
15787TIP3    H268853   3.506   1.500  11.912  1.1164 -1.0817  3.2154
15788TIP3   OH268854   4.986   4.465   3.586  0.4644  0.2772  0.1057
15788TIP3    H168855   5.049   4.533   3.607  1.5781 -0.1487 -1.6337
15788TIP3    H268856   4.995   4.453   3.491 -1.9195 -0.1189 -0.1316
15789TIP3   OH268857   0.362   4.238   1.535  0.3058 -0.1496 -0.4304
15789TIP3    H168858   0.329   4.159   1.579  0.5780  1.3505  2.8033
15789TIP3    H268859   0.299   4.306   1.561  0.8384  0.9784 -1.9932
15790TIP3   OH268860   4.521   0.473  16.360 -0.6529  0.5843  0.4477
15790TIP3    H168861   4.525   0.508  16.449  0.8973  0.2084  0.5548
15790TIP3    H268862   4.524   0.550  16.304 -0.0562  0.7644  0.7156
15791TIP3   OH268863   2.440   2.828  13.258 -0.2593 -0.0747 -0.5008
15791TIP3    H168864   2.378   2.831  13.332 -1.2076  0.1376 -1.2882
15791TIP3    H268865   2.384   2.827  13.180  0.7332 -0.2648 -1.2244
15792TIP3   OH268866   5.888   4.393  10.403 -0.1179  0.3890 -0.2903
15792TIP3    H168867   5.927   4.306  10.394  1.0174  1.0817 -2.7688
15792TIP3    H268868   5.925   4.428  10.484 -1.7692 -1.9243  1.6248
15793TIP3   OH268869   6.688   0.638   5.500 -0.5542 -0.0877 -0.0928
15793TIP3    H168870   6.688   0.730   5.528  3.4558  0.3163 -0.8494
15793TIP3    H268871   6.639   0.639   5.418 -1.1852  1.2105  0.2580
15794TIP3   OH268872   2.690   2.838  15.360 -0.6397 -0.5573  0.4789
15794TIP3    H168873   2.658   2.848  15.450 -0.8747  1.3883  0.2302
15794TIP3    H268874   2.786   2.843  15.368 -0.6925  0.9077  0.5377
15795TIP3   OH268875   0.648   0.813   1.539 -0.2562  0.1076 -0.1625
15795TIP3    H168876   0.571   0.870   1.534  0.6337  1.5977  1.7588
15795TIP3    H268877   0.615   0.731   1.578 -0.7777  1.0087  1.3769
15796TIP3   OH268878   2.449   4.773  13.438  0.1713  0.5172 -0.1883
15796TIP3    H168879   2.459   4.771  13.343  3.0462 -1.9660  0.0238
15796TIP3    H268880   2.470   4.863  13.463  0.2924  0.9678 -1.8076
15797TIP3   OH268881   3.055   4.440  12.985 -0.3401 -0.0815 -0.4173
15797TIP3    H168882   3.065   4.347  13.006 -0.4209  0.2564  1.2170
15797TIP3    H268883   2.987   4.441  12.917  0.4164 -1.2770 -1.2363
15798TIP3   OH268884   0.892   2.631  11.181  0.4740 -0.0323 -0.0484
15798TIP3    H168885   0.930   2.687  11.248  1.6221  0.0527 -0.7447
15798TIP3    H268886   0.811   2.675  11.155 -0.0686 -0.1523  1.3722
15799TIP3   OH268887   1.504   6.632   5.296  0.1101 -0.5467 -0.5805
15799TIP3    H168888   1.440   6.566   5.271 -1.3692  0.8710 -0.6913
15799TIP3    H268889   1.487   6.648   5.389 -1.0760  1.2119 -1.0454
15800TIP3   OH268890   2.071   6.769   3.417 -0.0670  0.1361  0.5297
15800TIP3    H168891   2.012   6.826   3.466  1.8596  3.0834 -0.3363
15800TIP3    H268892   2.114   6.716   3.484 -1.0193  0.5374  1.5004
15801TIP3   OH268893   4.856   6.339   3.545  0.8085 -0.3429  0.3213
15801TIP3    H168894   4.835   6.310   3.456 -1.8278  0.4306  0.5954
15801TIP3    H268895   4.951   6.334   3.550  0.8862 -2.9132 -1.6523
15802TIP3   OH268896   0.697   4.901  13.802  0.0373 -0.1282 -0.4456
15802TIP3    H168897   0.707   4.943  13.887 -1.5082 -1.7929  0.6306
15802TIP3    H268898   0.703   4.973  13.738 -0.2267  1.3632  1.1435
15803TIP3   OH268899   4.969   2.022   3.825 -0.1382 -0.4613  0.1327
15803TIP3    H168900   4.969   2.094   3.888  2.6039 -1.5355  1.5246
15803TIP3    H268901   4.936   1.947   3.875  0.7065 -1.0048 -0.1132
15804TIP3   OH268902   4.703   5.321   6.493  0.5025 -0.3388  0.2427
15804TIP3    H168903   4.635   5.291   6.433  0.4741 -0.9455  0.5726
15804TIP3    H268904   4.779   5.266   6.474 -0.1441 -2.0206  2.1821
15805TIP3   OH268905   1.713   0.695  16.298  0.3077 -0.1858  0.4938
15805TIP3    H168906   1.725   0.607  16.263 -2.0995 -0.7609  0.9296
15805TIP3    H268907   1.648   0.736  16.242  1.3896  1.3771  0.2876
15806TIP3   OH268908   1.447   4.998   0.547 -0.5392  0.0726  0.1285
15806TIP3    H168909   1.490   5.042   0.474  0.4715  0.3667  0.8821
15806TIP3    H268910   1.516   4.986   0.612 -1.9674  2.5765  2.3198
15807TIP3   OH268911   1.093   1.829   2.143 -0.4142  0.2416  0.1799
15807TIP3    H168912   1.058   1.748   2.179 -3.3155  1.3268  0.0712
15807TIP3    H268913   1.161   1.801   2.081 -1.2284 -2.0578  0.2462
15808TIP3   OH268914   5.541   1.968  14.551  0.1464  0.1988 -0.4356
15808TIP3    H168915   5.616   1.910  14.541 -0.8460 -1.3267  0.4664
15808TIP3    H268916   5.516   1.959  14.643 -1.4968  0.1821 -0.8564
15809TIP3   OH268917   3.031   4.406  13.435  0.1404 -0.5273 -0.3751
15809TIP3    H168918   3.021   4.312  13.419  1.6946 -1.2889  2.4197
15809TIP3    H268919   3.002   4.418  13.525  0.7084  1.5750 -0.4185
15810TIP3   OH268920   6.406   0.442  11.167  0.1865 -0.2751  0.0847
15810TIP3    H168921   6.375   0.487  11.088 -1.1192  0.0116  0.7295
15810TIP3    H268922   6.470   0.503  11.205 -0.8573  0.6428  0.4326
15811TIP3   OH268923   3.908   2.622   4.976 -0.4138 -0.1133  0.0397
15811TIP3    H168924   3.831   2.624   5.032 -0.4341  0.6058 -0.0049
15811TIP3    H268925   3.876   2.651   4.890 -0.3928 -1.2493 -0.3666
15812TIP3   OH268926   2.842   0.545   0.140  0.4082  0.0549  0.4802
15812TIP3    H168927   2.769   0.483   0.136 -0.0481  0.6092  0.0128
15812TIP3    H268928   2.843   0.586   0.053  1.6775 -0.3905  0.2684
15813TIP3   OH268929   4.041   3.243   1.233 -0.2934 -0.2081  0.1635
15813TIP3    H168930   4.095   3.201   1.166  0.6299  1.4423 -0.1916
15813TIP3    H268931   4.038   3.335   1.207 -1.4740  0.1318  1.3888
15814TIP3   OH268932   5.945   4.464  16.394  0.4848  0.1567 -0.1338
15814TIP3    H168933   5.884   4.439  16.326  0.6239  0.5420 -0.4055
15814TIP3    H268934   6.020   4.501  16.347 -0.2255  2.2201  0.2585
15815TIP3   OH268935   2.149   2.110  12.233  0.5936  0.2988 -1.1124
15815TIP3    H168936   2.156   2.202  12.209 -0.5323  0.3778 -1.2135
15815TIP3    H268937   2.060   2.085  12.206 -0.1947 -0.0471  1.4937
15816TIP3   OH268938   0.398   0.629   4.455 -0.1999  0.1833 -0.6323
15816TIP3    H168939   0.386   0.722   4.434 -0.2913 -0.1615 -2.1908
15816TIP3    H268940   0.321   0.586   4.418 -0.8757 -0.3696  1.3081
15817TIP3   OH268941   3.658   6.605   4.013  0.1662 -0.0968 -0.5257
15817TIP3    H168942   3.702   6.685   4.044 -0.8442  0.1764  0.2652
15817TIP3    H268943   3.706   6.581   3.933  0.1529  1.6094 -1.0955
15818TIP3   OH268944   5.291   6.811   0.393 -0.0508  0.7363 -0.0887
15818TIP3    H168945   5.370   6.761   0.375 -0.4006  0.0550  0.2626
15818TIP3    H268946   5.319   6.903   0.386  0.9677  0.5203  0.8506
15819TIP3   OH268947   0.758   3.647  14.927 -0.4713 -0.6156  0.1542
15819TIP3    H168948   0.830   3.593  14.895 -1.3005 -1.2153 -0.7801
15819TIP3    H268949   0.727   3.602  15.006 -0.3415 -0.8028  0.0983
15820TIP3   OH268950   6.125   0.634   3.744  0.2440 -0.3577 -0.2558
15820TIP3    H168951   6.169   0.619   3.660  1.1089  1.0951 -0.0876
15820TIP3    H268952   6.190   0.613   3.810 -0.3020 -1.0928  0.0616
15821TIP3   OH268953   1.795   0.608   0.687  0.4125  0.6448  0.8898
15821TIP3    H168954   1.880   0.610   0.731  1.2227  2.0866 -0.6109
15821TIP3    H268955   1.779   0.700   0.664 -0.7134  0.1535 -0.3825
15822TIP3   OH268956   1.917   0.835  12.874  0.4630 -0.0897 -0.9191
15822TIP3    H168957   1.863   0.774  12.823  2.3060 -1.6351 -1.1243
15822TIP3    H268958   1.953   0.895  12.809  0.3021 -0.0835 -1.0032
15823TIP3   OH268959   1.857   4.904  12.790 -0.5425  0.0224  0.2894
15823TIP3    H168960   1.772   4.939  12.817 -0.2485  1.4181 -0.4873
15823TIP3    H268961   1.844   4.879  12.698 -0.7544 -2.0344  0.8348
15824TIP3   OH268962   1.175   0.620   0.492 -0.0949 -0.1692 -0.0226
15824TIP3    H168963   1.139   0.628   0.580  1.1089 -0.8244  0.5688
15824TIP3    H268964   1.266   0.593   0.506  0.1186 -0.3005 -1.4684
15825TIP3   OH268965   0.897   4.020   1.181 -0.4509  0.4788 -0.1269
15825TIP3    H168966   0.934   3.934   1.159 -1.8666  0.0914 -1.0915
15825TIP3    H268967   0.971   4.080   1.175  0.1843 -0.3834 -1.2866
15826TIP3   OH268968   1.249   5.805  12.784  0.2247 -0.2170 -0.3574
15826TIP3    H168969   1.342   5.831  12.781  0.2180 -0.1069  0.1902
15826TIP3    H268970   1.227   5.784  12.693  0.3900  1.1551 -0.7443
15827TIP3   OH268971   4.029   6.262  14.902  0.0788 -0.3728 -0.1996
15827TIP3    H168972   4.079   6.332  14.943  1.5996 -1.7154  0.3312
15827TIP3    H268973   4.022   6.194  14.969  0.2265 -1.4854 -1.2580
15828TIP3   OH268974   4.836   5.419   5.203 -0.2156 -0.3391  0.0868
15828TIP3    H168975   4.795   5.491   5.155 -1.4415  0.5668  2.3215
15828TIP3    H268976   4.888   5.461   5.271  1.0508 -1.5743 -0.0669
15829TIP3   OH268977   6.303   2.323   3.791  0.8278 -0.0150  0.1858
15829TIP3    H168978   6.393   2.353   3.807  1.0505 -0.3918 -0.3401
15829TIP3    H268979   6.271   2.382   3.722  0.3218  0.7575  1.0540
15830TIP3   OH268980   3.843   1.908  14.639 -0.2549  0.1693  0.3542
15830TIP3    H168981   3.758   1.928  14.678  0.0636  0.7930  0.7302
15830TIP3    H268982   3.890   1.991  14.638  0.8791 -0.4325  1.4357
15831TIP3   OH268983   5.906   1.737  14.082 -0.2727 -0.2663  0.0983
15831TIP3    H168984   5.895   1.768  14.171 -2.3367 -0.1264 -0.1750
15831TIP3    H268985   5.925   1.644  14.091  1.4462  0.1031  0.7203
15832TIP3   OH268986   0.162   5.115  11.295 -0.1412 -0.3481 -0.8692
15832TIP3    H168987   0.243   5.067  11.282 -0.0135 -0.5373  0.4254
15832TIP3    H268988   0.184   5.206  11.274  0.6895 -0.2405  0.3296
15833TIP3   OH268989   6.080   3.446  16.638  0.0473  0.3642 -0.0297
15833TIP3    H168990   6.115   3.387  16.571  1.6407 -0.3752  1.3833
15833TIP3    H268991   5.987   3.423  16.645  0.2546 -0.7526 -0.7438
15834TIP3   OH268992   3.572   1.870   6.240  0.1991  0.4810  0.2510
15834TIP3    H168993   3.631   1.883   6.315  1.9195  0.0468 -0.9760
15834TIP3    H268994   3.561   1.776   6.233 -2.6530  0.5633  1.8814
15835TIP3   OH268995   4.044   2.207  11.331 -0.5340 -0.4081  0.2659
15835TIP3    H168996   4.077   2.290  11.297 -0.5667 -0.0098  1.1901
15835TIP3    H268997   3.999   2.230  11.412 -0.2117 -1.3777  0.7318
15836TIP3   OH268998   2.488   2.603  15.781 -0.1671  0.1162 -0.3297
15836TIP3    H168999   2.502   2.611  15.686 -0.1648  0.6915 -0.2871
15836TIP3    H269000   2.440   2.682  15.805 -1.0869 -0.5270 -0.0098
15837TIP3   OH269001   6.762   1.215  10.518  0.3933  0.3201  0.1884
15837TIP3    H169002   6.680   1.194  10.564  0.6171  1.1250  0.9694
15837TIP3    H269003   6.782   1.135  10.468 -0.7527  0.0420  0.1532
15838TIP3   OH269004   5.702   1.539   4.952 -0.3082 -0.3227  0.3940
15838TIP3    H169005   5.717   1.571   5.041  1.6804  1.2217 -0.4320
15838TIP3    H269006   5.652   1.609   4.910 -1.9892 -1.4198  0.4847
15839TIP3   OH269007   6.864   0.806   5.719 -0.0945 -0.0806 -0.2908
15839TIP3    H169008   6.798   0.758   5.768 -1.1017 -1.7660 -3.0465
15839TIP3    H269009   6.814   0.867   5.665  0.9305  1.3779  0.3476
15840TIP3   OH269010   5.662   5.089   1.672 -0.4009  0.0401  0.5980
15840TIP3    H169011   5.673   5.036   1.751 -1.9518  3.0972  3.1040
15840TIP3    H269012   5.727   5.158   1.680 -0.7379  0.5339 -0.7143
15841TIP3   OH269013   3.445   0.285   4.864 -1.0088 -0.5411  0.1163
15841TIP3    H169014   3.369   0.327   4.823 -2.0330 -2.2128  0.2323
15841TIP3    H269015   3.417   0.265   4.953  0.2020  0.3935  0.7424
15842TIP3   OH269016   2.582   4.469  16.215  0.3984  0.4696 -0.5118
15842TIP3    H169017   2.610   4.556  16.243  0.3692  1.2659 -2.7673
15842TIP3    H269018   2.528   4.437  16.288  1.0706  1.9748  0.7115
15843TIP3   OH269019   2.895   2.189  12.091 -0.3920 -0.5239 -0.4935
15843TIP3    H169020   2.923   2.216  12.178 -0.2941  0.1152 -0.7099
15843TIP3    H269021   2.799   2.188  12.095 -0.3802 -2.8011  0.2753
15844TIP3   OH269022   3.113   5.329  16.886 -0.3282  0.1285  0.5417
15844TIP3    H169023   3.096   5.401  16.948 -0.5026 -0.3170  1.0216
15844TIP3    H269024   3.206   5.310  16.898 -0.2498  0.3604  0.3173
15845TIP3   OH269025   4.820   0.622  12.378  0.2697 -0.1418 -0.1536
15845TIP3    H169026   4.810   0.530  12.357 -0.1394 -0.2207  0.3630
15845TIP3    H269027   4.883   0.624  12.450 -0.9285 -0.1662  0.9399
15846TIP3   OH269028   4.154   3.759   2.714  0.3761 -0.7908  0.9010
15846TIP3    H169029   4.084   3.812   2.678  3.2335  1.5899 -1.8035
15846TIP3    H269030   4.171   3.796   2.801 -0.3647 -0.0239  0.7263
15847TIP3   OH269031   3.792   0.481   2.033 -0.9166 -0.1150 -0.1640
15847TIP3    H169032   3.777   0.517   1.946 -1.0617 -0.4791 -0.2920
15847TIP3    H269033   3.861   0.416   2.020  0.8117  1.5290  0.4169
15848TIP3   OH269034   5.396   2.708   4.407  0.6663 -0.0372 -0.0701
15848TIP3    H169035   5.393   2.700   4.311  0.2293 -1.2295  0.0317
15848TIP3    H269036   5.394   2.803   4.422  1.4435  0.1939 -1.2538
15849TIP3   OH269037   2.715   3.315   0.789 -0.3430  0.5105  0.1974
15849TIP3    H169038   2.654   3.389   0.797 -0.6986  0.1388  0.9608
15849TIP3    H269039   2.774   3.324   0.864  1.2730  1.5052 -1.1268
15850TIP3   OH269040   0.868   2.153   1.587 -0.3226 -0.2991 -0.1827
15850TIP3    H169041   0.887   2.067   1.624  3.1355 -0.2751 -1.5372
15850TIP3    H269042   0.861   2.138   1.493  0.0283  0.8627 -0.4124
15851TIP3   OH269043   1.402   5.287  10.355  0.0939 -0.0829  0.8843
15851TIP3    H169044   1.390   5.239  10.272  1.0623  3.1231 -1.3078
15851TIP3    H269045   1.313   5.298  10.389 -1.0309  2.5596 -2.3572
15852TIP3   OH269046   5.571   0.035   2.357 -0.1660 -0.7379 -0.1883
15852TIP3    H169047   5.652   0.051   2.310  0.4256  0.2520  1.1024
15852TIP3    H269048   5.597  -0.017   2.434 -0.3350  1.4614  1.4481
15853TIP3   OH269049   0.657   0.178  10.819  0.3491 -0.3254  0.5914
15853TIP3    H169050   0.750   0.190  10.799  0.5495 -2.9929 -0.4056
15853TIP3    H269051   0.652   0.093  10.862 -1.5356  0.2394  1.6087
15854TIP3   OH269052   5.604   3.383   2.437  0.5159  0.1692  0.2957
15854TIP3    H169053   5.634   3.292   2.440 -0.4531 -0.1424  1.1561
15854TIP3    H269054   5.648   3.420   2.360  1.3144 -0.8776  0.2244
15855TIP3   OH269055   0.826   0.208   2.346  0.7201  0.1531  0.0138
15855TIP3    H169056   0.896   0.273   2.350  0.5494  0.3830 -0.6814
15855TIP3    H269057   0.777   0.220   2.428  1.4623  0.0174  0.4819
15856TIP3   OH269058   2.117   3.309  15.932  0.4149 -0.4537  0.6412
15856TIP3    H169059   2.121   3.214  15.926 -0.0119 -0.6248  2.4326
15856TIP3    H269060   2.087   3.326  16.021 -2.5073  1.3176 -0.5454
15857TIP3   OH269061   3.818   3.579   1.384  0.6987  0.3528  0.8045
15857TIP3    H169062   3.778   3.529   1.313  2.3450 -0.2949  0.3023
15857TIP3    H269063   3.759   3.565   1.459  0.7971 -1.8914  0.5308
15858TIP3   OH269064   2.195   6.627   3.645 -1.0127 -0.3897 -0.0053
15858TIP3    H169065   2.281   6.588   3.630 -0.7759 -0.0701  0.5021
15858TIP3    H269066   2.196   6.653   3.737 -1.6162 -0.2946 -0.0226
15859TIP3   OH269067   4.520   5.865  14.357  0.3159  0.4137  0.5116
15859TIP3    H169068   4.599   5.914  14.336  0.9890 -1.1565 -0.8284
15859TIP3    H269069   4.551   5.788  14.404 -0.0819 -1.4523 -2.0949
15860TIP3   OH269070   6.207   5.037   1.581 -0.2107  0.0187  0.4485
15860TIP3    H169071   6.210   4.957   1.635 -2.2389 -0.6772 -0.3957
15860TIP3    H269072   6.233   5.107   1.641  1.4833 -1.2093  1.2553
15861TIP3   OH269073   6.250   3.094   3.948 -0.0935  0.4271 -0.0781
15861TIP3    H169074   6.191   3.169   3.959 -2.3643 -0.8313 -2.4876
15861TIP3    H269075   6.315   3.124   3.885 -1.3726  0.2771 -1.5392
15862TIP3   OH269076   0.353   1.352   0.289  0.8078  0.2568 -0.1946
15862TIP3    H169077   0.352   1.259   0.310  3.9429  0.0492 -0.4233
15862TIP3    H269078   0.368   1.355   0.194  0.3043  0.9952 -0.2580
15863TIP3   OH269079   1.185   5.653  12.059  1.2288  0.3255  0.4511
15863TIP3    H169080   1.249   5.658  12.131  1.1958 -1.3790  0.6318
15863TIP3    H269081   1.179   5.560  12.039 -1.1291  0.4377  0.3613
15864TIP3   OH269082   6.833   1.617  13.600 -0.3192  0.4812 -0.2721
15864TIP3    H169083   6.875   1.682  13.544  0.0685  0.1090 -0.4141
15864TIP3    H269084   6.894   1.544  13.602  0.2314  0.9222  1.5480
15865TIP3   OH269085   0.517   3.759  15.224 -0.3951  0.1483  0.0047
15865TIP3    H169086   0.586   3.799  15.171 -0.0287 -1.7323 -1.0500
15865TIP3    H269087   0.504   3.819  15.297  0.5789  1.7958 -1.1090
15866TIP3   OH269088   3.439   2.517  16.459 -0.0935 -0.3407  0.1137
15866TIP3    H169089   3.512   2.578  16.447 -0.7763  0.4048 -0.3626
15866TIP3    H269090   3.450   2.453  16.388 -0.1217  0.0026 -0.2051
15867TIP3   OH269091   6.170   1.649   3.060 -0.7796  0.4797 -0.7644
15867TIP3    H169092   6.247   1.701   3.039  0.7111 -0.9600  0.7996
15867TIP3    H269093   6.120   1.703   3.121  1.2230 -0.1718  1.5988
15868TIP3   OH269094   1.975   3.290  11.638 -0.0067 -0.8386 -0.1455
15868TIP3    H169095   1.924   3.351  11.693  1.2485 -0.5836  0.7976
15868TIP3    H269096   2.010   3.345  11.568 -0.9712 -1.0053 -0.7680
15869TIP3   OH269097   6.643   0.525  14.323  0.0332  0.3585 -0.2082
15869TIP3    H169098   6.626   0.551  14.233  2.2907 -1.1081 -1.1532
15869TIP3    H269099   6.648   0.607  14.372  0.4416  1.2730 -1.7404
15870TIP3   OH269100   1.917   3.660  12.749  0.4971 -0.5770 -0.0652
15870TIP3    H169101   1.970   3.580  12.759  0.5588 -0.5748 -0.3802
15870TIP3    H269102   1.827   3.630  12.763  0.1407 -1.3463 -3.2238
15871TIP3   OH269103   6.434   1.629  12.559  0.4025  0.0897  0.4216
15871TIP3    H169104   6.381   1.568  12.507  1.0609 -0.1567  0.0325
15871TIP3    H269105   6.524   1.608  12.535  0.6277  1.6268 -0.1834
15872TIP3   OH269106   4.706   5.837   2.856 -0.4130  0.3960  0.5045
15872TIP3    H169107   4.678   5.925   2.830  2.7737  2.2105  2.4860
15872TIP3    H269108   4.717   5.790   2.773 -2.9777  1.5090 -0.5684
15873TIP3   OH269109   6.219   0.454   5.684 -0.4159  0.2939  0.2429
15873TIP3    H169110   6.177   0.474   5.768 -1.3826 -0.6225 -0.0065
15873TIP3    H269111   6.300   0.506   5.685 -1.0433  1.2873  1.1757
15874TIP3   OH269112   0.896   5.162   0.352  0.6694  0.1597 -0.2995
15874TIP3    H169113   0.853   5.204   0.427 -0.6819 -0.8587 -0.4711
15874TIP3    H269114   0.987   5.149   0.380  0.4283  0.7015  0.7729
15875TIP3   OH269115   5.139   1.329   2.364 -0.0558  0.3377 -0.4920
15875TIP3    H169116   5.198   1.260   2.333  1.9631  1.4433  0.6885
15875TIP3    H269117   5.061   1.320   2.310  1.0533 -1.4117 -1.9080
15876TIP3   OH269118   0.132   5.018  15.172  0.2387 -0.4682  0.2861
15876TIP3    H169119   0.096   4.969  15.246  0.9710 -0.1048  0.8971
15876TIP3    H269120   0.214   5.056  15.206 -0.7830  2.0049  0.1519
15877TIP3   OH269121   5.048   6.248  16.486  0.4494 -0.7870 -0.3288
15877TIP3    H169122   5.116   6.311  16.510 -1.1178  1.1522 -0.7187
15877TIP3    H269123   4.969   6.279  16.531 -0.3042 -2.7257 -0.2265
15878TIP3   OH269124   0.361   3.822   4.891 -0.0026 -0.2925 -0.2297
15878TIP3    H169125   0.382   3.891   4.953  1.9709 -0.4443 -0.6737
15878TIP3    H269126   0.308   3.760   4.941  1.0817 -0.1432  1.1585
15879TIP3   OH269127   6.661   4.682   5.534 -0.1210 -0.2726  0.0784
15879TIP3    H169128   6.579   4.688   5.582  0.1115 -2.6356  0.9223
15879TIP3    H269129   6.635   4.663   5.444 -0.5392 -0.8944  0.3210
15880TIP3   OH269130   4.561   0.070  11.521  0.1082 -0.0007  0.7707
15880TIP3    H169131   4.552   0.025  11.437  0.5074  0.4548  0.4790
15880TIP3    H269132   4.491   0.136  11.521  0.0441 -0.0683  0.8405
15881TIP3   OH269133   2.003   6.154   2.835  0.4025  0.4524 -0.5600
15881TIP3    H169134   1.972   6.167   2.924 -0.4209  0.2985 -0.8136
15881TIP3    H269135   1.965   6.070   2.808  0.6148  0.5141 -1.0645
15882TIP3   OH269136   4.954   5.084  14.707 -0.0989  0.8827 -0.2303
15882TIP3    H169137   5.004   5.124  14.778 -0.8509  0.1971  0.7081
15882TIP3    H269138   4.870   5.062  14.746  0.1121 -1.1606 -0.8378
15883TIP3   OH269139   2.586   4.455  16.688 -0.2562 -0.8327  0.0109
15883TIP3    H169140   2.571   4.515  16.761  0.5571  1.0459 -1.2919
15883TIP3    H269141   2.508   4.462  16.634 -0.0819 -0.8105 -0.2393
15884TIP3   OH269142   4.178   3.571   0.658  0.4851  0.0120  0.3001
15884TIP3    H169143   4.233   3.629   0.711 -1.9987  2.4605  0.3992
15884TIP3    H269144   4.118   3.531   0.720 -1.1391  1.3543 -0.3529
15885TIP3   OH269145   2.739   5.785  15.327  0.2178 -0.0562  0.0883
15885TIP3    H169146   2.747   5.790  15.422  1.1663  0.9732 -0.0190
15885TIP3    H269147   2.827   5.806  15.295  0.2105 -1.5757 -0.9987
15886TIP3   OH269148   6.768   5.088   4.386 -0.0115 -0.2387 -0.2772
15886TIP3    H169149   6.842   5.048   4.340 -0.3443  0.1636 -1.2020
15886TIP3    H269150   6.808   5.138   4.457  0.5519 -0.5212 -0.3852
15887TIP3   OH269151   3.667   2.579  15.942 -0.0950  0.1394 -0.2522
15887TIP3    H169152   3.701   2.500  15.900 -0.2701 -0.3937  0.6054
15887TIP3    H269153   3.745   2.625  15.972 -0.0277 -0.0633 -0.1129
15888TIP3   OH269154   0.245   5.484   0.304  0.5285  0.4586  0.1637
15888TIP3    H169155   0.280   5.452   0.221 -0.7041  0.1480 -0.2685
15888TIP3    H269156   0.223   5.404   0.353 -0.5340  0.6178 -0.0226
15889TIP3   OH269157   0.839   4.222   0.765 -0.2002  0.4163 -0.0057
15889TIP3    H169158   0.866   4.294   0.709  1.2751 -1.4819 -1.8926
15889TIP3    H269159   0.745   4.214   0.751 -0.1602  1.1839 -0.7349
15890TIP3   OH269160   2.408   4.989   3.040 -1.1353  0.1235 -0.3124
15890TIP3    H169161   2.328   5.036   3.062 -1.0503  0.7559 -1.2945
15890TIP3    H269162   2.476   5.056   3.039 -0.8660 -0.1525 -0.9291
15891TIP3   OH269163   3.961   4.485   1.981  0.3155  0.1631  0.1284
15891TIP3    H169164   3.997   4.536   1.908  0.8756  0.1139  0.3691
15891TIP3    H269165   3.878   4.529   2.002 -0.3977 -0.4565 -1.2358
15892TIP3   OH269166   5.345   5.733   2.069 -0.1739 -0.1777 -0.0880
15892TIP3    H169167   5.407   5.661   2.083  0.0924  0.1761  0.5845
15892TIP3    H269168   5.317   5.757   2.158 -0.2917  0.5233 -0.3150
15893TIP3   OH269169   6.444   2.161   1.723 -0.2943 -0.0122  0.4397
15893TIP3    H169170   6.452   2.257   1.724 -1.4015  0.0915  0.4627
15893TIP3    H269171   6.364   2.145   1.672  0.4523 -0.9700 -0.4562
15894TIP3   OH269172   4.273   1.069  15.031  0.4722 -0.3024 -0.3143
15894TIP3    H169173   4.215   1.008  14.985 -0.6327 -1.1624  2.0350
15894TIP3    H269174   4.240   1.155  15.008  0.3785 -0.6603 -1.6134
15895TIP3   OH269175   1.613   1.018   2.391  0.3983  0.1216 -0.0831
15895TIP3    H169176   1.594   0.942   2.337  0.2769  0.8168 -1.0521
15895TIP3    H269177   1.543   1.080   2.370  0.3125  0.3808  0.9283
15896TIP3   OH269178   3.712   0.742  12.818  0.3747  0.2897  0.2433
15896TIP3    H169179   3.784   0.775  12.763 -0.1928  2.1173  0.5397
15896TIP3    H269180   3.663   0.820  12.843  0.2385 -0.5371  2.8612
15897TIP3   OH269181   6.432   4.753   5.683 -0.2174 -0.0773  0.4253
15897TIP3    H169182   6.364   4.692   5.712 -0.8770  1.2088  1.7267
15897TIP3    H269183   6.441   4.815   5.755  2.2235 -0.0696  0.2076
15898TIP3   OH269184   4.641   5.504   6.275 -0.4762  0.2250 -0.6292
15898TIP3    H169185   4.654   5.475   6.365  0.6157  0.6178 -0.6366
15898TIP3    H269186   4.719   5.472   6.228 -1.0082  0.0596 -1.4255
15899TIP3   OH269187   2.872   6.258   3.621  0.3326 -0.2185  0.3223
15899TIP3    H169188   2.903   6.237   3.709  0.1811  1.1044  0.7139
15899TIP3    H269189   2.869   6.174   3.575 -0.5239 -1.0779  1.8728
15900TIP3   OH269190   4.200   0.283   1.486 -0.6439  0.4857  0.0499
15900TIP3    H169191   4.153   0.359   1.452  0.3247  0.7480 -0.7611
15900TIP3    H269192   4.272   0.270   1.425  0.0440 -0.2086  0.9741
15901TIP3   OH269193   3.933   5.978   2.294 -0.7303 -0.1231 -0.0553
15901TIP3    H169194   3.887   6.061   2.304 -0.4942 -0.1961  2.1676
15901TIP3    H269195   3.999   5.978   2.362  2.3988 -0.2411 -2.8475
15902TIP3   OH269196   2.041   1.081  12.709 -0.3206  0.3994 -0.0323
15902TIP3    H169197   1.973   1.099  12.645  0.3022  0.1198 -0.7894
15902TIP3    H269198   2.123   1.090  12.660  0.2408  1.6412  1.0738
15903TIP3   OH269199   0.815   0.308  12.016 -0.3102 -0.0786 -0.1476
15903TIP3    H169200   0.779   0.384  11.969 -0.3099  0.1295  0.1885
15903TIP3    H269201   0.741   0.271  12.063 -0.2772 -0.1939 -0.1871
15904TIP3   OH269202   1.456   0.782   1.361 -0.0115 -0.1491 -0.8534
15904TIP3    H169203   1.475   0.783   1.455  2.3636  0.0202 -1.2676
15904TIP3    H269204   1.456   0.689   1.337  0.8611 -0.1521 -0.9019
15905TIP3   OH269205   1.627   1.628   1.100 -0.4073 -0.3812  0.5786
15905TIP3    H169206   1.552   1.676   1.064  1.3034  1.7754 -0.3155
15905TIP3    H269207   1.638   1.554   1.040  1.0916  1.9938 -2.3774
15906TIP3   OH269208   1.893   0.618  14.242  0.3714  0.4019  0.0056
15906TIP3    H169209   1.832   0.629  14.315  1.0540  0.2465  0.6099
15906TIP3    H269210   1.843   0.569  14.177  0.0036 -0.1761  0.7008
15907TIP3   OH269211   3.894   5.924  13.686 -0.0462 -0.4820 -0.0131
15907TIP3    H169212   3.873   5.988  13.618  1.7089 -0.3616 -0.4790
15907TIP3    H269213   3.844   5.954  13.762  1.0409  1.7427 -0.0792
15908TIP3   OH269214   0.463   5.080   3.676  0.4832 -0.8609  0.3875
15908TIP3    H169215   0.518   5.142   3.629 -0.9317 -0.7897 -1.2538
15908TIP3    H269216   0.437   5.015   3.611 -1.7390 -0.6267  0.9305
15909TIP3   OH269217   3.714   6.178   4.718  0.2250 -0.2304  0.0390
15909TIP3    H169218   3.651   6.239   4.679 -0.0142 -0.5989 -0.1629
15909TIP3    H269219   3.799   6.209   4.688  0.1993  0.6024  0.7536
15910TIP3   OH269220   0.819   4.403  16.154  0.1462 -0.4566  0.5637
15910TIP3    H169221   0.845   4.342  16.223  2.4460 -0.6191 -0.3830
15910TIP3    H269222   0.899   4.422  16.106 -1.0107  1.2409 -0.8436
15911TIP3   OH269223   4.560   4.633   5.590 -0.5253 -0.1337  0.1003
15911TIP3    H169224   4.616   4.615   5.514  0.4091 -2.5122  1.2648
15911TIP3    H269225   4.612   4.693   5.644 -0.2103 -0.2521 -0.0657
15912TIP3   OH269226   2.713   4.688   0.118 -0.0001 -0.4860 -0.0460
15912TIP3    H169227   2.719   4.745   0.195 -0.5870 -1.3113  0.6276
15912TIP3    H269228   2.777   4.619   0.134  3.4026  1.7609 -2.5027
15913TIP3   OH269229   5.251   2.095   2.215 -0.3516  0.7268  0.0536
15913TIP3    H169230   5.307   2.166   2.245 -0.7236  1.2488 -0.4858
15913TIP3    H269231   5.247   2.035   2.290  0.4901  0.9392  0.2806
15914TIP3   OH269232   4.149   4.395   0.968 -0.4237 -0.3041  0.0644
15914TIP3    H169233   4.240   4.366   0.973 -1.0899 -2.6521  0.0488
15914TIP3    H269234   4.147   4.477   1.017  2.0376  0.8609 -1.5823
15915TIP3   OH269235   4.230   6.605  11.449  0.1988  0.6936 -0.4805
15915TIP3    H169236   4.238   6.563  11.363  0.5971 -1.1232  0.3974
15915TIP3    H269237   4.151   6.567  11.487 -0.1861  1.7721 -0.1792
15916TIP3   OH269238   1.205   6.278  14.038  0.2681  0.4276  0.1170
15916TIP3    H169239   1.284   6.258  14.089 -0.2018 -0.9497  0.3441
15916TIP3    H269240   1.138   6.221  14.075 -0.3888  0.2630 -1.2673
15917TIP3   OH269241   2.828   5.992  13.098 -0.5279 -0.1861  0.3346
15917TIP3    H169242   2.875   5.938  13.161 -0.6389  0.5435  1.0653
15917TIP3    H269243   2.878   6.074  13.096 -0.7176 -0.0821 -0.2856
15918TIP3   OH269244   1.233   2.975  11.197 -0.7363 -0.6153 -0.3191
15918TIP3    H169245   1.249   3.062  11.234 -0.2386 -0.1314 -1.6097
15918TIP3    H269246   1.300   2.964  11.130 -2.6000 -0.6893 -2.3052
15919TIP3   OH269247   1.692   1.696  16.718  0.2329 -0.7720 -0.3028
15919TIP3    H169248   1.697   1.646  16.636  0.9063 -0.4688 -0.4546
15919TIP3    H269249   1.756   1.766  16.707 -0.0374 -0.4255  0.2829
15920TIP3   OH269250   0.402   1.592  15.805 -0.5422 -0.1743  0.4343
15920TIP3    H169251   0.495   1.582  15.784  0.0226  0.6840  2.3358
15920TIP3    H269252   0.382   1.520  15.864 -1.5000 -1.1976 -1.0754
15921TIP3   OH269253   1.065   3.007   4.962  0.0176  0.6474  0.1801
15921TIP3    H169254   1.112   3.068   4.906 -0.0488  0.2709 -0.2876
15921TIP3    H269255   1.085   3.037   5.051  0.1662  1.2125 -0.0367
15922TIP3   OH269256   3.071   2.134   0.682  0.3011 -0.7733  0.2385
15922TIP3    H169257   3.020   2.062   0.720 -1.3264  0.4141  0.4156
15922TIP3    H269258   3.134   2.090   0.624 -0.6655 -2.3442  0.3018
15923TIP3   OH269259   6.610   5.855  14.995 -0.2758  0.2851  0.1090
15923TIP3    H169260   6.577   5.850  14.905 -1.0638  0.0567  0.3972
15923TIP3    H269261   6.703   5.835  14.988 -0.3629  0.1188 -0.6386
15924TIP3   OH269262   2.642   2.334   5.122 -0.3200  0.0139  0.2884
15924TIP3    H169263   2.674   2.300   5.205 -1.1042 -2.8477 -0.4927
15924TIP3    H269264   2.570   2.276   5.098  0.6190 -0.0050 -2.9314
15925TIP3   OH269265   3.977   1.398   4.627 -0.2215 -0.0573  0.0935
15925TIP3    H169266   4.049   1.335   4.630 -0.6199 -0.4930  0.7341
15925TIP3    H269267   3.997   1.454   4.552  1.6664  0.9092  1.2732
15926TIP3   OH269268   4.963   5.334  16.828  0.4459  0.4217  0.7270
15926TIP3    H169269   5.030   5.374  16.772 -0.5062  0.5871 -0.3271
15926TIP3    H269270   4.917   5.273  16.770 -0.8436  0.9044  1.2153
15927TIP3   OH269271   4.473   2.174   0.321  0.1684  1.0436 -0.5000
15927TIP3    H169272   4.422   2.232   0.264  0.6087  1.7330 -0.2113
15927TIP3    H269273   4.507   2.232   0.389 -1.1204  0.1025  1.0234
15928TIP3   OH269274   6.858   1.015   1.910 -1.1865  0.3015  0.1674
15928TIP3    H169275   6.919   0.945   1.884 -0.9558  0.7192 -0.4427
15928TIP3    H269276   6.806   0.977   1.981 -1.0963 -0.5084 -0.1929
15929TIP3   OH269277   5.732   4.248  12.118 -0.1036  0.0275  0.5661
15929TIP3    H169278   5.718   4.342  12.131  0.0316  0.4489 -1.9376
15929TIP3    H269279   5.824   4.240  12.094 -0.3350 -0.6259 -0.1255
15930TIP3   OH269280   5.397   5.567  13.520  0.1485  0.0660  0.3489
15930TIP3    H169281   5.354   5.588  13.603 -0.9107 -2.9763  0.6918
15930TIP3    H269282   5.478   5.523  13.545  0.0925 -0.3744 -0.2115
15931TIP3   OH269283   1.073   5.528  13.214  0.2022 -0.0372  0.2721
15931TIP3    H169284   1.021   5.461  13.169  0.6025 -0.9247  1.0792
15931TIP3    H269285   1.122   5.571  13.144  0.1550 -0.7912 -0.2423
15932TIP3   OH269286   2.804   2.633  12.198  0.3163  0.0686 -0.5222
15932TIP3    H169287   2.887   2.585  12.205  0.0086 -0.3721  0.2193
15932TIP3    H269288   2.740   2.565  12.176 -0.2349  0.0140  1.1476
15933TIP3   OH269289   2.760   0.361   5.771 -0.3139  0.0787  0.1257
15933TIP3    H169290   2.723   0.358   5.859 -2.1352  2.6941 -0.4212
15933TIP3    H269291   2.848   0.396   5.784  0.2902 -1.6858  1.0525
15934TIP3   OH269292   0.446   1.503  11.441 -0.2577  0.1779 -0.3691
15934TIP3    H169293   0.413   1.581  11.484  1.3998 -0.6435  2.6782
15934TIP3    H269294   0.525   1.532  11.396  1.4393  0.0630  2.3294
15935TIP3   OH269295   2.865   5.426  13.791 -0.5583  0.0957  0.2984
15935TIP3    H169296   2.873   5.395  13.701 -0.3799  1.0526 -0.0279
15935TIP3    H269297   2.922   5.368  13.842 -1.3666 -1.0380 -0.0444
15936TIP3   OH269298   6.198   2.146  11.577  0.4731  0.3192 -0.4643
15936TIP3    H169299   6.195   2.126  11.671  1.2840  0.8263 -0.3225
15936TIP3    H269300   6.115   2.191  11.560  0.9996  1.6481  0.3662
15937TIP3   OH269301   1.744   1.462   2.971  0.6200 -0.0176 -0.0600
15937TIP3    H169302   1.754   1.455   2.876  0.2965  1.5533 -0.2317
15937TIP3    H269303   1.650   1.475   2.984  0.5547 -0.9954  0.5518
15938TIP3   OH269304   1.664   5.178  12.730  0.6221 -0.4454 -0.3970
15938TIP3    H169305   1.570   5.165  12.733  0.4464  0.8985  1.3931
15938TIP3    H269306   1.684   5.187  12.636 -1.1919  0.3772 -0.7422
15939TIP3   OH269307   1.807   4.808   6.444  0.2866 -0.3066 -0.4251
15939TIP3    H169308   1.799   4.735   6.383 -1.5877 -0.1826 -0.3903
15939TIP3    H269309   1.741   4.790   6.512  1.5786  0.1026  0.9941
15940TIP3   OH269310   6.257   0.720  12.351  0.5966  0.0387 -0.5811
15940TIP3    H169311   6.304   0.794  12.313 -0.9662  1.2883 -0.2225
15940TIP3    H269312   6.176   0.759  12.386  0.1853 -1.6868  0.5107
15941TIP3   OH269313   1.696   5.619   2.586 -0.3599 -0.1859 -0.0149
15941TIP3    H169314   1.782   5.603   2.625 -0.6599 -2.3947 -0.1844
15941TIP3    H269315   1.694   5.714   2.572  1.7253  0.0127  0.7134
15942TIP3   OH269316   1.172   1.519  12.834 -0.4345 -0.1613 -0.0325
15942TIP3    H169317   1.152   1.467  12.756  0.5731  0.8562 -1.0245
15942TIP3    H269318   1.193   1.455  12.901 -2.0441 -1.0900 -0.3621
15943TIP3   OH269319   6.781   1.370   2.510  0.0772 -0.5157  0.9464
15943TIP3    H169320   6.820   1.391   2.425  2.8414 -2.8771  1.4545
15943TIP3    H269321   6.813   1.439   2.568 -1.0452  0.5777  0.3044
15944TIP3   OH269322   1.301   6.387  11.407 -0.4584  0.4700  0.3504
15944TIP3    H169323   1.384   6.427  11.383  1.9571 -3.4788  1.1467
15944TIP3    H269324   1.274   6.433  11.487  0.1453  2.7313 -0.6870
15945TIP3   OH269325   5.722   0.447  12.437 -0.3502 -0.3792  0.1928
15945TIP3    H169326   5.802   0.397  12.423 -0.5901 -1.3364  1.9824
15945TIP3    H269327   5.752   0.529  12.478 -0.0990  0.3835 -1.4199
15946TIP3   OH269328   0.278   6.533  12.241 -0.5647 -0.2236 -0.0641
15946TIP3    H169329   0.259   6.625  12.221 -1.2074 -0.1792  0.7249
15946TIP3    H269330   0.221   6.483  12.182  0.0133 -0.1284 -0.7173
15947TIP3   OH269331   6.762   4.586   2.092  0.0040  0.2058 -0.1254
15947TIP3    H169332   6.706   4.530   2.039  0.6526 -1.2093  0.6219
15947TIP3    H269333   6.750   4.554   2.181  3.1638 -1.3352 -0.0888
15948TIP3   OH269334   3.882   3.885  13.154 -0.0256  0.0669  0.1370
15948TIP3    H169335   3.803   3.919  13.196  0.3463 -0.0012  0.8928
15948TIP3    H269336   3.851   3.848  13.071 -0.7578  0.2106  0.3451
15949TIP3   OH269337   6.769   5.192  11.951 -0.3385 -0.8039  0.2936
15949TIP3    H169338   6.843   5.161  11.900 -0.5345 -0.8325  0.0219
15949TIP3    H269339   6.787   5.163  12.040  1.2406  1.3383  0.7627
15950TIP3   OH269340   5.876   0.780  11.217  0.1227  0.1116 -0.3103
15950TIP3    H169341   5.807   0.846  11.227  0.4325  0.5612 -1.0665
15950TIP3    H269342   5.958   0.829  11.224  0.3568 -0.1816 -0.9461
15951TIP3   OH269343   5.070   2.372   3.024 -0.2426  0.1001  0.1110
15951TIP3    H169344   4.994   2.318   3.005 -1.2182  1.5996 -0.3823
15951TIP3    H269345   5.145   2.316   3.000 -1.2348 -0.6911 -1.3059
15952TIP3   OH269346   2.276   0.752  15.196  0.0239  0.4224 -0.4937
15952TIP3    H169347   2.335   0.678  15.184 -1.5321 -1.2083  1.0972
15952TIP3    H269348   2.200   0.731  15.141 -1.0540  0.0232  1.0642
15953TIP3   OH269349   2.380   2.393   1.814  0.7397 -0.1640  0.1489
15953TIP3    H169350   2.339   2.306   1.824 -0.2626  0.0078 -1.9059
15953TIP3    H269351   2.307   2.451   1.792  1.6864  0.7702 -0.6042
15954TIP3   OH269352   3.236   6.634   3.646  0.1163  0.3197 -0.2537
15954TIP3    H169353   3.158   6.675   3.610 -0.3851 -0.7325 -0.4209
15954TIP3    H269354   3.206   6.548   3.677  0.9586  0.3658  0.7778
15955TIP3   OH269355   4.847   6.578  16.254 -0.0790 -0.2590  0.3877
15955TIP3    H169356   4.839   6.482  16.255 -0.8009 -0.2683 -1.6053
15955TIP3    H269357   4.770   6.608  16.207  0.6520  1.2493  0.0895
15956TIP3   OH269358   2.471   2.604  15.473  0.2691  0.5124 -0.5738
15956TIP3    H169359   2.533   2.677  15.478  1.7275 -0.5375 -2.3055
15956TIP3    H269360   2.386   2.646  15.467  0.9060  2.0344  0.3571
15957TIP3   OH269361   3.134   4.701   1.778 -0.1287 -0.3945  0.0978
15957TIP3    H169362   3.166   4.772   1.722 -0.5679 -0.8583 -0.7536
15957TIP3    H269363   3.105   4.745   1.858  3.0058  0.0279  1.1588
15958TIP3   OH269364   2.603   1.312  13.313 -0.1599 -1.0806  0.3627
15958TIP3    H169365   2.601   1.371  13.237  0.2055 -0.5893  0.7295
15958TIP3    H269366   2.677   1.254  13.296 -0.7574 -1.7039 -0.1873
15959TIP3   OH269367   1.652   6.041   3.346  0.4044 -0.0193 -0.0405
15959TIP3    H169368   1.592   6.115   3.351  1.0842  0.5835 -0.6616
15959TIP3    H269369   1.604   5.974   3.296 -0.0903  0.1002  0.2616
15960TIP3   OH269370   5.000   3.424   2.969  0.4151  0.2075 -0.8737
15960TIP3    H169371   4.914   3.390   2.944 -0.0849  2.7709 -2.9960
15960TIP3    H269372   5.051   3.420   2.889  0.8482  2.7486 -0.7906
15961TIP3   OH269373   4.025   0.643  13.236  0.2327 -0.4564 -0.4996
15961TIP3    H169374   3.978   0.703  13.293 -1.9599 -1.1517 -1.4884
15961TIP3    H269375   3.967   0.630  13.161  3.1420  0.7611 -3.1930
15962TIP3   OH269376   6.650   3.512   2.955 -0.4248 -0.1832 -0.1382
15962TIP3    H169377   6.615   3.588   3.000 -0.7722  0.0731 -0.8302
15962TIP3    H269378   6.601   3.438   2.992  0.2520 -0.1291  0.8758
15963TIP3   OH269379   0.673   0.536   3.403  0.0178 -0.2542  0.1268
15963TIP3    H169380   0.609   0.538   3.474  1.1200 -1.3841  1.2017
15963TIP3    H269381   0.700   0.628   3.393 -0.5301 -0.0100  0.8173
15964TIP3   OH269382   1.813   2.622  13.856  0.0113  0.0291 -0.4781
15964TIP3    H169383   1.758   2.674  13.798  0.8329  0.2724 -1.0465
15964TIP3    H269384   1.767   2.538  13.864 -0.5318  0.2944 -0.8005
15965TIP3   OH269385   4.676   5.455  11.948  0.2017  0.6917 -0.3342
15965TIP3    H169386   4.680   5.421  12.037 -0.5213  4.0499  1.1443
15965TIP3    H269387   4.765   5.488  11.931 -0.1855  2.0076  0.0695
15966TIP3   OH269388   4.204   3.237   6.217  0.4945  0.1488  0.5035
15966TIP3    H169389   4.171   3.327   6.214  1.0037  0.3585  0.9303
15966TIP3    H269390   4.125   3.183   6.221  0.1792  0.5621 -0.0645
15967TIP3   OH269391   1.739   1.462   4.208  0.2480  0.4660 -0.1327
15967TIP3    H169392   1.704   1.510   4.133  1.3251  1.6548  0.1038
15967TIP3    H269393   1.812   1.411   4.172 -2.9294 -4.0162 -1.1866
15968TIP3   OH269394   5.807   6.066   4.139  0.0999  0.6662 -0.3765
15968TIP3    H169395   5.847   5.980   4.128  0.1169  0.3169  1.9049
15968TIP3    H269396   5.800   6.101   4.050  0.1910 -1.6310 -1.3654
15969TIP3   OH269397   3.753   2.772   4.134  0.3840 -0.3843  0.1541
15969TIP3    H169398   3.675   2.724   4.162  1.3213 -1.3641  1.1673
15969TIP3    H269399   3.724   2.862   4.125 -1.1036 -0.8956 -0.4756
15970TIP3   OH269400   0.168   3.228  14.680  0.2507 -0.1656  0.6796
15970TIP3    H169401   0.216   3.168  14.623  3.4016  1.6598  1.1991
15970TIP3    H269402   0.234   3.288  14.713 -2.5733  3.1579  0.8065
15971TIP3   OH269403   0.321   1.057  13.953  0.5310  0.0798  0.3640
15971TIP3    H169404   0.236   1.017  13.938  0.8373  0.0480 -1.5885
15971TIP3    H269405   0.373   0.989  13.995 -0.3723  0.1086  1.5989
15972TIP3   OH269406   0.229   0.120   1.222  0.2266  0.2410 -0.1880
15972TIP3    H169407   0.320   0.090   1.234 -0.5464 -1.8250  1.0528
15972TIP3    H269408   0.196   0.065   1.151 -0.3187  0.3577 -0.0278
15973TIP3   OH269409   0.116   2.821   2.425 -0.1679  0.3105 -0.2128
15973TIP3    H169410   0.102   2.899   2.477 -0.1037  1.0370 -1.2478
15973TIP3    H269411   0.085   2.749   2.480 -2.0857  1.2358 -0.0046
15974TIP3   OH269412   6.383   3.861  15.569  1.0444  0.0739  0.3905
15974TIP3    H169413   6.335   3.936  15.534 -0.6877 -0.5894  1.2318
15974TIP3    H269414   6.443   3.899  15.633 -0.1658  0.7325  1.1671
15975TIP3   OH269415   2.992   3.991  12.846 -0.3695 -0.2709 -0.2237
15975TIP3    H169416   2.982   3.948  12.931 -2.0592  1.3612  0.4616
15975TIP3    H269417   3.067   4.049  12.857 -0.8233  0.2254  0.3016
15976TIP3   OH269418   2.973   6.723  12.036  0.1148  0.5511  0.6538
15976TIP3    H169419   2.892   6.773  12.049 -0.9663  0.0847 -3.0844
15976TIP3    H269420   2.947   6.647  11.985  3.0595  1.1476 -2.0448
15977TIP3   OH269421   5.613   4.228   6.326  0.3303 -0.0689  0.3828
15977TIP3    H169422   5.540   4.285   6.351  0.9123  0.7592  0.2498
15977TIP3    H269423   5.688   4.262   6.374  0.6281 -0.9397  0.5527
15978TIP3   OH269424   2.531   1.337   3.006  0.6883  0.4850  0.9413
15978TIP3    H169425   2.510   1.429   3.015  1.2481  0.4788  2.7146
15978TIP3    H269426   2.479   1.294   3.074  0.2345 -0.5512 -0.0298
15979TIP3   OH269427   2.447   5.798  16.271  0.1324 -0.1175 -0.2196
15979TIP3    H169428   2.438   5.754  16.356 -0.4120 -1.1102 -0.7724
15979TIP3    H269429   2.393   5.746  16.211  0.2297  0.7647 -1.1102
15980TIP3   OH269430   0.724   3.932  15.101 -0.1437 -0.3903 -0.3636
15980TIP3    H169431   0.794   3.885  15.147  0.7063  0.1486 -1.0906
15980TIP3    H269432   0.739   4.024  15.122 -1.4381 -0.3558  0.5487
15981TIP3   OH269433   2.243   3.393   5.246  0.0357  0.0730 -0.8319
15981TIP3    H169434   2.254   3.306   5.285  0.5178  0.6022  0.2507
15981TIP3    H269435   2.316   3.401   5.185  0.1876 -0.1408 -0.6793
15982TIP3   OH269436   2.185   3.925   5.709  0.0425  0.4571 -0.1894
15982TIP3    H169437   2.100   3.900   5.674  0.6274 -0.7055 -0.8435
15982TIP3    H269438   2.211   3.852   5.765  1.0985  0.2736 -0.8869
15983TIP3   OH269439   0.987   4.664  13.988  0.4202 -0.7286  0.5456
15983TIP3    H169440   0.963   4.614  13.910 -0.2052 -0.7899  0.7777
15983TIP3    H269441   0.978   4.602  14.060 -0.9181 -0.1463  0.9096
15984TIP3   OH269442   3.094   0.697   1.029 -0.8249  0.1059  0.3807
15984TIP3    H169443   3.039   0.776   1.029 -1.8647 -0.4870  3.0001
15984TIP3    H269444   3.180   0.728   1.002 -1.4673  1.9283  0.2691
15985TIP3   OH269445   1.860   1.166  13.345 -0.0474 -0.1012 -0.4700
15985TIP3    H169446   1.912   1.087  13.356  1.3446  0.6608 -1.3218
15985TIP3    H269447   1.790   1.141  13.284 -1.5302 -1.4826  1.6772
15986TIP3   OH269448   2.597   6.617  16.472 -0.0622 -0.4675  0.0554
15986TIP3    H169449   2.594   6.534  16.518 -1.1704  0.2213  1.2986
15986TIP3    H269450   2.524   6.613  16.410 -2.2734  0.7877  2.4096
15987TIP3   OH269451   1.468   3.867  13.890  0.1415  0.1638  0.2897
15987TIP3    H169452   1.503   3.955  13.907  1.1724 -0.3029  0.6523
15987TIP3    H269453   1.521   3.809  13.945  1.1381 -0.9807 -1.7446
15988TIP3   OH269454   6.851   2.535  16.565 -0.3732  0.0940  0.3178
15988TIP3    H169455   6.880   2.493  16.646  0.9170 -0.1273 -0.2365
15988TIP3    H269456   6.931   2.567  16.524 -0.8729 -0.7676 -1.4186
15989TIP3   OH269457   5.445   0.045   1.955  0.4932 -0.5669  0.2621
15989TIP3    H169458   5.386   0.068   1.883  0.7696  1.2680  0.5728
15989TIP3    H269459   5.397   0.069   2.034 -0.2941 -3.6429  0.8571
15990TIP3   OH269460   1.339   5.916   2.304 -0.4008  0.2954 -0.0799
15990TIP3    H169461   1.315   5.895   2.214 -0.4223  0.8484 -0.2063
15990TIP3    H269462   1.308   6.005   2.318 -0.2108  0.2923  0.4082
15991TIP3   OH269463   3.696   0.932   4.607  0.3100 -0.5437 -0.3591
15991TIP3    H169464   3.742   1.008   4.572  1.7632 -1.2783 -0.1453
15991TIP3    H269465   3.653   0.964   4.686  2.4540 -0.3031  0.7833
15992TIP3   OH269466   1.164   1.409  11.323  0.3852  0.5757  0.1741
15992TIP3    H169467   1.233   1.436  11.262  1.0267 -2.8047 -0.8145
15992TIP3    H269468   1.211   1.384  11.402 -0.2484  2.6652  1.3043
15993TIP3   OH269469   0.411   3.548   5.069 -0.7804  0.4502 -0.1900
15993TIP3    H169470   0.371   3.618   5.121  0.1654  2.4511 -1.9973
15993TIP3    H269471   0.475   3.593   5.014  0.4080 -1.9809 -0.9148
15994TIP3   OH269472   5.579   0.359  13.535  0.6188  0.0114  0.2330
15994TIP3    H169473   5.565   0.274  13.577  0.8582 -0.5134 -0.7058
15994TIP3    H269474   5.513   0.362  13.465 -0.7948  1.5268  1.5555
15995TIP3   OH269475   5.966   5.408   0.469 -0.0393  0.1087  0.1045
15995TIP3    H169476   6.011   5.382   0.549  0.0431 -2.1459 -0.6247
15995TIP3    H269477   5.971   5.504   0.469  1.4737  0.0791  1.8952
15996TIP3   OH269478   0.733   6.200   2.724  0.5287  0.2121 -0.2691
15996TIP3    H169479   0.647   6.231   2.752  0.4293  0.9549 -1.3282
15996TIP3    H269480   0.746   6.240   2.638  1.9671  0.1662 -0.0985
15997TIP3   OH269481   4.165   5.856  13.906  0.0283  0.2176 -0.6517
15997TIP3    H169482   4.241   5.815  13.948  0.0777  1.3993  0.4339
15997TIP3    H269483   4.095   5.850  13.971  0.1726  2.2766 -0.2456
15998TIP3   OH269484   3.166   0.579  14.635  0.0484 -0.3021  0.1385
15998TIP3    H169485   3.189   0.651  14.693 -1.6568  1.6020 -1.4166
15998TIP3    H269486   3.193   0.608  14.548 -0.7393 -1.4939 -0.5386
15999TIP3   OH269487   2.660   1.386   0.231 -0.3167  0.4935  0.6920
15999TIP3    H169488   2.614   1.463   0.197 -1.3810 -1.3229 -2.5120
15999TIP3    H269489   2.753   1.407   0.220 -0.5821  1.4292  0.0813
16000TIP3   OH269490   2.993   1.120   5.638 -0.1335 -0.3953  0.6528
16000TIP3    H169491   2.911   1.149   5.598  0.2098 -0.1225  0.1331
16000TIP3    H269492   3.050   1.197   5.634  0.7143 -1.0444 -0.5279
16001TIP3   OH269493   4.309   4.105  14.935 -0.0237  0.0937  0.4331
16001TIP3    H169494   4.397   4.070  14.951  1.1136  0.8747 -3.0594
16001TIP3    H269495   4.254   4.027  14.930  1.3852 -0.8808 -1.6135
16002TIP3   OH269496   4.134   1.178   3.208  0.2798 -0.5558 -0.1417
16002TIP3    H169497   4.136   1.231   3.288 -0.0055 -1.8331  0.7419
16002TIP3    H269498   4.185   1.229   3.145  1.4296 -0.0081  1.1624
16003TIP3   OH269499   5.897   3.362  15.100 -1.0327 -0.0806  0.2017
16003TIP3    H169500   5.877   3.443  15.054 -0.7299 -1.0203 -1.7176
16003TIP3    H269501   5.993   3.356  15.098 -0.8067  1.0091  3.1765
16004TIP3   OH269502   2.044   5.424   3.123 -0.3392 -0.7548 -0.2234
16004TIP3    H169503   2.075   5.479   3.195  0.6787 -2.6761  0.9030
16004TIP3    H269504   2.124   5.398   3.077 -0.8469 -0.8093 -1.0950
16005TIP3   OH269505   5.893   2.773  15.617 -0.2468 -0.3155  0.5879
16005TIP3    H169506   5.807   2.815  15.615 -0.2841 -0.3756  0.8340
16005TIP3    H269507   5.952   2.843  15.645 -0.0566 -0.0175 -0.5183
16006TIP3   OH269508   3.032   4.654   4.989  0.1467 -0.8464 -0.0826
16006TIP3    H169509   3.074   4.607   5.061 -0.5141 -1.4850 -0.1092
16006TIP3    H269510   3.099   4.717   4.960  0.5781 -0.8863  0.7863
16007TIP3   OH269511   1.787   1.730   1.978 -0.7044 -0.0935  0.8560
16007TIP3    H169512   1.811   1.694   2.063 -0.8324 -0.0430  0.9134
16007TIP3    H269513   1.830   1.816   1.975 -1.6093  0.3901  1.3343
16008TIP3   OH269514   1.431   3.844   1.954 -0.1870  0.2567  0.4364
16008TIP3    H169515   1.495   3.807   2.015  0.9141  0.6845 -0.4217
16008TIP3    H269516   1.346   3.819   1.990  0.4757 -1.0990  1.1233
16009TIP3   OH269517   6.183   2.369   0.042 -0.1101 -0.1915 -0.4771
16009TIP3    H169518   6.169   2.439   0.105 -0.6819 -0.3594 -0.4027
16009TIP3    H269519   6.121   2.300   0.069  1.3488 -1.2784  0.2531
16010TIP3   OH269520   3.333   2.760  10.763  0.8029  0.2496 -0.1163
16010TIP3    H169521   3.240   2.769  10.746  0.4918  0.7923  1.6497
16010TIP3    H269522   3.360   2.683  10.712 -0.2321  1.0072 -1.9023
16011TIP3   OH269523   3.716   5.601  12.972  0.2410  0.0211  0.1399
16011TIP3    H169524   3.638   5.603  13.027 -0.0861  0.5364 -0.3353
16011TIP3    H269525   3.775   5.539  13.016 -0.0200  0.3989  1.0549
16012TIP3   OH269526   2.342   0.893  11.585 -0.1483 -0.3720 -0.0954
16012TIP3    H169527   2.301   0.806  11.584 -0.2075 -0.3497 -1.1741
16012TIP3    H269528   2.290   0.944  11.522  0.1529  0.3150  0.2137
16013TIP3   OH269529   0.077   4.527   4.150 -0.8121 -0.0840  0.0656
16013TIP3    H169530   0.123   4.467   4.091 -1.9566  0.0508 -0.9863
16013TIP3    H269531   0.145   4.588   4.179  0.2536 -1.5083  0.7028
16014TIP3   OH269532   0.911   0.100   3.876  0.1703  0.3735  0.5620
16014TIP3    H169533   0.835   0.159   3.880  2.0417  3.3216 -2.2976
16014TIP3    H269534   0.944   0.097   3.965 -3.0598 -0.8424  1.8613
16015TIP3   OH269535   0.044   0.860   1.121 -0.3087 -0.3554 -0.2974
16015TIP3    H169536   0.118   0.884   1.065 -0.1784 -1.8377 -0.8167
16015TIP3    H269537   0.009   0.943   1.152  2.0040  0.3972  0.5348
16016TIP3   OH269538   4.591   1.026   5.060 -0.1571  0.2613  0.1573
16016TIP3    H169539   4.623   1.107   5.101 -0.3429  1.0015 -1.1046
16016TIP3    H269540   4.658   0.961   5.078  0.1419  0.7744  0.9272
16017TIP3   OH269541   0.906   2.960  15.505  0.3132  0.2931 -0.8119
16017TIP3    H169542   0.957   3.036  15.532 -1.0654  1.4394 -1.2726
16017TIP3    H269543   0.835   2.955  15.569 -0.3374  0.2203 -1.5142
16018TIP3   OH269544   0.067   2.519  13.509 -0.1032 -0.7767  0.1318
16018TIP3    H169545   0.064   2.615  13.514  1.4698 -0.5670 -1.8980
16018TIP3    H269546   0.117   2.493  13.586 -0.3827  0.0300  0.6010
16019TIP3   OH269547   5.687   5.597   2.671  0.0475  0.0863  0.1415
16019TIP3    H169548   5.739   5.546   2.608  0.9651  1.0806  0.0716
16019TIP3    H269549   5.603   5.552   2.673  0.9572 -1.6958  0.4188
16020TIP3   OH269550   1.379   0.753   4.347  0.0529 -0.5525 -0.1646
16020TIP3    H169551   1.325   0.776   4.423  1.6554  2.5058  0.2218
16020TIP3    H269552   1.321   0.765   4.272 -0.7107 -0.6253  0.3980
16021TIP3   OH269553   5.626   6.293   3.124  0.3207  0.0977  0.0239
16021TIP3    H169554   5.580   6.223   3.078 -0.7888  0.5879  0.3424
16021TIP3    H269555   5.600   6.283   3.216  1.6813 -0.2339  0.3949
16022TIP3   OH269556   6.320   1.326  16.558  0.0513 -0.4665 -0.4527
16022TIP3    H169557   6.403   1.322  16.509  0.9765 -0.9789  1.0646
16022TIP3    H269558   6.303   1.235  16.582 -0.2108 -0.2058  0.3972
16023TIP3   OH269559   3.469   5.107   5.360 -0.0915 -0.6753  0.1875
16023TIP3    H169560   3.431   5.074   5.278  1.4314 -2.5034  0.1747
16023TIP3    H269561   3.425   5.192   5.373 -1.3452 -0.9412 -1.7977
16024TIP3   OH269562   6.572   2.911   0.787 -0.6828 -0.1631 -0.7125
16024TIP3    H169563   6.609   2.825   0.807 -0.1174  0.0255 -0.9522
16024TIP3    H269564   6.543   2.904   0.696 -1.6262 -0.4376 -0.4146
16025TIP3   OH269565   2.971   1.485   1.467  0.0694  0.7046 -0.3886
16025TIP3    H169566   3.065   1.499   1.455 -0.0547  1.1599 -0.8532
16025TIP3    H269567   2.932   1.572   1.455 -0.2691  0.8347  1.3505
16026TIP3   OH269568   5.698   1.873   2.141  0.0139 -0.0958  0.5326
16026TIP3    H169569   5.639   1.798   2.138  1.5495 -1.4609  2.2534
16026TIP3    H269570   5.783   1.838   2.115  0.3581  1.5289 -0.6386
16027TIP3   OH269571   2.782   5.104   4.888 -0.0515 -0.2028 -0.5801
16027TIP3    H169572   2.766   5.099   4.982 -0.0571  0.4342 -0.5455
16027TIP3    H269573   2.872   5.135   4.880 -0.5143  1.1618 -0.7746
16028TIP3   OH269574   5.450   1.896   5.512  0.6693  0.7041 -0.7931
16028TIP3    H169575   5.450   1.844   5.592  0.2996  1.5299 -0.2394
16028TIP3    H269576   5.542   1.911   5.493  0.7529  1.0608 -0.1412
16029TIP3   OH269577   3.498   1.163   2.888 -0.2212 -0.4516 -0.1522
16029TIP3    H169578   3.575   1.202   2.846 -0.5365 -0.9688 -1.2330
16029TIP3    H269579   3.533   1.122   2.967  0.5622 -0.4143 -0.4704
16030TIP3   OH269580   1.148   5.333  11.717  0.2978 -0.4163  0.0287
16030TIP3    H169581   1.078   5.363  11.775  0.1719  0.4135 -0.5426
16030TIP3    H269582   1.173   5.411  11.668 -0.0258 -1.2308 -1.4761
16031TIP3   OH269583   6.770   4.015   5.761 -0.4245  0.4550 -0.1309
16031TIP3    H169584   6.777   3.919   5.757 -1.3029  0.4171 -1.1408
16031TIP3    H269585   6.804   4.037   5.848  3.1884 -0.4281 -1.1468
16032TIP3   OH269586   3.384   3.893  16.227  0.6374  1.2183  0.0346
16032TIP3    H169587   3.312   3.920  16.285  1.4305  1.7465  0.8036
16032TIP3    H269588   3.413   3.809  16.261 -1.0045 -0.0848 -1.5977
16033TIP3   OH269589   2.863   3.354   5.852  0.3518  0.7174  0.5233
16033TIP3    H169590   2.872   3.260   5.835  0.1388  0.9885 -1.3339
16033TIP3    H269591   2.796   3.383   5.790  0.2785  2.0637  1.1981
16034TIP3   OH269592   1.610   0.266   1.929 -0.2438  0.2317  0.1451
16034TIP3    H169593   1.563   0.349   1.928  0.5610  0.7706 -3.0033
16034TIP3    H269594   1.550   0.204   1.887 -0.6622 -0.7548  2.0773
16035TIP3   OH269595   4.621   6.645  13.669 -0.0733  0.0541  0.5766
16035TIP3    H169596   4.555   6.620  13.734  0.5919 -0.9172  0.8936
16035TIP3    H269597   4.672   6.566  13.655 -0.5359  0.0546 -1.5502
16036TIP3   OH269598   5.111   2.142  15.719 -0.2513 -0.0954 -0.6556
16036TIP3    H169599   5.054   2.211  15.685 -0.4746  0.0653  0.0195
16036TIP3    H269600   5.198   2.183  15.723 -0.4115  0.2069 -0.1155
16037TIP3   OH269601   2.447   2.468   2.681  0.3126 -0.2027  0.0262
16037TIP3    H169602   2.359   2.488   2.649  0.4425 -1.4374 -1.1940
16037TIP3    H269603   2.448   2.373   2.691  2.1113 -0.4520 -1.9218
16038TIP3   OH269604   0.201   4.313  15.515  0.1843  0.0160  0.0224
16038TIP3    H169605   0.113   4.349  15.514  0.7941  1.6440  0.8855
16038TIP3    H269606   0.200   4.247  15.584 -0.1695  0.5604  0.5441
16039TIP3   OH269607   2.163   5.657   0.593  0.2101  0.6263 -0.7357
16039TIP3    H169608   2.142   5.571   0.558  0.0861  0.3944 -0.1124
16039TIP3    H269609   2.241   5.685   0.546 -0.5893  0.8320 -2.0097
16040TIP3   OH269610   1.097   0.068  11.559 -0.2845  0.6186 -0.0610
16040TIP3    H169611   1.064   0.091  11.646 -0.9189  0.6408 -0.3027
16040TIP3    H269612   1.069   0.140  11.503 -1.3825 -0.2292 -0.6199
16041TIP3   OH269613   1.025   1.197   4.882 -0.5814  0.1935  0.1362
16041TIP3    H169614   0.945   1.239   4.914 -0.4206 -0.4696  1.4624
16041TIP3    H269615   1.050   1.249   4.806 -1.8616  0.8592  0.1402
16042TIP3   OH269616   0.152   6.862  13.390  0.4044  0.4146  0.1505
16042TIP3    H169617   0.175   6.948  13.355 -1.6286  2.2392  2.8657
16042TIP3    H269618   0.104   6.881  13.470 -1.0493 -3.2682  0.3419
16043TIP3   OH269619   1.491   2.903   2.248 -0.3335  0.2465 -0.2589
16043TIP3    H169620   1.480   2.854   2.330  1.0587 -0.1389 -0.2841
16043TIP3    H269621   1.418   2.965   2.248 -1.1146 -0.6302  0.6306
16044TIP3   OH269622   0.456   4.559   1.252 -0.7947  0.1985  0.0368
16044TIP3    H169623   0.484   4.573   1.342 -2.3580  1.0191  0.4254
16044TIP3    H269624   0.538   4.547   1.203  0.0406 -2.7262  1.9057
16045TIP3   OH269625   5.285   6.252   4.287  0.1513 -0.3294 -0.1730
16045TIP3    H169626   5.258   6.327   4.339 -1.0421 -1.1888  0.5173
16045TIP3    H269627   5.376   6.236   4.311  0.2590  0.5829  0.0363
16046TIP3   OH269628   4.883   6.307  15.704 -0.1237  0.0361  0.2826
16046TIP3    H169629   4.958   6.251  15.723 -0.0821  0.5183  1.6744
16046TIP3    H269630   4.904   6.390  15.748 -0.6384  0.8189 -0.8785
16047TIP3   OH269631   0.715   6.131   4.794  0.7940 -0.0593 -0.2507
16047TIP3    H169632   0.809   6.114   4.784  0.8795  0.6421 -0.7466
16047TIP3    H269633   0.708   6.226   4.796  0.1898 -0.1157  0.8946
16048TIP3   OH269634   0.607   5.275   3.518  0.2647 -0.3413  0.3116
16048TIP3    H169635   0.640   5.359   3.551  3.2915 -0.8586 -1.0477
16048TIP3    H269636   0.599   5.288   3.423 -2.2103 -0.7435  0.4079
16049TIP3   OH269637   3.208   1.303  10.098 -0.2705 -0.0738 -0.4735
16049TIP3    H169638   3.173   1.361  10.166  1.4303 -1.6305  1.8637
16049TIP3    H269639   3.277   1.354  10.057  0.1091  0.1667  0.4343
16050TIP3   OH269640   1.199   5.453   1.297  0.0112 -0.9269 -0.3217
16050TIP3    H169641   1.210   5.538   1.254  1.3731 -0.6202  0.5610
16050TIP3    H269642   1.150   5.400   1.234  0.6267 -0.0253 -1.6020
16051TIP3   OH269643   6.096   1.990  13.561  0.1366 -0.2538  0.1402
16051TIP3    H169644   6.034   2.047  13.607  1.1151  0.6414  0.4113
16051TIP3    H269645   6.109   1.916  13.620 -1.5605 -1.0669 -0.4481
16052TIP3   OH269646   2.273   5.469  14.673 -0.5371 -0.1311  0.0234
16052TIP3    H169647   2.230   5.387  14.699  0.2735 -0.8638 -0.8618
16052TIP3    H269648   2.307   5.505  14.755  1.3950 -2.0527  0.1360
16053TIP3   OH269649   2.722   3.610   6.808  0.1320  0.5516  0.4738
16053TIP3    H169650   2.766   3.559   6.875 -0.1778 -1.7526 -0.9709
16053TIP3    H269651   2.791   3.664   6.769  1.2090 -1.2032 -0.1329
16054TIP3   OH269652   4.426   2.658   0.868  0.0816  0.6353  0.5024
16054TIP3    H169653   4.401   2.612   0.949  1.8885 -2.3439 -0.4697
16054TIP3    H269654   4.343   2.666   0.820 -0.4944 -0.7661  1.1710
16055TIP3   OH269655   1.375   2.148   5.235  0.1048  0.5329 -0.6108
16055TIP3    H169656   1.413   2.231   5.205  0.0088 -0.2786 -3.1912
16055TIP3    H269657   1.451   2.095   5.260  0.1439  1.4906  1.5599
16056TIP3   OH269658   0.286   4.393   3.969 -0.1134 -0.0325 -0.7591
16056TIP3    H169659   0.313   4.474   4.012 -0.9039  0.8688 -1.9032
16056TIP3    H269660   0.324   4.398   3.881 -0.7517 -0.5661 -1.0791
16057TIP3   OH269661   5.338   0.997   5.402 -0.4266  0.1834  0.4467
16057TIP3    H169662   5.345   1.079   5.451 -1.7911  0.7038 -0.1777
16057TIP3    H269663   5.266   0.950   5.445 -2.3366  1.0880 -1.5913
16058TIP3   OH269664   6.481   3.566  11.856 -0.3714 -0.1651 -0.0940
16058TIP3    H169665   6.542   3.609  11.915 -0.1636 -1.7314  0.8916
16058TIP3    H269666   6.465   3.480  11.896  0.1564 -1.5116 -2.5288
16059TIP3   OH269667   1.426   5.385  11.869  0.2074 -0.1032  0.0750
16059TIP3    H169668   1.401   5.425  11.786 -1.8250 -0.2694  0.5440
16059TIP3    H269669   1.502   5.331  11.849 -0.3604 -0.2920 -1.7122
16060TIP3   OH269670   5.007   3.538  15.749 -0.1102 -0.2907 -0.0854
16060TIP3    H169671   4.922   3.520  15.789 -0.8671 -1.5009 -2.1028
16060TIP3    H269672   5.070   3.488  15.802 -1.2867 -3.1857 -1.1923
16061TIP3   OH269673   6.620   2.523  13.937  0.1816  0.0889  0.0215
16061TIP3    H169674   6.698   2.488  13.979 -1.0270 -1.5070  1.0335
16061TIP3    H269675   6.564   2.446  13.922 -0.2115  0.8224 -2.9070
16062TIP3   OH269676   3.090   2.632   4.349 -0.2906 -0.1713  0.1834
16062TIP3    H169677   3.148   2.560   4.375  0.3205  1.1174  2.7656
16062TIP3    H269678   3.024   2.635   4.418  0.0035  2.0440  0.4383
16063TIP3   OH269679   6.751   5.450  16.937 -0.0700  0.3863  0.5090
16063TIP3    H169680   6.669   5.411  16.906 -0.4081  2.0227 -0.8157
16063TIP3    H269681   6.727   5.498  17.016 -0.0730 -0.3268  0.9491
16064TIP3   OH269682   0.851   3.340   3.782 -0.0654 -0.1746  0.2967
16064TIP3    H169683   0.812   3.258   3.751  0.4663 -0.0215 -0.8549
16064TIP3    H269684   0.853   3.396   3.704  0.2973  0.6497  0.8885
16065TIP3   OH269685   5.559   6.406   3.616  0.1651 -0.0931 -0.5031
16065TIP3    H169686   5.638   6.394   3.669 -0.6168 -2.0074  0.3072
16065TIP3    H269687   5.522   6.489   3.645  0.4104 -0.5248  1.0885
16066TIP3   OH269688   6.037   6.481   4.777 -0.3833 -0.4537  0.1239
16066TIP3    H169689   5.980   6.447   4.708  0.1472 -1.2475  0.0678
16066TIP3    H269690   6.086   6.551   4.734  0.9738 -1.8616 -0.7469
16067TIP3   OH269691   4.382   4.634  16.253  0.5944  0.1750  1.1714
16067TIP3    H169692   4.309   4.614  16.194 -0.0648  2.1367  1.2499
16067TIP3    H269693   4.347   4.702  16.311  1.2797 -1.5146  3.7276
16068TIP3   OH269694   5.581   1.246   4.658 -0.1896 -0.1353 -0.0331
16068TIP3    H169695   5.561   1.175   4.596  0.4546  0.3438 -0.7968
16068TIP3    H269696   5.671   1.229   4.686 -0.1281  0.2315 -0.0061
16069TIP3   OH269697   4.811   6.083   0.608  0.2532 -0.6418 -0.1182
16069TIP3    H169698   4.749   6.089   0.680  1.4759  0.1345  0.9154
16069TIP3    H269699   4.798   5.995   0.572 -1.8256 -0.2832 -0.3454
16070TIP3   OH269700   1.455   6.269  15.573 -0.1462 -0.0886  0.1210
16070TIP3    H169701   1.503   6.234  15.498 -1.0090  1.2824 -1.1299
16070TIP3    H269702   1.521   6.309  15.629  0.3544  0.2049 -0.6744
16071TIP3   OH269703   5.591   3.977   5.912  0.3544  0.5973 -0.9835
16071TIP3    H169704   5.618   3.893   5.948 -0.5207  0.6553 -0.1675
16071TIP3    H269705   5.648   4.041   5.954  0.6968  0.4646 -1.2430
16072TIP3   OH269706   2.976   6.585   2.122  0.0175  0.2804  0.1828
16072TIP3    H169707   2.895   6.536   2.136  0.0434  0.2203  0.1229
16072TIP3    H269708   3.039   6.519   2.095 -0.3224  0.5424 -1.3732
16073TIP3   OH269709   5.309   4.975   4.826 -0.6638 -0.3048  0.0116
16073TIP3    H169710   5.344   5.053   4.868 -0.8456 -1.1247  1.8162
16073TIP3    H269711   5.287   4.917   4.899 -2.3125 -1.2888 -1.1912
16074TIP3   OH269712   2.217   0.886  13.885  0.1713  0.6382  0.2469
16074TIP3    H169713   2.308   0.915  13.897  0.0514  0.3193  2.5082
16074TIP3    H269714   2.164   0.962  13.909 -0.1698  0.6810 -0.6163
16075TIP3   OH269715   4.064   0.708   3.083 -0.6109  0.6567 -0.0217
16075TIP3    H169716   4.070   0.781   3.145  0.0220  0.8711 -0.3189
16075TIP3    H269717   4.151   0.667   3.087 -0.7667  0.2952 -0.3099
16076TIP3   OH269718   6.420   3.844   1.053  0.2571 -0.1709 -0.0729
16076TIP3    H169719   6.369   3.925   1.047  0.4160 -0.1523 -1.5461
16076TIP3    H269720   6.354   3.774   1.050  0.0807 -0.1287  1.6909
16077TIP3   OH269721   3.554   0.597   0.282 -0.2278 -0.3389 -0.0834
16077TIP3    H169722   3.493   0.526   0.306 -2.0422  0.9102 -0.7951
16077TIP3    H269723   3.570   0.584   0.189  1.3879 -1.1839  0.2705
16078TIP3   OH269724   4.718   5.026   2.958  0.1749 -0.0758 -0.4907
16078TIP3    H169725   4.771   5.052   2.883  0.1455 -2.3168 -1.3805
16078TIP3    H269726   4.633   5.003   2.921 -0.5198  0.7685  0.5340
16079TIP3   OH269727   3.187   6.245  13.966  0.4951  0.0979  0.2549
16079TIP3    H169728   3.268   6.210  14.003  0.5392 -0.7926 -0.6562
16079TIP3    H269729   3.167   6.187  13.893 -2.8375 -1.8822  2.4826
16080TIP3   OH269730   1.980   5.113   0.824 -0.2776  0.1845 -0.0894
16080TIP3    H169731   2.025   5.052   0.766 -0.1063  2.2482 -2.2979
16080TIP3    H269732   1.986   5.073   0.911  2.4712 -1.4383 -0.9071
16081TIP3   OH269733   5.262   2.453  15.867 -0.6094 -0.2072  0.0188
16081TIP3    H169734   5.223   2.471  15.781  0.0545  3.7072  0.3457
16081TIP3    H269735   5.346   2.500  15.864  2.4248 -4.9606  0.7538
16082TIP3   OH269736   3.977   1.189  13.248  0.3447 -0.0256  0.1598
16082TIP3    H169737   3.915   1.257  13.277 -0.6624 -0.3291 -1.2186
16082TIP3    H269738   3.981   1.199  13.153  0.7976 -1.3952  0.0190
16083TIP3   OH269739   2.287   4.077   0.915  0.2010  0.1525  0.5285
16083TIP3    H169740   2.199   4.058   0.883  0.3821 -0.0909  0.1682
16083TIP3    H269741   2.327   4.130   0.846  0.9196 -1.1732 -0.1143
16084TIP3   OH269742   2.704   4.420  13.539 -0.5821  0.5170 -0.4490
16084TIP3    H169743   2.632   4.475  13.569  1.4307  3.1173 -0.0219
16084TIP3    H269744   2.757   4.405  13.618 -0.0671 -0.4571 -0.9501
16085TIP3   OH269745   2.547   3.266   3.983  0.4504  0.1664  0.1349
16085TIP3    H169746   2.601   3.188   3.970  1.0801  0.7031 -0.5237
16085TIP3    H269747   2.538   3.304   3.896 -0.4315  0.4560  0.3461
16086TIP3   OH269748   0.109   0.746  12.811  0.3060  0.5643  0.0022
16086TIP3    H169749   0.074   0.694  12.884  1.3516  1.7312  1.3859
16086TIP3    H269750   0.136   0.681  12.746  0.3172 -0.5537  1.0960
16087TIP3   OH269751   3.900   6.159  11.688  0.2254 -0.1912  0.1339
16087TIP3    H169752   3.979   6.117  11.724 -0.3547 -1.2679  0.1892
16087TIP3    H269753   3.878   6.106  11.612 -0.9396 -0.4432  0.6247
16088TIP3   OH269754   1.657   0.755  13.174  0.7165 -0.1980  0.1721
16088TIP3    H169755   1.577   0.703  13.179  0.9030 -0.5068  0.0438
16088TIP3    H269756   1.652   0.798  13.089 -0.2155  1.3087  0.9550
16089TIP3   OH269757   5.416   5.357   1.560 -0.2435 -0.2955 -0.7120
16089TIP3    H169758   5.453   5.273   1.532  0.2034 -1.1011  2.0542
16089TIP3    H269759   5.490   5.406   1.595 -0.9472  0.0687  0.3232
16090TIP3   OH269760   4.351   1.930   0.244  0.0971  0.2822  0.3170
16090TIP3    H169761   4.274   1.971   0.205  0.8482 -0.1184 -1.7265
16090TIP3    H269762   4.408   2.003   0.268 -0.7086  0.5624  1.4429
16091TIP3   OH269763   2.356   2.474  16.056 -0.0237  0.1296 -0.1744
16091TIP3    H169764   2.311   2.482  15.972 -1.8594 -1.6928  0.5246
16091TIP3    H269765   2.303   2.526  16.116  0.8426  0.8066  0.0169
16092TIP3   OH269766   3.382   0.355   2.769  0.7249 -0.2403 -0.7828
16092TIP3    H169767   3.466   0.365   2.724  0.1270  2.1764 -1.5407
16092TIP3    H269768   3.404   0.320   2.855  2.3329 -1.0791 -1.4937
16093TIP3   OH269769   0.045   3.082  13.926  0.0410  0.2785  0.0156
16093TIP3    H169770   0.073   3.119  14.010 -0.6891 -0.2002  0.4769
16093TIP3    H269771  -0.050   3.070  13.935 -0.2355  1.2316 -1.2658
16094TIP3   OH269772   2.108   6.782   1.137 -0.1535 -0.0047  0.0591
16094TIP3    H169773   2.023   6.785   1.180 -0.9751  0.7674 -1.5646
16094TIP3    H269774   2.115   6.865   1.090  2.8817  1.4370  2.6217
16095TIP3   OH269775   4.723   4.197   5.079  0.4054  0.5042 -0.0687
16095TIP3    H169776   4.653   4.206   5.015  0.1913  0.1509  0.1112
16095TIP3    H269777   4.802   4.226   5.033  0.1868  0.6402 -0.3595
16096TIP3   OH269778   1.620   6.184   0.329  0.2804 -0.1891 -0.3026
16096TIP3    H169779   1.709   6.203   0.300 -0.1052  1.3473 -0.5363
16096TIP3    H269780   1.574   6.267   0.324 -0.8269 -0.6618  1.1279
16097TIP3   OH269781   2.158   5.075  14.643 -0.1134 -0.0480 -0.1509
16097TIP3    H169782   2.182   5.124  14.722  0.7687 -0.8364  0.0850
16097TIP3    H269783   2.182   5.133  14.571  0.2562  0.1567  0.1307
16098TIP3   OH269784   2.529   5.720   6.041 -0.0965 -0.1667  0.3392
16098TIP3    H169785   2.534   5.676   6.126 -0.0871 -0.6443  0.0968
16098TIP3    H269786   2.580   5.664   5.982 -0.8543 -0.3374 -0.1769
16099TIP3   OH269787   4.723   2.538  11.089  0.2227 -0.0396  0.7005
16099TIP3    H169788   4.661   2.610  11.100 -0.4873 -0.6057  0.5276
16099TIP3    H269789   4.668   2.463  11.064  0.8546 -0.8078  1.5408
16100TIP3   OH269790   2.215   5.029   3.946 -0.3115 -0.3390  0.8324
16100TIP3    H169791   2.258   5.001   4.027  1.8731  0.3918  0.0044
16100TIP3    H269792   2.287   5.041   3.884 -1.8079  0.3680 -0.8489
16101TIP3   OH269793   3.581   4.890   3.720 -0.7139  0.6432 -0.2130
16101TIP3    H169794   3.506   4.904   3.778 -0.8897 -0.6678 -0.1009
16101TIP3    H269795   3.596   4.976   3.680 -2.0138  1.0369  0.0798
16102TIP3   OH269796   6.662   0.867   4.908  0.3201 -0.0480  0.3072
16102TIP3    H169797   6.702   0.825   4.832  1.2033  1.7111 -0.2339
16102TIP3    H269798   6.695   0.817   4.983  1.2234 -0.4159 -0.3266
16103TIP3   OH269799   0.589   3.344   2.529  0.7201 -0.7549  0.5617
16103TIP3    H169800   0.669   3.314   2.486  0.7334  1.1016 -0.8452
16103TIP3    H269801   0.542   3.393   2.461  0.3432  1.6217  2.3969
16104TIP3   OH269802   2.494   4.636   5.925 -0.1936 -0.1402 -0.3476
16104TIP3    H169803   2.427   4.697   5.955  0.4229 -0.0343  0.9222
16104TIP3    H269804   2.555   4.690   5.875 -0.6195 -0.0879 -0.8204
16105TIP3   OH269805   1.781   1.894  16.143  0.2605 -0.7899  0.3649
16105TIP3    H169806   1.737   1.811  16.159 -1.1831  0.2478  2.2540
16105TIP3    H269807   1.749   1.923  16.058  0.2879 -1.8534 -0.0110
16106TIP3   OH269808   4.014   0.806   2.080 -0.2369 -0.2097 -0.2162
16106TIP3    H169809   3.959   0.867   2.031 -0.6439 -1.4996 -1.4291
16106TIP3    H269810   4.053   0.859   2.149 -1.5821  1.1359 -0.4394
16107TIP3   OH269811   0.187   3.004   1.061  0.2426  0.3960  0.4281
16107TIP3    H169812   0.143   3.020   0.978  2.8059  2.1731 -0.7311
16107TIP3    H269813   0.178   3.087   1.109 -2.1728 -0.9542  2.5257
16108TIP3   OH269814   4.619   1.724   6.777 -0.1446  0.2608 -0.8581
16108TIP3    H169815   4.627   1.645   6.724  0.9554  0.3631 -0.8815
16108TIP3    H269816   4.668   1.790   6.728  0.0930  0.5990 -0.1786
16109TIP3   OH269817   0.496   1.977  12.866  0.4814 -0.1161  0.9634
16109TIP3    H169818   0.498   2.027  12.785  2.5436  1.0716  1.6562
16109TIP3    H269819   0.430   1.909  12.852 -0.6195  1.2699 -0.9387
16110TIP3   OH269820   3.121   5.950  10.776 -0.2711  0.2458 -0.1147
16110TIP3    H169821   3.153   5.964  10.865 -0.1011  0.6432 -0.2338
16110TIP3    H269822   3.048   5.889  10.785 -1.2615  1.4864  0.4661
16111TIP3   OH269823   6.367   2.565   0.479 -0.2682 -0.7257 -0.0986
16111TIP3    H169824   6.386   2.659   0.477 -1.4942 -0.4316 -3.6012
16111TIP3    H269825   6.279   2.560   0.517 -0.5267 -0.3453 -0.6252
16112TIP3   OH269826   0.171   6.071  16.948  0.2315  0.4001 -0.2386
16112TIP3    H169827   0.267   6.072  16.951  0.3750 -1.3888 -1.9519
16112TIP3    H269828   0.150   5.985  16.912 -2.0943  0.2612  1.2655
16113TIP3   OH269829   5.670   2.140  12.745 -0.5116  0.5961  0.3250
16113TIP3    H169830   5.732   2.110  12.811 -0.9785  0.0096  0.5042
16113TIP3    H269831   5.586   2.147  12.791 -0.6057  1.3187  0.0692
16114TIP3   OH269832   3.071   4.380  11.668 -0.2666 -0.0217 -0.1910
16114TIP3    H169833   2.979   4.375  11.694 -0.5058 -1.8729 -1.1705
16114TIP3    H269834   3.075   4.455  11.608 -0.5569  1.6499  1.7786
16115TIP3   OH269835   6.582   5.193   3.081 -0.3340 -0.4639  0.1156
16115TIP3    H169836   6.639   5.261   3.116  0.5190 -1.1371  0.0755
16115TIP3    H269837   6.517   5.240   3.029  0.0251  0.3410  0.3809
16116TIP3   OH269838   3.025   6.452  14.477  0.3869 -0.9849 -0.3478
16116TIP3    H169839   3.114   6.420  14.494  1.1826  1.4158  0.3634
16116TIP3    H269840   3.010   6.518  14.545 -0.6679  0.9883 -2.3640
16117TIP3   OH269841   1.610   0.395  11.911 -0.2047 -0.0782  0.0762
16117TIP3    H169842   1.552   0.402  11.835 -0.2989 -1.3794  0.0169
16117TIP3    H269843   1.553   0.406  11.986 -0.3882 -0.4478 -0.0065
16118TIP3   OH269844   5.077   1.102   0.202 -0.0540  0.0762 -0.2579
16118TIP3    H169845   5.139   1.172   0.225 -0.5877 -0.4991  3.5049
16118TIP3    H269846   4.992   1.145   0.201 -0.3139 -0.3432  1.4636
16119TIP3   OH269847   3.357   6.147   0.822 -0.7208  0.5283  1.1653
16119TIP3    H169848   3.447   6.152   0.790 -1.1608 -2.0769 -0.7560
16119TIP3    H269849   3.355   6.208   0.896  2.6691  0.5040  1.4319
16120TIP3   OH269850   1.472   1.749  14.909 -0.5574  0.1090  0.3778
16120TIP3    H169851   1.513   1.710  14.986  1.6858 -1.1446 -1.3134
16120TIP3    H269852   1.491   1.843  14.916 -0.2686 -0.0071  1.2815
16121TIP3   OH269853   6.239   1.420  12.458 -0.1114 -0.4459  0.6097
16121TIP3    H169854   6.242   1.421  12.554  0.2149  1.7038  0.6246
16121TIP3    H269855   6.248   1.327  12.435  2.2031 -0.8072  2.5890
16122TIP3   OH269856   6.365   1.886   2.295 -0.8827 -0.1281 -0.5396
16122TIP3    H169857   6.322   1.850   2.217 -1.3342 -0.5191 -0.1109
16122TIP3    H269858   6.454   1.906   2.265 -0.8835 -0.7945 -1.0093
16123TIP3   OH269859   3.400   2.585   4.531  0.5976 -0.2557 -0.3080
16123TIP3    H169860   3.492   2.580   4.507 -0.3293  1.0392 -5.0518
16123TIP3    H269861   3.367   2.662   4.485 -2.3945  1.0764  3.5090
16124TIP3   OH269862   3.069   1.502   3.216 -0.4730  0.0219  0.4278
16124TIP3    H169863   3.117   1.524   3.296 -0.4707  0.8673  0.2040
16124TIP3    H269864   3.074   1.582   3.162  0.2066 -0.7844 -0.7499
16125TIP3   OH269865   6.230   1.742  11.772 -0.1129  0.1672  0.2794
16125TIP3    H169866   6.205   1.749  11.680 -2.3965  1.6342  0.9434
16125TIP3    H269867   6.285   1.819  11.788 -2.0720  1.5450  0.7600
16126TIP3   OH269868   1.264   4.849  12.007 -0.3917  0.2685 -0.3981
16126TIP3    H169869   1.191   4.906  11.982  0.1128  0.1145 -2.3815
16126TIP3    H269870   1.283   4.873  12.098 -1.7699  1.5291 -0.4037
16127TIP3   OH269871   0.100   0.116   6.303  0.7598  0.3523 -0.0961
16127TIP3    H169872   0.141   0.154   6.381  1.2540 -0.0017 -0.1792
16127TIP3    H269873   0.121   0.023   6.308 -0.2405  0.1186 -0.0165
16128TIP3   OH269874   2.088   3.709  11.253  0.1248  0.1471 -0.0873
16128TIP3    H169875   2.120   3.622  11.229  0.8074  0.4364 -0.2504
16128TIP3    H269876   2.107   3.764  11.177  1.0718  0.7648  0.5726
16129TIP3   OH269877   0.862   2.117   1.309 -0.5501 -0.0768  0.3664
16129TIP3    H169878   0.783   2.163   1.280  0.0448  0.6955 -0.0595
16129TIP3    H269879   0.861   2.035   1.259  0.3439  1.1370 -1.7945
16130TIP3   OH269880   0.039   2.571   4.037 -0.2885  0.1469  0.4363
16130TIP3    H169881  -0.045   2.531   4.060  0.8141 -1.9570  1.0809
16130TIP3    H269882   0.103   2.526   4.092  1.2765  1.7030 -0.0259
16131TIP3   OH269883   4.735   6.363   0.020 -0.1690  0.1862  0.1962
16131TIP3    H169884   4.700   6.284  -0.021  0.0703  0.4158 -0.4702
16131TIP3    H269885   4.803   6.394  -0.041  0.4229  0.3580  0.9252
16132TIP3   OH269886   0.544   1.584   0.188 -0.3047 -0.2147 -0.7198
16132TIP3    H169887   0.491   1.532   0.128 -1.1110  1.2990 -1.3622
16132TIP3    H269888   0.566   1.663   0.139 -1.6842  1.4583  1.1816
16133TIP3   OH269889   4.256   1.940   2.398 -0.2939 -0.0922 -0.6045
16133TIP3    H169890   4.337   1.928   2.447 -1.1816 -1.0649  0.6620
16133TIP3    H269891   4.193   1.970   2.463 -0.9667  0.6672 -1.5785
16134TIP3   OH269892   0.955   0.270   4.145 -0.2162  0.0285 -0.0380
16134TIP3    H169893   0.980   0.178   4.145  0.3608  0.1485 -1.9346
16134TIP3    H269894   0.984   0.302   4.230 -0.2750 -1.4857  0.5894
16135TIP3   OH269895   5.385   2.784  11.460 -0.2400  0.2912 -0.3640
16135TIP3    H169896   5.317   2.720  11.481  0.8173 -0.4702  0.8940
16135TIP3    H269897   5.432   2.746  11.385 -0.1387 -0.0047 -0.1508
16136TIP3   OH269898   2.172   0.200   5.736  0.1388 -0.0312 -0.2165
16136TIP3    H169899   2.160   0.120   5.786 -0.0080 -0.2663 -0.6279
16136TIP3    H269900   2.190   0.267   5.802  1.5073 -0.6355  0.0639
16137TIP3   OH269901   6.233   2.175  13.959  0.2098  0.6345  0.1852
16137TIP3    H169902   6.182   2.212  14.031  0.8591 -0.3496  1.1694
16137TIP3    H269903   6.213   2.082  13.961 -0.0579  0.6446 -1.1642
16138TIP3   OH269904   2.158   6.002   6.587  1.2266  0.4520 -0.8625
16138TIP3    H169905   2.086   6.015   6.525  0.5417  0.9879  0.0243
16138TIP3    H269906   2.237   6.012   6.534  0.6743 -0.3804 -1.9077
16139TIP3   OH269907   5.502   4.770  16.674 -0.5211  0.2584 -0.1313
16139TIP3    H169908   5.588   4.732  16.690 -0.2096  0.7170 -0.6894
16139TIP3    H269909   5.505   4.856  16.715 -0.7722  0.2100 -0.0084
16140TIP3   OH269910   4.813   1.201   4.450 -0.1250 -0.1317  0.1094
16140TIP3    H169911   4.735   1.146   4.453 -0.2164 -0.0011  0.1409
16140TIP3    H269912   4.783   1.283   4.411  0.3900 -0.7252 -1.6628
16141TIP3   OH269913   5.483   3.578  11.330 -0.6587  0.2478 -0.0495
16141TIP3    H169914   5.556   3.630  11.298 -0.3415 -0.3323 -0.2782
16141TIP3    H269915   5.433   3.554  11.251 -1.4519  1.1596  0.1574
16142TIP3   OH269916   3.667   3.453  11.792  0.3623 -0.1654  0.7204
16142TIP3    H169917   3.754   3.473  11.827  0.7762 -0.2263 -0.2332
16142TIP3    H269918   3.684   3.391  11.721 -0.3612  0.5530 -0.1061
16143TIP3   OH269919   0.122   4.577   5.352 -0.2344  0.0815  0.2362
16143TIP3    H169920   0.075   4.507   5.307 -1.5104  0.3223  1.1399
16143TIP3    H269921   0.212   4.546   5.357 -0.5361 -0.9501 -0.4509
16144TIP3   OH269922   4.225   4.045   1.178  0.4018  0.0424 -0.2419
16144TIP3    H169923   4.187   4.065   1.093  0.2706  3.0735  0.4021
16144TIP3    H269924   4.154   4.005   1.227 -0.1768  0.2446 -0.9001
16145TIP3   OH269925   1.034   0.646  16.156  0.4906  0.5182 -0.1163
16145TIP3    H169926   0.940   0.629  16.155  0.9401 -2.6673 -0.1757
16145TIP3    H269927   1.057   0.643  16.249  0.7173 -0.3025 -0.1875
16146TIP3   OH269928   0.906   0.879   1.667 -0.0758  0.3496 -0.1536
16146TIP3    H169929   0.941   0.967   1.657 -0.1698  0.3280 -0.7514
16146TIP3    H269930   0.811   0.891   1.662 -0.1608  0.3831  1.2335
16147TIP3   OH269931   2.590   2.625   3.472  0.4203 -0.1189  0.1130
16147TIP3    H169932   2.606   2.693   3.537 -0.0530 -0.8692  1.0343
16147TIP3    H269933   2.666   2.568   3.477 -0.0463 -0.6978  0.6793
16148TIP3   OH269934   0.263   2.983   4.751 -0.8177  0.2567 -0.0533
16148TIP3    H169935   0.231   2.977   4.841  1.1647 -2.0319  0.6146
16148TIP3    H269936   0.327   3.054   4.753 -0.3406 -0.1777  0.5277
16149TIP3   OH269937   3.792   2.929   1.982  0.0948  0.1429 -0.0219
16149TIP3    H169938   3.786   3.012   1.934 -1.4339 -0.0879 -0.2737
16149TIP3    H269939   3.732   2.940   2.056  3.0629  0.8556  2.5097
16150TIP3   OH269940   3.863   6.273  10.797  0.2024  0.3344 -0.2702
16150TIP3    H169941   3.854   6.366  10.776 -1.9120 -0.0993 -1.5926
16150TIP3    H269942   3.791   6.255  10.857 -1.7002 -1.1268 -2.8083
16151TIP3   OH269943   0.133   1.530   1.907  0.5268 -0.1623  0.6819
16151TIP3    H169944   0.186   1.461   1.867 -0.9919 -1.9301  1.5475
16151TIP3    H269945   0.076   1.561   1.836 -1.6326 -2.7586  1.1316
16152TIP3   OH269946   3.098   5.673  15.672 -0.0706 -0.5785  0.3237
16152TIP3    H169947   3.075   5.756  15.630  0.5729  0.0109  1.1302
16152TIP3    H269948   3.020   5.650  15.723  1.1264  1.6508  3.4194
16153TIP3   OH269949   3.813   4.643   0.225 -0.0567 -0.4891 -0.0261
16153TIP3    H169950   3.873   4.569   0.217  0.9836  0.2497  0.6660
16153TIP3    H269951   3.849   4.695   0.296  0.7419  2.0290 -2.1209
16154TIP3   OH269952   5.032   0.908  14.192  0.4048  0.4609 -0.1586
16154TIP3    H169953   5.115   0.936  14.230  0.3907  1.4951 -0.8398
16154TIP3    H269954   5.005   0.982  14.136 -1.3880  0.5109  0.6917
16155TIP3   OH269955   2.935   4.245   2.731  0.0437 -0.4874 -0.5790
16155TIP3    H169956   2.936   4.149   2.729 -1.2060 -0.5177 -0.5568
16155TIP3    H269957   2.995   4.268   2.802 -1.5760 -1.3632  1.1839
16156TIP3   OH269958   4.243   5.207  13.672  0.0753  0.4561 -0.5471
16156TIP3    H169959   4.309   5.214  13.602  1.1552 -1.7260  0.1575
16156TIP3    H269960   4.168   5.257  13.639  1.5435  1.8179 -2.0211
16157TIP3   OH269961   1.793   2.685  12.785  0.5145 -0.5029  0.1507
16157TIP3    H169962   1.738   2.625  12.836  0.7300  0.8693  2.1362
16157TIP3    H269963   1.736   2.714  12.714 -0.5291 -0.9537  0.7644
16158TIP3   OH269964   2.107   5.591   2.402 -0.6910 -0.1588 -0.1383
16158TIP3    H169965   2.130   5.603   2.310  0.3759  0.1943  0.1583
16158TIP3    H269966   2.081   5.499   2.409 -1.1642 -0.0860 -0.8619
16159TIP3   OH269967   4.120   0.276  16.205  0.0006 -0.2886  0.0337
16159TIP3    H169968   4.119   0.368  16.231  0.9224 -0.3353  0.2643
16159TIP3    H269969   4.039   0.264  16.155 -0.0902  0.6615 -0.0589
16160TIP3   OH269970   1.824   1.610   2.250  0.6264  0.3785  0.4065
16160TIP3    H169971   1.738   1.609   2.290  1.0868  0.9401  1.4598
16160TIP3    H269972   1.850   1.518   2.244  0.0848  0.2280  0.3603
16161TIP3   OH269973   2.985   0.511   0.393 -0.2884  0.2697  0.0305
16161TIP3    H169974   2.941   0.516   0.308 -2.1908  1.4981  1.0397
16161TIP3    H269975   2.960   0.425   0.427 -0.1478  0.0970 -0.2849
16162TIP3   OH269976   5.666   6.547  13.266  0.2946 -0.2146 -0.1239
16162TIP3    H169977   5.724   6.524  13.339  0.0557 -1.9831 -0.4490
16162TIP3    H269978   5.640   6.463  13.229  0.4517  0.6450 -2.2994
16163TIP3   OH269979   1.370   3.509   2.772 -0.2452  0.7631 -0.5514
16163TIP3    H169980   1.311   3.577   2.742 -1.0812  0.4578  0.3547
16163TIP3    H269981   1.457   3.536   2.740 -0.5166  2.3549 -0.0155
16164TIP3   OH269982   3.452   1.245   5.111 -0.2441  0.0036  0.2472
16164TIP3    H169983   3.462   1.295   5.192 -1.3258 -2.1772  1.8021
16164TIP3    H269984   3.373   1.192   5.124 -0.0840 -0.9191 -1.9805
16165TIP3   OH269985   0.152   4.238   4.245 -0.4068  0.4389 -0.4382
16165TIP3    H169986   0.071   4.273   4.208 -0.8311  0.2027  0.2615
16165TIP3    H269987   0.133   4.146   4.261 -0.3588  0.6142  0.7176
16166TIP3   OH269988   4.218   0.080  11.183  0.1735  0.3596  0.2171
16166TIP3    H169989   4.287   0.088  11.117 -0.0370  0.6699  0.0280
16166TIP3    H269990   4.151   0.143  11.155 -0.4119 -0.2957  0.1162
16167TIP3   OH269991   5.284   1.791   5.958 -0.1565 -0.3771  0.3212
16167TIP3    H169992   5.275   1.884   5.940 -0.0532 -0.3882  0.2093
16167TIP3    H269993   5.234   1.748   5.888  1.9914 -0.4965 -1.2580
16168TIP3   OH269994   0.676   3.290   0.655 -0.1940  0.4015 -0.4298
16168TIP3    H169995   0.658   3.222   0.720  0.9597  0.6053  0.1279
16168TIP3    H269996   0.681   3.371   0.706  0.9061  0.5397 -0.7313
16169TIP3   OH269997   1.990   5.946  15.149 -0.1068  0.1916 -0.2440
16169TIP3    H169998   1.923   5.890  15.189  0.0539  0.2881  0.1571
16169TIP3    H269999   1.978   6.032  15.189  1.4503 -0.2315  1.2236
16170TIP3   OH270000   0.656   1.472   1.152  0.5634 -0.0914  0.0524
16170TIP3    H170001   0.720   1.434   1.212 -0.7623  0.6054  2.0087
16170TIP3    H270002   0.590   1.511   1.209  0.1125  2.1672 -1.8454
16171TIP3   OH270003   2.320   2.138   0.695 -0.6344  0.2241 -0.0616
16171TIP3    H170004   2.366   2.164   0.775  0.1401 -1.1603 -0.0233
16171TIP3    H270005   2.298   2.221   0.652  0.5940  0.9574  0.6699
16172TIP3   OH270006   3.093   0.576  12.336 -0.1167  0.0537  0.1000
16172TIP3    H170007   3.165   0.562  12.274  0.7857  1.4254  0.8073
16172TIP3    H270008   3.015   0.544  12.289  0.9589 -1.7256 -0.5614
16173TIP3   OH270009   5.650   1.106  12.773  0.2752 -0.0761  0.0184
16173TIP3    H170010   5.722   1.044  12.760 -0.2450 -0.5700 -0.5888
16173TIP3    H270011   5.682   1.188  12.736  0.3733 -0.3996 -0.6290
16174TIP3   OH270012   3.877   2.361  15.841 -0.1963  0.0795 -0.1337
16174TIP3    H170013   3.843   2.288  15.789  1.0527  0.3022 -1.3343
16174TIP3    H270014   3.947   2.398  15.787  2.4146 -0.7599  2.4610
16175TIP3   OH270015   4.743   3.507  15.873 -0.0352 -0.2483  0.0119
16175TIP3    H170016   4.654   3.506  15.836 -0.7644  0.4366  1.6444
16175TIP3    H270017   4.768   3.415  15.876 -1.1666 -0.5631  0.5485
16176TIP3   OH270018   0.231   3.278  15.071  0.3843  0.0567  0.5571
16176TIP3    H170019   0.234   3.249  15.162  0.6032  0.6793  0.7541
16176TIP3    H270020   0.231   3.373  15.076  2.2130  0.1400 -0.1399
16177TIP3   OH270021   2.453   1.730   1.863  0.4252  0.3493 -0.4614
16177TIP3    H170022   2.436   1.820   1.834 -2.4087 -0.1077 -0.4930
16177TIP3    H270023   2.368   1.699   1.896  1.9737 -1.3937  2.2289
16178TIP3   OH270024   4.923   4.267  13.263 -0.2368 -0.0027 -0.6931
16178TIP3    H170025   4.902   4.241  13.173 -0.7793  0.3841 -0.6827
16178TIP3    H270026   4.917   4.362  13.263 -2.3063 -0.0717  0.2243
16179TIP3   OH270027   0.999   5.345  16.666 -0.1105  0.0079  0.2920
16179TIP3    H170028   0.946   5.319  16.742 -0.6926 -1.8679 -0.7014
16179TIP3    H270029   0.968   5.289  16.595  0.5351  1.6079 -1.3202
16180TIP3   OH270030   0.393   2.737  16.806 -1.0718 -0.4032 -0.2887
16180TIP3    H170031   0.425   2.660  16.854 -0.6492  0.7711  1.3583
16180TIP3    H270032   0.345   2.788  16.870 -0.2873  1.3476 -1.0416
16181TIP3   OH270033   3.505   2.587   3.700  0.0036  0.1817 -0.2259
16181TIP3    H170034   3.451   2.620   3.771 -1.1508 -0.1395 -0.9259
16181TIP3    H270035   3.502   2.655   3.633  2.1405  1.0620  0.5027
16182TIP3   OH270036   3.728   1.597  14.158 -0.0881 -0.0809  0.4238
16182TIP3    H170037   3.815   1.622  14.189 -0.1508 -0.3629  0.8379
16182TIP3    H270038   3.672   1.601  14.236 -0.1431 -1.2807  0.4663
16183TIP3   OH270039   0.372   6.738  13.861 -0.0493 -0.1718  0.0828
16183TIP3    H170040   0.325   6.705  13.785 -2.5881 -0.1219  1.5273
16183TIP3    H270041   0.402   6.826  13.835  4.9998 -2.3583 -3.0560
16184TIP3   OH270042   1.519   1.299  10.265 -0.3574 -0.0202  0.1193
16184TIP3    H170043   1.582   1.243  10.312 -0.8201 -0.5700  0.0918
16184TIP3    H270044   1.520   1.381  10.314  0.8947  0.2298 -0.2859
16185TIP3   OH270045   5.481   0.671   1.667 -0.0260  0.3189  0.0673
16185TIP3    H170046   5.424   0.691   1.593 -0.1938 -0.7689 -0.1163
16185TIP3    H270047   5.525   0.589   1.642  0.5390  0.3862  0.8121
16186TIP3   OH270048   0.669   0.721   3.768 -0.3465 -0.1030  0.5213
16186TIP3    H170049   0.661   0.816   3.764 -0.4777 -0.1088  0.6385
16186TIP3    H270050   0.615   0.696   3.843 -1.5310 -0.4168 -0.4111
16187TIP3   OH270051   3.993   0.212  13.825  0.4549  0.6769  0.3299
16187TIP3    H170052   4.087   0.219  13.839  0.2531  1.0498  1.6683
16187TIP3    H270053   3.977   0.118  13.812  0.9658  0.5755  0.4210
16188TIP3   OH270054   3.994   0.185   5.526 -0.6692  0.0848 -0.1790
16188TIP3    H170055   4.038   0.269   5.511  0.6327 -0.4347  0.6026
16188TIP3    H270056   4.064   0.120   5.525 -1.4862 -0.8364  0.5679
16189TIP3   OH270057   0.620   3.370  16.302  0.5433  0.2033 -0.9411
16189TIP3    H170058   0.567   3.290  16.299  0.5395  0.2049 -0.9215
16189TIP3    H270059   0.683   3.354  16.373 -1.5971  1.5145  1.4338
16190TIP3   OH270060   2.394   3.699  16.260 -0.3155  0.2791 -0.0526
16190TIP3    H170061   2.421   3.724  16.171 -1.4881  0.2639 -0.4269
16190TIP3    H270062   2.474   3.707  16.312  0.3670  0.4060 -1.0833
16191TIP3   OH270063   4.640   0.178  14.330 -0.1933 -0.4492  0.2384
16191TIP3    H170064   4.596   0.261  14.346 -0.5117 -0.1036 -2.0569
16191TIP3    H270065   4.654   0.176  14.235 -2.2433 -4.0158 -0.1575
16192TIP3   OH270066   0.365   3.733  15.546  0.7764  0.4277  0.2772
16192TIP3    H170067   0.355   3.780  15.629 -0.0331  0.1023  0.3743
16192TIP3    H270068   0.306   3.778  15.486  0.2722 -0.2200  0.2708
16193TIP3   OH270069   3.362   4.521  13.282  0.1758 -0.2551  0.6337
16193TIP3    H170070   3.268   4.540  13.280  0.6980  2.7704 -0.5014
16193TIP3    H270071   3.377   4.464  13.207 -0.6608 -0.2493  0.4581
16194TIP3   OH270072   4.503   6.721  16.144  0.1878  0.0942 -0.6886
16194TIP3    H170073   4.528   6.799  16.194  1.1571 -0.8773  0.4131
16194TIP3    H270074   4.472   6.659  16.211 -0.5268 -0.4946 -1.5417
16195TIP3   OH270075   1.967   4.670  14.043 -0.3264 -0.0302 -0.6392
16195TIP3    H170076   1.979   4.762  14.023  1.8157  0.0677  0.7968
16195TIP3    H270077   2.037   4.625  13.996  0.2077 -0.6150  0.6780
16196TIP3   OH270078   2.868   4.894   6.045  0.2764  0.0340 -0.7628
16196TIP3    H170079   2.921   4.961   6.003 -1.0048  1.3975 -0.2725
16196TIP3    H270080   2.779   4.927   6.040  0.0598  0.8139  3.8301
16197TIP3   OH270081   0.447   0.895  12.018  0.0014  0.5327  0.0882
16197TIP3    H170082   0.419   0.881  11.928 -0.0113 -1.1283  0.3207
16197TIP3    H270083   0.542   0.901  12.013  0.2514 -2.1637  0.1978
16198TIP3   OH270084   6.727   0.206  11.837 -0.4861 -0.3166  0.6459
16198TIP3    H170085   6.809   0.174  11.799 -1.7821 -3.2401  0.0578
16198TIP3    H270086   6.746   0.217  11.930  0.7762 -0.0472  0.3812
16199TIP3   OH270087   4.435   0.775  14.039  0.2416  0.2391 -0.7134
16199TIP3    H170088   4.527   0.801  14.037  0.7085 -1.2542  0.1738
16199TIP3    H270089   4.387   0.857  14.046  1.4535  1.0944 -1.8664
16200TIP3   OH270090   0.076   3.862  11.739 -0.1112  0.2364 -0.6503
16200TIP3    H170091   0.164   3.866  11.700 -0.6303 -1.0104 -2.0418
16200TIP3    H270092   0.069   3.773  11.773  0.4098  1.3207  2.7218
16201TIP3   OH270093   3.410   3.252   4.252  0.1432 -0.2119 -0.4529
16201TIP3    H170094   3.332   3.242   4.307  0.8881 -1.6090  0.4096
16201TIP3    H270095   3.404   3.341   4.218 -2.2630 -0.5312 -1.1062
16202TIP3   OH270096   1.218   6.228  11.846  0.1257  0.2920 -0.2651
16202TIP3    H170097   1.208   6.310  11.895  0.4048  1.5936 -2.2587
16202TIP3    H270098   1.179   6.162  11.903 -4.4600  2.4478 -0.3636
16203TIP3   OH270099   2.900   1.031  11.982 -0.3805  0.3510  0.0437
16203TIP3    H170100   2.946   1.114  11.982 -0.8595  0.6205  0.3836
16203TIP3    H270101   2.968   0.965  11.966  0.4119  0.5766  2.1662
16204TIP3   OH270102   2.726   0.561  11.608  0.0797 -0.4838 -0.3022
16204TIP3    H170103   2.733   0.642  11.658 -0.1686 -0.6064 -0.0639
16204TIP3    H270104   2.655   0.513  11.650  0.4527 -0.9773 -0.2208
16205TIP3   OH270105   5.529   1.974  11.109 -0.0809  0.2337 -0.1620
16205TIP3    H170106   5.609   1.984  11.160  0.7868 -1.5177 -1.0777
16205TIP3    H270107   5.556   1.924  11.032 -2.0745 -0.5136 -0.4307
16206TIP3   OH270108   3.511   1.351  12.169 -0.1640 -0.1020 -0.4583
16206TIP3    H170109   3.560   1.345  12.087  0.4345  1.3222 -0.2397
16206TIP3    H270110   3.486   1.443  12.176 -2.0878 -0.6018 -0.0825
16207TIP3   OH270111   1.299   3.813  11.202  0.5268  0.4026  0.2215
16207TIP3    H170112   1.271   3.727  11.172  0.5627  0.6272 -0.4724
16207TIP3    H270113   1.390   3.820  11.174  0.1377  1.1930 -0.9297
16208TIP3   OH270114   1.772   3.989   6.039 -0.3422  0.1976  0.0745
16208TIP3    H170115   1.826   3.959   6.112 -0.4877 -0.2938 -0.0160
16208TIP3    H270116   1.733   3.910   6.004 -1.1688  0.5532  0.1724
16209TIP3   OH270117   0.211   4.682  11.274  0.6961 -0.2704  0.2149
16209TIP3    H170118   0.222   4.639  11.359 -0.9069 -0.8819  0.1508
16209TIP3    H270119   0.139   4.744  11.288  1.1229  0.3854 -0.4304
16210TIP3   OH270120   3.856   4.200   4.013 -0.0106  0.4570 -0.2933
16210TIP3    H170121   3.801   4.277   4.023  0.6394  0.8831  0.0963
16210TIP3    H270122   3.807   4.130   4.055 -0.2594  0.8337  0.0567
16211TIP3   OH270123   2.993   0.241   0.196 -0.5013  0.0879 -0.4291
16211TIP3    H170124   3.073   0.196   0.222  0.3220  1.7765  0.1107
16211TIP3    H270125   2.929   0.171   0.184  1.0167 -1.3081 -0.8227
16212TIP3   OH270126   5.134   2.071   0.861  0.7729  0.2269  0.1882
16212TIP3    H170127   5.099   1.997   0.812 -0.5434  0.3903  0.8224
16212TIP3    H270128   5.177   2.125   0.795  2.9915 -1.7179 -0.1167
16213TIP3   OH270129   3.878   3.861   1.760 -0.2885  0.1318  0.1261
16213TIP3    H170130   3.882   3.766   1.753  1.9285  0.1032  1.0654
16213TIP3    H270131   3.867   3.892   1.670  2.0109 -0.9357 -0.5877
16214TIP3   OH270132   6.033   2.143  13.324  0.0849  0.6872  0.5335
16214TIP3    H170133   6.078   2.083  13.384  0.3281  0.8360  0.4987
16214TIP3    H270134   6.002   2.087  13.253  0.0252  0.5511  0.6656
16215TIP3   OH270135   0.903   1.610   1.103 -0.3014  0.0792  0.6337
16215TIP3    H170136   0.821   1.567   1.078 -0.2217  0.2423  0.0924
16215TIP3    H270137   0.958   1.539   1.136 -0.8686  0.0461  1.5750
16216TIP3   OH270138   6.692   0.549   1.736  0.0865  0.0816  0.5053
16216TIP3    H170139   6.729   0.538   1.823 -0.1788 -0.3666  0.5614
16216TIP3    H270140   6.705   0.465   1.693 -0.8194 -0.0642  0.5100
16217TIP3   OH270141   6.565   0.829  16.060 -0.0106 -0.7234 -0.1642
16217TIP3    H170142   6.605   0.819  15.973 -0.6628  0.0029 -0.5680
16217TIP3    H270143   6.474   0.801  16.048 -0.4798  0.6753 -0.0839
16218TIP3   OH270144   6.512   2.073   5.452 -0.0662  0.2320 -0.2219
16218TIP3    H170145   6.594   2.113   5.479  0.1289 -0.4257  0.1803
16218TIP3    H270146   6.500   1.999   5.512  0.9076 -1.9540 -2.4961
16219TIP3   OH270147   2.234   1.366   2.357 -0.2127  0.8233  0.4018
16219TIP3    H170148   2.187   1.335   2.280  0.2828  0.5941  0.1844
16219TIP3    H270149   2.287   1.291   2.384 -0.4425  0.8781  1.0140
16220TIP3   OH270150   4.749   0.138   1.552  0.1642  0.0623  0.2884
16220TIP3    H170151   4.662   0.123   1.588 -0.4899 -1.7509 -1.8605
16220TIP3    H270152   4.787   0.050   1.542  1.5008  0.6978 -0.5723
16221TIP3   OH270153   3.402   0.178  11.374  0.1207 -0.4102  0.2568
16221TIP3    H170154   3.411   0.118  11.448  0.0089 -1.4903 -0.5987
16221TIP3    H270155   3.312   0.210  11.379  0.5419  0.7292  1.4626
16222TIP3   OH270156   6.498   0.192   1.643  0.0685  0.3754 -0.5166
16222TIP3    H170157   6.475   0.256   1.710 -1.0098 -0.5047 -0.0131
16222TIP3    H270158   6.464   0.228   1.561  0.9984  1.2427 -0.5445
16223TIP3   OH270159   2.158   1.406   5.219  0.4131 -0.1681 -0.0771
16223TIP3    H170160   2.175   1.348   5.293 -1.1185  0.4618  0.8137
16223TIP3    H270161   2.094   1.360   5.166 -0.4410  0.4681  0.3750
16224TIP3   OH270162   1.667   1.205  14.280  0.1158  0.1757 -0.0499
16224TIP3    H170163   1.614   1.260  14.338  1.1753  0.2546  0.8734
16224TIP3    H270164   1.757   1.236  14.292  0.2639  0.9316 -2.5717
16225TIP3   OH270165   4.394   6.411  15.609 -0.7152 -0.3978 -0.1394
16225TIP3    H170166   4.451   6.426  15.684  0.3863  0.9691 -1.1951
16225TIP3    H270167   4.398   6.493  15.559 -1.4265 -1.2506 -1.6778
16226TIP3   OH270168   5.510   6.148   1.284  0.0241  0.1168  0.1837
16226TIP3    H170169   5.567   6.117   1.354  0.4684 -1.7548 -0.9389
16226TIP3    H270170   5.547   6.111   1.204 -1.1139  1.2653 -0.9381
16227TIP3   OH270171   6.469   5.507  14.166  0.5447 -0.3737 -0.1110
16227TIP3    H170172   6.417   5.583  14.194  0.6153 -0.0495 -0.8222
16227TIP3    H270173   6.517   5.538  14.089 -1.2517 -1.7903 -1.9195
16228TIP3   OH270174   3.924   5.085  16.860 -0.2285 -0.0884  0.0368
16228TIP3    H170175   3.947   5.176  16.844 -4.5114  1.6838  2.1750
16228TIP3    H270176   3.891   5.053  16.776  0.4844  0.6238 -0.5279
16229TIP3   OH270177   6.637   3.167  13.507 -0.1657 -0.7364 -0.1940
16229TIP3    H170178   6.696   3.120  13.567 -1.2993  0.4848  2.0191
16229TIP3    H270179   6.576   3.099  13.477 -1.8404 -0.8620  3.0334
16230TIP3   OH270180   3.180   5.092   5.414  0.6222  0.4027  0.1761
16230TIP3    H170181   3.125   5.014   5.409 -0.8244  1.3126  1.2545
16230TIP3    H270182   3.142   5.153   5.351  0.8661  0.7756  0.3876
16231TIP3   OH270183   5.115   5.204  14.897  0.6975 -0.1373 -0.9134
16231TIP3    H170184   5.154   5.143  14.960 -1.1114 -2.0049 -1.4683
16231TIP3    H270185   5.164   5.285  14.908  3.1087 -1.6152  0.0201
16232TIP3   OH270186   6.795   0.892   1.576  0.4634 -0.0579 -1.3173
16232TIP3    H170187   6.847   0.814   1.594 -1.2435 -0.8811  0.4211
16232TIP3    H270188   6.709   0.873   1.614 -0.7311  1.7509 -2.9292
16233TIP3   OH270189   2.888   4.897   1.662 -0.5729  0.3094  0.4144
16233TIP3    H170190   2.929   4.858   1.584 -0.6194  3.1079 -1.1499
16233TIP3    H270191   2.818   4.952   1.627 -1.5712  0.5152  2.5929
16234TIP3   OH270192   4.336   4.604  14.214  0.0080 -0.4839  0.1565
16234TIP3    H170193   4.292   4.522  14.191  0.2492 -0.8006  0.8163
16234TIP3    H270194   4.309   4.666  14.145 -2.4682 -0.3196  1.1772
16235TIP3   OH270195   0.116   3.009  12.288 -0.6170 -0.3881  0.0654
16235TIP3    H170196   0.087   2.934  12.340 -1.2592  0.0898  0.4251
16235TIP3    H270197   0.078   3.085  12.333  1.0891  0.2708  0.4674
16236TIP3   OH270198   2.529   6.559  15.449  0.3591  0.7080  0.0413
16236TIP3    H170199   2.448   6.509  15.452  0.3866  0.6883  0.5277
16236TIP3    H270200   2.565   6.552  15.538  1.3718 -0.0806 -0.4086
16237TIP3   OH270201   5.126   1.922  15.891  0.5179 -0.3245 -0.2236
16237TIP3    H170202   5.140   1.996  15.832  1.3367 -0.3502 -0.0814
16237TIP3    H270203   5.213   1.903  15.927  0.4399 -1.7393 -0.7191
16238TIP3   OH270204   3.727   4.440   3.144 -0.3241 -1.2570  0.1424
16238TIP3    H170205   3.789   4.421   3.215 -0.4044  0.4237  0.7028
16238TIP3    H270206   3.669   4.507   3.179 -1.3670 -1.5155 -0.9965
16239TIP3   OH270207   3.266   3.232   1.699  0.0291 -0.8578 -0.1488
16239TIP3    H170208   3.355   3.265   1.700  0.0520 -0.8656  1.8559
16239TIP3    H270209   3.231   3.258   1.614 -0.0347  4.6017  1.2115
16240TIP3   OH270210   4.155   0.485  11.808  0.0675  0.1171  0.4987
16240TIP3    H170211   4.130   0.574  11.784 -0.0773  0.0464  0.3902
16240TIP3    H270212   4.090   0.459  11.873 -0.6433 -0.3716 -0.3890
16241TIP3   OH270213   3.035   0.795   4.629  0.4824  0.2152  0.7451
16241TIP3    H170214   3.018   0.708   4.593  2.2385 -0.2591  0.9645
16241TIP3    H270215   3.119   0.821   4.592 -0.8675  2.7177 -0.8848
16242TIP3   OH270216   6.574   4.781   1.304 -0.3301  0.2643  0.8037
16242TIP3    H170217   6.559   4.818   1.391 -3.0687  0.2236  0.4324
16242TIP3    H270218   6.492   4.736   1.282  0.3421  0.0836 -1.7023
16243TIP3   OH270219   3.029   4.195  12.455  0.1860 -0.0850 -0.5487
16243TIP3    H170220   3.015   4.108  12.493 -1.3586  0.3580 -0.0484
16243TIP3    H270221   3.079   4.242  12.522 -1.6118  0.3559  0.5284
16244TIP3   OH270222   4.497   5.088  11.388  0.3310 -0.1496 -0.0525
16244TIP3    H170223   4.419   5.034  11.394  0.5037 -0.3482  0.4089
16244TIP3    H270224   4.476   5.168  11.437  0.8189 -0.6852  1.0564
16245TIP3   OH270225   4.634   3.201  14.391 -0.0832  0.0768 -0.1422
16245TIP3    H170226   4.686   3.252  14.453  1.2199  1.0258 -1.9394
16245TIP3    H270227   4.651   3.110  14.415  0.1111  0.4140  1.0845
16246TIP3   OH270228   4.863   3.915  14.799  0.0513  0.5614 -0.3925
16246TIP3    H170229   4.769   3.913  14.813  0.3145 -0.0102  1.5036
16246TIP3    H270230   4.890   4.003  14.826  0.1666  0.4369 -0.0934
16247TIP3   OH270231   3.990   2.598   3.097 -0.4889 -0.0003  0.1510
16247TIP3    H170232   4.007   2.545   3.174 -1.0506 -0.1802  0.1543
16247TIP3    H270233   4.065   2.658   3.091 -0.9172  0.6844  1.3939
16248TIP3   OH270234   4.991   3.075  15.875  0.7485 -0.3886 -0.3592
16248TIP3    H170235   4.936   2.997  15.870  0.5685 -0.2906  0.1180
16248TIP3    H270236   5.080   3.041  15.870  0.6514 -0.5339 -1.3317
16249TIP3   OH270237   4.432   5.162  11.064 -0.2768  0.0942 -0.2327
16249TIP3    H170238   4.511   5.172  11.012 -0.7001  0.0000 -0.8987
16249TIP3    H270239   4.366   5.215  11.020 -0.6742 -0.0883  0.1300
16250TIP3   OH270240   3.732   4.407   4.896  0.0779 -0.4246 -0.2238
16250TIP3    H170241   3.645   4.440   4.918 -0.1878 -0.2823 -1.4346
16250TIP3    H270242   3.768   4.473   4.837  1.4630  0.0858  1.1264
16251TIP3   OH270243   1.684   1.799   2.458  0.5703 -0.3051 -0.9375
16251TIP3    H170244   1.629   1.761   2.389  0.4170 -0.5954 -0.6595
16251TIP3    H270245   1.707   1.886   2.425 -0.0656 -0.1718 -1.0539
16252TIP3   OH270246   5.252   5.419   6.075 -0.6096 -0.4532  0.7900
16252TIP3    H170247   5.200   5.372   6.140 -2.3876  1.0245  0.5301
16252TIP3    H270248   5.188   5.447   6.009  0.1993  2.6913  1.1801
16253TIP3   OH270249   0.131   2.054  11.227  0.1107  0.4937  0.3814
16253TIP3    H170250   0.221   2.077  11.204 -0.2835  1.2316 -0.4846
16253TIP3    H270251   0.080   2.130  11.202 -0.4929  1.0467  3.0540
16254TIP3   OH270252   1.424   0.498   5.018 -0.5055 -0.0165 -0.1322
16254TIP3    H170253   1.514   0.466   5.006 -1.0927 -1.0835 -2.0855
16254TIP3    H270254   1.434   0.576   5.073  1.6862  0.2802 -0.8355
16255TIP3   OH270255   4.488   5.401  13.730  0.5276  0.4427 -0.0744
16255TIP3    H170256   4.415   5.356  13.773 -0.4463  1.0644 -1.0284
16255TIP3    H270257   4.507   5.347  13.654 -1.7542  2.3478 -2.1808
16256TIP3   OH270258   3.854   2.865   3.431  0.5305 -0.2531 -0.1313
16256TIP3    H170259   3.875   2.892   3.342  0.5855 -2.7384 -0.9253
16256TIP3    H270260   3.773   2.913   3.452  1.2244  1.3716 -0.9482
16257TIP3   OH270261   3.906   3.064   5.662 -0.6323  0.1338 -0.2414
16257TIP3    H170262   3.870   3.150   5.642 -1.4401  0.0032  0.5820
16257TIP3    H270263   3.918   3.064   5.757  0.0602 -0.4021 -0.3203
16258TIP3   OH270264   3.598   6.451  13.546  0.7487  0.2692 -0.7874
16258TIP3    H170265   3.532   6.476  13.482  1.2422  0.4768 -1.2233
16258TIP3    H270266   3.663   6.403  13.495  0.7584 -0.2461 -0.2980
16259TIP3   OH270267   2.787   0.366   4.714  0.0178  0.2091  0.2895
16259TIP3    H170268   2.755   0.450   4.681 -1.9845 -0.1503  1.1783
16259TIP3    H270269   2.822   0.387   4.801 -0.8883  0.0789  0.6970
16260TIP3   OH270270   2.466   5.776   3.739  0.6468 -0.1297  0.2355
16260TIP3    H170271   2.499   5.852   3.786  1.5920 -0.1576 -0.3585
16260TIP3    H270272   2.486   5.702   3.797  0.7924 -0.0515  0.2849
16261TIP3   OH270273   6.506   6.057   1.438 -0.3495 -0.1782  0.0175
16261TIP3    H170274   6.421   6.089   1.407 -0.1142  0.1799 -0.2820
16261TIP3    H270275   6.504   5.963   1.422 -0.2848 -0.0169 -0.9797
16262TIP3   OH270276   4.586   4.626  15.828  0.1045 -0.0689 -0.1236
16262TIP3    H170277   4.614   4.680  15.903 -0.3763 -0.7947  0.6032
16262TIP3    H270278   4.552   4.689  15.765 -1.7231  0.4352  1.2774
16263TIP3   OH270279   3.604   6.153   4.112 -0.4181 -0.3700 -0.2340
16263TIP3    H170280   3.624   6.059   4.111  0.2740 -0.2302 -0.2194
16263TIP3    H270281   3.534   6.163   4.047  1.0312 -0.5926 -1.9183
16264TIP3   OH270282   0.134   6.155  15.912 -0.4879 -0.0023  0.2688
16264TIP3    H170283   0.149   6.119  15.825 -0.6696  0.4408  0.0472
16264TIP3    H270284   0.118   6.249  15.897 -0.6956  0.0482  0.7578
16265TIP3   OH270285   1.411   0.020  14.998  0.6028 -0.2507  0.4359
16265TIP3    H170286   1.389   0.105  14.959 -0.5061 -0.8509 -0.2984
16265TIP3    H270287   1.505   0.010  14.982  2.3126  3.3904  5.5723
16266TIP3   OH270288   6.071   3.569  16.889  0.0418 -0.0444  0.0248
16266TIP3    H170289   6.048   3.503  16.954  1.7437 -2.5051 -1.7353
16266TIP3    H270290   6.092   3.520  16.810 -0.0968  2.7154 -1.8762
16267TIP3   OH270291   5.461   0.823   5.654  0.5392 -0.3512 -0.2722
16267TIP3    H170292   5.522   0.818   5.580  1.0720  2.3776 -0.1327
16267TIP3    H270293   5.485   0.750   5.710  0.8507 -1.8432 -2.2266
16268TIP3   OH270294   0.849   3.771  12.627 -0.3307  0.5526 -0.0605
16268TIP3    H170295   0.848   3.764  12.722 -0.5920 -1.0865 -0.1457
16268TIP3    H270296   0.759   3.793  12.604 -0.6252 -0.4768  0.0263
16269TIP3   OH270297   5.694   5.210   1.253  0.1219 -0.2970 -0.0443
16269TIP3    H170298   5.665   5.180   1.339 -1.2000  1.0387  0.0105
16269TIP3    H270299   5.777   5.253   1.270 -0.3707  0.4003  0.6647
16270TIP3   OH270300   3.229   2.467  11.332 -0.1356  0.0308  0.5399
16270TIP3    H170301   3.137   2.441  11.341  0.1595 -1.6739 -0.7405
16270TIP3    H270302   3.229   2.531  11.261 -0.4609  0.9864  1.3808
16271TIP3   OH270303   2.245   6.752   5.381 -0.2482  0.3230 -1.0005
16271TIP3    H170304   2.272   6.839   5.407  0.0669 -0.3840  1.2369
16271TIP3    H270305   2.149   6.757   5.374 -0.3856  0.5130  0.6480
16272TIP3   OH270306   3.616   2.555   2.380  0.0649  0.1552 -0.7121
16272TIP3    H170307   3.630   2.649   2.388  1.7765 -0.2080  3.1130
16272TIP3    H270308   3.547   2.536   2.444  0.7032 -1.3137 -0.4077
16273TIP3   OH270309   5.436   0.481  12.982 -0.0351 -0.8715 -0.5253
16273TIP3    H170310   5.492   0.465  12.906 -0.4239 -1.4110 -0.7091
16273TIP3    H270311   5.359   0.526  12.947  0.5908  0.5125 -0.1644
16274TIP3   OH270312   0.462   5.679   0.786 -0.1955  0.1764 -0.2548
16274TIP3    H170313   0.375   5.640   0.777 -0.0572 -0.1989  0.0120
16274TIP3    H270314   0.500   5.676   0.698 -1.1045  1.9129 -0.7580
16275TIP3   OH270315   2.984   5.151   2.037  0.3417 -0.2657  0.5517
16275TIP3    H170316   3.071   5.175   2.068 -0.6739  1.8719  1.9633
16275TIP3    H270317   2.962   5.217   1.972 -0.8434  0.2026  1.3854
16276TIP3   OH270318   1.160   1.749   1.163  0.2012  0.2668  0.6803
16276TIP3    H170319   1.190   1.658   1.173 -0.3109  0.0999  0.7437
16276TIP3    H270320   1.066   1.741   1.145  0.2262  0.7675  0.2985
16277TIP3   OH270321   4.100   2.511  14.511 -0.2128 -0.5222 -0.6828
16277TIP3    H170322   4.091   2.605  14.531  1.1882  0.2248 -3.0641
16277TIP3    H270323   4.037   2.496  14.441  1.4046 -0.6194 -2.1906
16278TIP3   OH270324   5.542   1.435  16.170 -0.3256  0.0198 -0.0981
16278TIP3    H170325   5.598   1.363  16.142  0.5747  0.8783 -0.5655
16278TIP3    H270326   5.496   1.401  16.247  0.8764 -0.6933  0.3231
16279TIP3   OH270327   5.366   4.920   0.389  0.0778 -0.5672  0.3987
16279TIP3    H170328   5.336   5.000   0.346  0.7314 -0.8195 -0.5843
16279TIP3    H270329   5.454   4.942   0.420  0.3302 -0.9544 -0.0362
16280TIP3   OH270330   0.844   0.189   1.395  0.4473  0.2733 -0.6551
16280TIP3    H170331   0.784   0.221   1.462  1.5950 -0.0598  0.5916
16280TIP3    H270332   0.833   0.094   1.398  0.7743  0.2356 -0.6670
16281TIP3   OH270333   0.055   2.657  10.438 -0.6733  0.0182 -0.1661
16281TIP3    H170334   0.147   2.680  10.455 -0.0325 -1.6290 -1.1287
16281TIP3    H270335   0.005   2.727  10.478  1.0292  1.2362 -0.0536
16282TIP3   OH270336   6.535   6.464  11.453 -0.0679  0.2942  0.0285
16282TIP3    H170337   6.534   6.553  11.488  1.9707  1.3295 -2.3078
16282TIP3    H270338   6.582   6.413  11.519  2.1675  1.8218 -0.2922
16283TIP3   OH270339   6.189   3.819   0.214 -0.2191 -0.9040  0.0929
16283TIP3    H170340   6.105   3.782   0.240 -0.5663 -0.4062 -0.3016
16283TIP3    H270341   6.199   3.896   0.271  1.1366 -2.3116  1.8726
16284TIP3   OH270342   2.226   2.230  14.094 -0.1937 -0.0469 -0.0394
16284TIP3    H170343   2.292   2.290  14.060  0.1491  0.0479  0.7705
16284TIP3    H270344   2.276   2.154  14.124 -0.5443 -0.3698 -0.2614
16285TIP3   OH270345   0.461   0.475  12.851  0.1432  0.1213  0.0380
16285TIP3    H170346   0.503   0.390  12.836 -0.0241  0.3412 -1.9467
16285TIP3    H270347   0.412   0.464  12.932  0.9117 -1.3584  0.3308
16286TIP3   OH270348   4.216   4.175  13.528 -0.3630  0.3045 -0.0365
16286TIP3    H170349   4.183   4.132  13.449  0.0181  1.4784 -0.8686
16286TIP3    H270350   4.309   4.155  13.529 -0.2437  0.8196 -0.2561
16287TIP3   OH270351   3.382   0.650   6.071 -0.0587 -0.2671  0.0637
16287TIP3    H170352   3.388   0.709   6.146 -0.3297 -1.9533  1.4681
16287TIP3    H270353   3.451   0.585   6.086 -0.7165 -1.1593 -0.6522
16288TIP3   OH270354   4.684   4.004  12.693 -0.0656 -0.6508  0.3404
16288TIP3    H170355   4.703   4.086  12.648 -1.1878  0.3448  1.6160
16288TIP3    H270356   4.681   3.939  12.622  1.2451  0.2926 -0.6507
16289TIP3   OH270357   2.860   1.753   4.896  0.0470 -0.5731  0.8268
16289TIP3    H170358   2.951   1.771   4.919 -0.0563  3.1410 -0.9208
16289TIP3    H270359   2.865   1.710   4.810  0.1512 -1.3043  1.1949
16290TIP3   OH270360   0.939   3.077  16.585  0.3893 -0.0083 -0.3936
16290TIP3    H170361   0.962   3.155  16.535  1.9504  0.5485  1.0850
16290TIP3    H270362   0.886   3.110  16.658  0.3894 -0.4215 -0.2022
16291TIP3   OH270363   0.515   4.859  16.684 -0.2714  0.6546 -0.0147
16291TIP3    H170364   0.587   4.919  16.705 -0.4913  1.0418 -0.3680
16291TIP3    H270365   0.548   4.773  16.712  0.4601  0.7750 -0.4668
16292TIP3   OH270366   6.465   4.948  12.064 -0.2477 -0.4912 -0.4341
16292TIP3    H170367   6.473   4.933  12.159 -0.8192  2.2969  0.1330
16292TIP3    H270368   6.516   4.877  12.025 -0.4356 -2.0495  1.9203
16293TIP3   OH270369   3.111   4.080   3.683  0.1520 -0.6649 -0.2168
16293TIP3    H170370   3.089   4.169   3.710 -0.6560 -0.8730 -0.1442
16293TIP3    H270371   3.078   4.025   3.754 -1.2047 -1.1528 -1.1759
16294TIP3   OH270372   0.256   0.394  15.177  0.0002  0.5592  0.1462
16294TIP3    H170373   0.260   0.409  15.083 -1.7764  0.9274  0.0980
16294TIP3    H270374   0.336   0.435  15.211 -0.3961  2.3743 -0.9590
16295TIP3   OH270375   0.350   0.153   1.524  0.2330  0.3388  0.1024
16295TIP3    H170376   0.272   0.151   1.578 -1.1565 -0.1478 -1.8157
16295TIP3    H270377   0.395   0.071   1.544 -0.9877 -0.4979 -0.4515
16296TIP3   OH270378   4.736   1.223   6.302 -0.5995  0.2448 -0.3531
16296TIP3    H170379   4.800   1.294   6.303  0.1568 -0.3788 -1.4258
16296TIP3    H270380   4.680   1.239   6.378  1.1959  0.4812  0.9837
16297TIP3   OH270381   2.926   6.135  13.925  0.4011 -0.2470 -0.0124
16297TIP3    H170382   2.857   6.108  13.985 -0.7080  0.8769 -0.7345
16297TIP3    H270383   2.999   6.161  13.981 -0.9041  1.5912  0.9203
16298TIP3   OH270384   3.020   2.025   1.168  0.0052 -0.5376 -0.6329
16298TIP3    H170385   3.020   2.010   1.262  0.3666  0.2157 -0.5054
16298TIP3    H270386   2.928   2.024   1.143 -0.0415 -2.9944 -0.6736
16299TIP3   OH270387   6.686   1.288  13.561 -0.5032 -0.8512 -0.3530
16299TIP3    H170388   6.625   1.360  13.549 -1.4110 -1.2201  1.6487
16299TIP3    H270389   6.644   1.231  13.625  2.4868 -0.4053  2.2656
16300TIP3   OH270390   4.535   4.502  15.598  0.0287 -0.1843 -0.2347
16300TIP3    H170391   4.461   4.455  15.638  0.8305 -1.4671 -0.1969
16300TIP3    H270392   4.585   4.536  15.673  0.1564 -0.4044 -0.2190
16301TIP3   OH270393   1.120   5.836  14.029 -0.1419  0.0891  0.1287
16301TIP3    H170394   1.173   5.858  14.105 -0.6650 -0.1425  0.5723
16301TIP3    H270395   1.085   5.920  13.998  1.5188  0.4102 -0.9736
16302TIP3   OH270396   1.407   6.462  16.177  0.6618 -0.4015 -0.2223
16302TIP3    H170397   1.498   6.491  16.179  0.2974  0.7381  0.5360
16302TIP3    H270398   1.375   6.487  16.091  0.2500  1.8542  0.5387
16303TIP3   OH270399   6.155   0.842   4.070  0.0607  0.1651 -0.4180
16303TIP3    H170400   6.072   0.847   4.023 -0.4358 -0.0097  0.4098
16303TIP3    H270401   6.130   0.831   4.162  1.0007  0.3968 -0.1182
16304TIP3   OH270402   4.089   6.171   2.728 -0.1934 -0.0581 -0.0413
16304TIP3    H170403   4.054   6.220   2.654  1.6128  1.5521  0.0837
16304TIP3    H270404   4.171   6.216   2.751 -0.1187 -1.1612  2.2239
16305TIP3   OH270405   5.467   6.621   5.540 -0.5087 -0.1151  0.4526
16305TIP3    H170406   5.440   6.566   5.466 -0.4432 -0.0850  0.4065
16305TIP3    H270407   5.486   6.706   5.501 -1.7238  0.2885  0.6719
16306TIP3   OH270408   0.611   3.022  14.802  0.1319  0.8286  0.2560
16306TIP3    H170409   0.533   3.052  14.849 -0.0110  0.9362 -0.0465
16306TIP3    H270410   0.681   3.080  14.833 -0.1150  1.3954 -0.2192
16307TIP3   OH270411   5.308   1.857  16.742  0.3667 -0.3158 -0.7430
16307TIP3    H170412   5.244   1.845  16.672  0.9402  1.4751 -1.6355
16307TIP3    H270413   5.391   1.827  16.705  0.2463 -1.8929  0.1451
16308TIP3   OH270414   4.560   1.364  14.401  0.1296  0.3830  0.3408
16308TIP3    H170415   4.609   1.441  14.374  0.5373  0.1035  0.2730
16308TIP3    H270416   4.477   1.370  14.353  0.3523  0.5294 -0.0283
16309TIP3   OH270417   5.816   3.968  15.546 -0.1068 -0.1319  0.2528
16309TIP3    H170418   5.720   3.965  15.550 -0.2067  2.0728  1.0396
16309TIP3    H270419   5.844   3.939  15.633  0.0209 -1.7725 -0.3065
16310TIP3   OH270420   6.043   6.577   5.405  0.3169 -0.4655  0.3170
16310TIP3    H170421   5.949   6.557   5.403  0.1261  0.4374 -0.4172
16310TIP3    H270422   6.052   6.644   5.473 -0.2119  2.2481 -2.0639
16311TIP3   OH270423   0.420   4.059   2.006  0.2595 -0.1603 -0.0365
16311TIP3    H170424   0.395   4.039   1.916  0.3796 -0.8514  0.0761
16311TIP3    H270425   0.505   4.017   2.017 -0.4272 -1.3921  0.8540
16312TIP3   OH270426   3.062   5.771  14.318  0.1943 -0.4774  0.6135
16312TIP3    H170427   3.121   5.696  14.323  1.7151  0.7501  3.1080
16312TIP3    H270428   2.993   5.752  14.383  0.8660  0.4293  1.6338
16313TIP3   OH270429   6.776   6.292   0.154  0.0637  0.1735  0.1541
16313TIP3    H170430   6.757   6.210   0.109 -1.7050  0.2206  0.7593
16313TIP3    H270431   6.863   6.278   0.193 -0.1579 -1.3672  0.1645
16314TIP3   OH270432   3.723   1.213   2.639  0.5898  0.2867  0.4381
16314TIP3    H170433   3.652   1.184   2.581  0.5238  0.0588  0.6315
16314TIP3    H270434   3.793   1.149   2.625  0.8655  0.6668  0.0414
16315TIP3   OH270435   4.507   0.748  10.882  0.2293 -0.7471  0.0147
16315TIP3    H170436   4.414   0.769  10.882  0.4209  0.2341 -1.4411
16315TIP3    H270437   4.518   0.690  10.807  0.9149 -0.2233 -0.2989
16316TIP3   OH270438   4.835   4.456  14.886  0.4456  0.1978  0.3813
16316TIP3    H170439   4.830   4.438  14.979  0.2258  1.0333  0.5383
16316TIP3    H270440   4.927   4.441  14.863  0.4783 -0.0963  0.7093
16317TIP3   OH270441   5.090   0.205   4.992  0.7155 -0.6661 -0.4103
16317TIP3    H170442   5.064   0.129   4.939  0.0372 -1.7737  1.3961
16317TIP3    H270443   5.185   0.199   4.999  0.7704 -0.7290 -1.1587
16318TIP3   OH270444   0.952   4.778   4.195 -0.4807 -0.5423  0.3826
16318TIP3    H170445   1.017   4.727   4.145  1.6755  2.0289  0.3093
16318TIP3    H270446   0.924   4.719   4.265  2.9439 -1.4454  1.1784
16319TIP3   OH270447   6.780   6.161   3.645  0.0633  0.0766  0.2630
16319TIP3    H170448   6.718   6.146   3.574 -0.0696 -1.2802  0.6505
16319TIP3    H270449   6.792   6.256   3.646  0.4613  0.1126 -1.9027
16320TIP3   OH270450   3.942   6.266   0.499 -0.0258  0.4307  0.2545
16320TIP3    H170451   3.965   6.326   0.428  2.5301 -1.0883 -0.3121
16320TIP3    H270452   3.851   6.288   0.520 -0.2808  2.1753 -2.2101
16321TIP3   OH270453   4.967   0.905   1.020 -0.3710  0.4152  0.3134
16321TIP3    H170454   5.030   0.860   1.075 -1.0135 -0.7105  0.1514
16321TIP3    H270455   5.009   0.908   0.934 -0.7451 -0.8304  0.0688
16322TIP3   OH270456   6.828   5.831  15.800  0.1715  0.6080 -0.0114
16322TIP3    H170457   6.922   5.818  15.802  0.1219  0.2595  0.0702
16322TIP3    H270458   6.800   5.815  15.891 -0.2088 -1.1238 -0.4014
16323TIP3   OH270459   3.934   6.774  16.337 -0.4683 -0.2767 -0.1717
16323TIP3    H170460   3.877   6.706  16.300 -0.6533  0.6399 -1.6361
16323TIP3    H270461   4.013   6.771  16.282 -0.7912  1.1890 -0.7534
16324TIP3   OH270462   2.862   5.521   1.443 -0.7712 -0.8511 -0.7810
16324TIP3    H170463   2.806   5.597   1.428 -0.0537  0.4853  2.4250
16324TIP3    H270464   2.934   5.531   1.382 -1.2382  0.4799 -1.1354
16325TIP3   OH270465   4.012   4.599  13.155  0.1675 -0.1683  0.1124
16325TIP3    H170466   4.093   4.634  13.117 -0.4126  0.1132 -0.8768
16325TIP3    H270467   4.040   4.520  13.201  0.9190 -0.3644 -0.6562
16326TIP3   OH270468   3.924   0.423  14.864 -0.3801 -0.1603 -0.1046
16326TIP3    H170469   3.906   0.442  14.772  0.7399 -0.2519 -0.3608
16326TIP3    H270470   3.845   0.449  14.911  0.0054  2.4565 -0.7646
16327TIP3   OH270471   2.505   6.298   1.230 -0.1187  0.0223  0.4715
16327TIP3    H170472   2.527   6.272   1.140  0.1611  2.5746 -0.2763
16327TIP3    H270473   2.434   6.239   1.255 -0.4292 -0.5401 -1.5484
16328TIP3   OH270474   3.945   6.375   1.724 -0.4298  0.7582  0.3085
16328TIP3    H170475   3.993   6.452   1.753 -2.5430  2.5972 -0.7253
16328TIP3    H270476   3.962   6.370   1.630 -1.4003  0.8169  0.1223
16329TIP3   OH270477   2.047   2.281   0.455 -0.1080  0.7046 -0.4967
16329TIP3    H170478   1.980   2.329   0.505  0.3899  1.6912 -0.7467
16329TIP3    H270479   1.997   2.220   0.400 -0.7147  0.3327  0.4381
16330TIP3   OH270480   6.146   6.869   3.795 -0.5313  0.0688  0.1477
16330TIP3    H170481   6.200   6.947   3.808 -0.2831  0.2022 -1.4850
16330TIP3    H270482   6.061   6.892   3.832  0.1277  0.3277  1.5748
16331TIP3   OH270483   2.789   3.727   2.738  0.6814 -0.3240 -0.1405
16331TIP3    H170484   2.739   3.744   2.657  2.3272 -0.8683 -1.3229
16331TIP3    H270485   2.723   3.695   2.800 -1.6774  4.8241  0.5348
16332TIP3   OH270486   5.849   5.277   1.858  0.3042 -0.3490 -0.1565
16332TIP3    H170487   5.927   5.332   1.870 -0.7476  0.7785  2.3124
16332TIP3    H270488   5.834   5.238   1.944 -0.3706 -2.6837 -1.2603
16333TIP3   OH270489   5.288   3.497  11.126 -0.0662 -0.2739  0.1876
16333TIP3    H170490   5.238   3.578  11.123 -0.0238 -0.2754 -0.7554
16333TIP3    H270491   5.240   3.437  11.068  1.4531 -0.0239 -1.4050
16334TIP3   OH270492   5.952   6.314   2.540 -0.1305  0.3557 -0.1059
16334TIP3    H170493   5.927   6.401   2.571  1.7253  0.5240  1.0653
16334TIP3    H270494   6.042   6.303   2.570 -0.1292 -1.7544 -0.7363
16335TIP3   OH270495   5.389   4.221  11.394 -0.4475  0.0794  0.7467
16335TIP3    H170496   5.383   4.202  11.488  0.3724 -0.0968  0.7710
16335TIP3    H270497   5.460   4.165  11.363 -0.2539  0.6391  0.1562
16336TIP3   OH270498   1.101   0.830  11.588  0.2578  0.2749 -0.1912
16336TIP3    H170499   1.142   0.867  11.510  1.0251 -1.1606 -0.5026
16336TIP3    H270500   1.174   0.811  11.647 -0.3120  1.3945  0.9443
16337TIP3   OH270501   2.874   6.008   5.699  0.8837 -0.6319  0.0052
16337TIP3    H170502   2.949   6.044   5.653  0.6074  0.3963  0.3282
16337TIP3    H270503   2.910   5.975   5.782  0.8543  0.7625  0.6025
16338TIP3   OH270504   3.337   4.331  11.439 -0.0561 -0.1775 -0.4943
16338TIP3    H170505   3.428   4.314  11.415  0.6012  1.6684  0.4904
16338TIP3    H270506   3.337   4.334  11.535 -1.1842 -0.2969 -0.4688
16339TIP3   OH270507   3.016   2.617   1.883 -0.4623 -0.8853  0.2732
16339TIP3    H170508   3.080   2.546   1.898  0.5204 -0.5410 -1.9041
16339TIP3    H270509   3.035   2.680   1.953  0.2625 -1.6762  0.8257
16340TIP3   OH270510   5.347   2.817   1.492 -0.3344 -0.0135  0.6520
16340TIP3    H170511   5.269   2.869   1.471 -0.6684  0.1007  2.0910
16340TIP3    H270512   5.378   2.786   1.407 -0.8093  1.5625 -0.1362
16341TIP3   OH270513   4.976   0.159  10.336 -0.6205 -0.2754  0.4048
16341TIP3    H170514   4.891   0.124  10.363 -0.4179  0.0839  1.5889
16341TIP3    H270515   5.026   0.082  10.310 -1.4653 -0.4352 -0.7968
16342TIP3   OH270516   1.699   3.133  13.696  0.2094 -0.0455 -0.1388
16342TIP3    H170517   1.704   3.183  13.615 -0.7974 -0.9307 -0.7840
16342TIP3    H270518   1.733   3.047  13.673  1.0342  0.0410  0.7075
16343TIP3   OH270519   5.497   0.120  13.343  0.6754  0.1940 -0.1777
16343TIP3    H170520   5.580   0.074  13.334  0.0712 -1.2643  1.1673
16343TIP3    H270521   5.473   0.108  13.435 -0.5284  1.4766 -0.2857
16344TIP3   OH270522   3.015   0.098  12.617  0.0952  0.2660 -0.4701
16344TIP3    H170523   3.110   0.105  12.619  0.0075  1.5838  0.4807
16344TIP3    H270524   2.989   0.100  12.709 -1.0137  3.3784 -0.7302
16345TIP3   OH270525   5.733   5.235   3.032 -0.1669  0.1289  0.6355
16345TIP3    H170526   5.817   5.225   2.987  0.4892 -0.8771  1.9884
16345TIP3    H270527   5.690   5.150   3.023 -1.5203  0.9263 -0.8793
16346TIP3   OH270528   1.597   5.395  15.154  0.0279  0.0613 -0.3630
16346TIP3    H170529   1.594   5.422  15.246  1.9690  2.1782 -0.8409
16346TIP3    H270530   1.645   5.312  15.155  0.0744  0.0859  0.5116
16347TIP3   OH270531   5.934   6.429  13.433  0.2409  0.1089 -0.5265
16347TIP3    H170532   6.009   6.449  13.377 -0.5036  0.2186 -1.5097
16347TIP3    H270533   5.941   6.492  13.505  1.1053  0.0932 -0.5875
16348TIP3   OH270534   1.394   2.602  11.605 -0.1110 -0.4512  0.0370
16348TIP3    H170535   1.486   2.626  11.615  0.1600 -0.9779 -1.0207
16348TIP3    H270536   1.373   2.624  11.514 -1.2615  0.3873  0.4856
16349TIP3   OH270537   1.614   1.242  13.844 -0.2208 -0.0247  0.0179
16349TIP3    H170538   1.638   1.289  13.924 -0.1485  0.5579 -0.3352
16349TIP3    H270539   1.586   1.311  13.783 -0.5710 -0.4847 -0.3569
16350TIP3   OH270540   5.890   1.678  10.811  0.3588 -0.1431 -0.0290
16350TIP3    H170541   5.968   1.627  10.832  0.2011 -1.0173 -1.4480
16350TIP3    H270542   5.863   1.647  10.725 -1.3362  0.4266  0.2544
16351TIP3   OH270543   3.241   5.911  11.377 -0.6979  0.0370 -0.1033
16351TIP3    H170544   3.215   5.955  11.458 -1.2309 -1.6327  0.6859
16351TIP3    H270545   3.332   5.887  11.390 -0.6116  0.2975 -0.2376
16352TIP3   OH270546   6.354   3.567   2.815 -0.2392  0.1608 -0.1109
16352TIP3    H170547   6.360   3.572   2.911 -0.3026  2.1800 -0.1752
16352TIP3    H270548   6.267   3.602   2.795 -0.6463 -1.2037 -0.8838
16353TIP3   OH270549   1.638   6.599   0.385 -0.1529  0.8356  0.6426
16353TIP3    H170550   1.687   6.676   0.354 -1.2557  0.9996 -0.8103
16353TIP3    H270551   1.705   6.532   0.399  0.4970  0.7847 -2.0848
16354TIP3   OH270552   0.904   1.969   3.927 -0.3901 -0.1825 -0.2165
16354TIP3    H170553   0.906   1.876   3.908  0.1803 -0.1650 -0.2434
16354TIP3    H270554   0.961   1.980   4.003  0.3221  0.2772 -0.8088
16355TIP3   OH270555   0.631   1.850   2.068 -0.3467 -0.2438  0.3876
16355TIP3    H170556   0.653   1.787   1.999  0.2401  1.7120 -1.3191
16355TIP3    H270557   0.540   1.872   2.052 -0.7692 -1.1390  1.4316
16356TIP3   OH270558   1.704   0.317  11.467 -0.5611 -0.1159  0.3174
16356TIP3    H170559   1.763   0.245  11.444  0.3510  0.8014 -0.2933
16356TIP3    H270560   1.743   0.355  11.546  1.1242  2.0224 -1.4317
16357TIP3   OH270561   6.710   6.528   0.520  0.4093 -0.1437 -0.4761
16357TIP3    H170562   6.772   6.551   0.451  1.0591 -3.0204 -0.9637
16357TIP3    H270563   6.627   6.515   0.475  0.5793 -0.9339 -0.5771
16358TIP3   OH270564   3.213   5.057   2.806 -0.4245  0.6648  0.0698
16358TIP3    H170565   3.118   5.040   2.809 -0.3006  0.0055  0.7582
16358TIP3    H270566   3.220   5.152   2.796 -1.1549  0.5836 -1.3549
16359TIP3   OH270567   0.321   3.973   4.416  0.3841  0.1888 -0.0929
16359TIP3    H170568   0.251   4.023   4.459 -0.1802  0.2603 -1.0547
16359TIP3    H270569   0.402   4.014   4.446 -0.0459  1.2642 -0.3276
16360TIP3   OH270570   6.749   3.922   3.638 -0.9178 -0.5214 -0.2199
16360TIP3    H170571   6.828   3.942   3.588 -0.6935 -1.5955 -0.2982
16360TIP3    H270572   6.714   4.008   3.662  1.1943 -0.0347  1.3194
16361TIP3   OH270573   1.833   3.979  16.585  0.2905  0.2438 -0.4924
16361TIP3    H170574   1.808   3.889  16.566 -0.5596 -0.4036  2.9565
16361TIP3    H270575   1.926   3.975  16.607  0.1771  0.1386 -0.0273
16362TIP3   OH270576   3.371   3.844   3.454 -0.0887 -0.2658  0.8131
16362TIP3    H170577   3.281   3.876   3.460  0.4894  1.3994  1.1273
16362TIP3    H270578   3.408   3.889   3.378 -0.6707 -4.1062 -2.0473
16363TIP3   OH270579   0.401   4.017  13.899 -0.1673  0.3284 -0.0118
16363TIP3    H170580   0.377   4.070  13.823  2.3485  1.4052 -0.1707
16363TIP3    H270581   0.467   4.069  13.944 -1.3726 -0.4337  2.7901
16364TIP3   OH270582   4.068   3.407  16.188 -0.1768 -0.9118 -0.3160
16364TIP3    H170583   4.071   3.483  16.247 -0.4346 -0.0495 -1.3726
16364TIP3    H270584   4.141   3.353  16.215 -1.3633 -1.4844  2.0044
16365TIP3   OH270585   5.810   3.790   5.690 -0.1976  0.1571 -0.3908
16365TIP3    H170586   5.820   3.865   5.750  1.3016 -0.5333  0.2813
16365TIP3    H270587   5.718   3.766   5.697 -0.0095 -0.1583  2.0193
16366TIP3   OH270588   5.968   3.539  13.708 -0.3516 -0.3611  0.2608
16366TIP3    H170589   5.883   3.582  13.697 -0.8947 -1.2525  0.8169
16366TIP3    H270590   6.020   3.569  13.633  0.1970  3.2240  1.8675
16367TIP3   OH270591   1.376   6.504  15.877 -0.6464  0.1041 -0.2547
16367TIP3    H170592   1.347   6.587  15.840 -1.6752 -0.2471 -0.2787
16367TIP3    H270593   1.317   6.439  15.839 -0.4843 -0.5053  0.5052
16368TIP3   OH270594   6.462   2.390   1.570  0.0157  0.3562 -0.2187
16368TIP3    H170595   6.473   2.470   1.621  0.7557  0.1342 -0.0174
16368TIP3    H270596   6.454   2.420   1.479  0.5406  0.6418 -0.1715
16369TIP3   OH270597   0.006   1.550   3.839 -0.4285 -0.1177  0.3830
16369TIP3    H170598  -0.016   1.597   3.919 -0.2094  0.8567 -0.1178
16369TIP3    H270599   0.100   1.538   3.843 -0.4886 -0.5574  0.5280
16370TIP3   OH270600   5.596   1.223  10.263  0.8417 -0.0775  0.5366
16370TIP3    H170601   5.667   1.252  10.204 -0.3743  1.1504 -0.3883
16370TIP3    H270602   5.518   1.268  10.230 -0.8345 -2.9452  0.2545
16371TIP3   OH270603   5.455   5.200  16.606  0.4494 -0.4104  0.1926
16371TIP3    H170604   5.410   5.148  16.672 -1.5495  0.8131 -0.1178
16371TIP3    H270605   5.451   5.147  16.526 -1.6286  0.1545 -0.1367
16372TIP3   OH270606   5.093   1.781  16.574  0.4224  0.6164  0.5057
16372TIP3    H170607   5.147   1.794  16.497  1.9687 -3.2456  0.7518
16372TIP3    H270608   5.010   1.825  16.552  0.9494  0.1165 -3.1373
16373TIP3   OH270609   3.567   6.852   0.777 -0.3087  0.0217  0.5193
16373TIP3    H170610   3.613   6.785   0.727  2.1265  0.2792  2.2299
16373TIP3    H270611   3.509   6.804   0.835  1.2568 -0.6836  1.5796
16374TIP3   OH270612   3.921   0.054  10.940 -0.5303  0.3117  0.2738
16374TIP3    H170613   3.945  -0.038  10.925  0.6158  0.7835 -0.9237
16374TIP3    H270614   3.940   0.098  10.857 -1.2900  1.6015  0.7505
16375TIP3   OH270615   4.144   1.423  15.980  0.0221 -0.2341 -0.4959
16375TIP3    H170616   4.206   1.494  15.998 -0.3560  0.3298 -1.3272
16375TIP3    H270617   4.154   1.363  16.054  1.1529  0.1226 -0.3327
16376TIP3   OH270618   3.522   5.085   0.333  0.4688 -0.4569 -0.1638
16376TIP3    H170619   3.500   5.171   0.369  2.9244  0.7588 -1.3573
16376TIP3    H270620   3.483   5.023   0.395  1.5419  1.4988  2.6726
16377TIP3   OH270621   6.085   3.910   3.276  0.1668 -0.8221 -0.1424
16377TIP3    H170622   6.040   3.907   3.192  0.6265 -1.3314 -0.3755
16377TIP3    H270623   6.116   3.821   3.290  0.2353 -0.7022  0.4897
16378TIP3   OH270624   3.129   2.866   5.882  0.1572 -0.9686  0.0105
16378TIP3    H170625   3.070   2.942   5.882  1.6840  0.2757 -0.7235
16378TIP3    H270626   3.194   2.888   5.948  0.3840 -1.8554  0.0859
16379TIP3   OH270627   6.572   6.545   2.417  0.3099  0.4751  0.3224
16379TIP3    H170628   6.574   6.494   2.336 -0.2035 -0.2962  0.7777
16379TIP3    H270629   6.663   6.550   2.445  0.4681  0.5859 -0.1997
16380TIP3   OH270630   1.445   3.342  14.736 -0.2279  0.4816 -0.0663
16380TIP3    H170631   1.516   3.392  14.777 -0.1009 -1.5631  2.4566
16380TIP3    H270632   1.486   3.300  14.660  0.6005  1.3160 -0.0981
16381TIP3   OH270633   0.067   0.607  15.014 -0.2924 -0.0138  0.6162
16381TIP3    H170634  -0.002   0.570  15.068 -0.4400 -1.0142 -0.2291
16381TIP3    H270635   0.143   0.614  15.073 -0.1686 -1.9433  0.7581
16382TIP3   OH270636   5.314   5.508   3.459  0.4504 -0.5254  0.9949
16382TIP3    H170637   5.334   5.415   3.467 -0.9444 -1.0581 -0.8920
16382TIP3    H270638   5.265   5.529   3.539 -0.0005 -1.6422  1.0292
16383TIP3   OH270639   3.973   5.816   6.045  0.0333 -0.3403 -0.5201
16383TIP3    H170640   3.899   5.756   6.036  0.2050 -0.6714  0.1673
16383TIP3    H270641   3.999   5.837   5.956 -0.9546 -0.1473 -0.7657
16384TIP3   OH270642   2.770   3.055  15.990  0.3084  0.9308 -0.0340
16384TIP3    H170643   2.819   3.034  16.069 -1.2350  1.2018  1.0506
16384TIP3    H270644   2.806   3.139  15.960  0.0304  1.4979  1.1707
16385TIP3   OH270645   2.836   1.325  13.685 -0.0325  0.1409  0.7917
16385TIP3    H170646   2.841   1.402  13.741 -0.1705  0.6405  0.1373
16385TIP3    H270647   2.747   1.327  13.649 -0.7304 -1.4268  2.2925
16386TIP3   OH270648   4.887   3.311  13.064 -0.5410 -0.3066 -0.2884
16386TIP3    H170649   4.919   3.223  13.080 -1.4783 -0.6325 -0.1877
16386TIP3    H270650   4.883   3.318  12.969  0.3456 -0.0604 -0.3238
16387TIP3   OH270651   2.359   4.128   5.720 -0.7632  0.0687  0.0270
16387TIP3    H170652   2.449   4.099   5.728 -0.9168  0.0206  2.0237
16387TIP3    H270653   2.307   4.047   5.721 -0.9001  0.1544 -0.0315
16388TIP3   OH270654   0.004   4.916  12.388 -1.0035  0.9366 -0.1718
16388TIP3    H170655   0.002   4.991  12.447 -0.6834 -0.6012  1.9064
16388TIP3    H270656   0.061   4.852  12.431 -0.6539 -0.2438 -2.2224
16389TIP3   OH270657   4.407   0.921   3.524  0.7053 -0.0404  0.3152
16389TIP3    H170658   4.437   1.002   3.565 -0.2474  0.9390 -0.8802
16389TIP3    H270659   4.342   0.885   3.585 -0.3786  1.1774 -0.0902
16390TIP3   OH270660   3.925   0.500   1.077  0.2856  0.1215  0.8645
16390TIP3    H170661   3.846   0.452   1.104  0.7107 -0.8554  0.4381
16390TIP3    H270662   3.891   0.580   1.037 -0.3822  1.1597  3.3562
16391TIP3   OH270663   3.300   3.295  16.110 -0.2351  0.3189  0.1174
16391TIP3    H170664   3.276   3.220  16.055  0.0835  1.4158 -1.5964
16391TIP3    H270665   3.384   3.325  16.074 -0.1743  1.2692  1.0183
16392TIP3   OH270666   0.195   3.171   4.080  0.1910  0.5138  0.1354
16392TIP3    H170667   0.136   3.167   4.005 -0.2262  0.8092  0.4393
16392TIP3    H270668   0.169   3.251   4.127 -0.4497 -0.3325  1.3039
16393TIP3   OH270669   1.482   2.218  14.191 -0.0733 -0.2515 -0.3471
16393TIP3    H170670   1.484   2.305  14.152 -1.4768 -0.2722 -0.5332
16393TIP3    H270671   1.401   2.178  14.156 -0.7121 -0.7453  1.5629
16394TIP3   OH270672   2.954   3.092   3.806  0.0760 -0.1027 -0.2718
16394TIP3    H170673   2.894   3.158   3.770 -1.7774 -1.3551  0.3835
16394TIP3    H270674   3.010   3.068   3.732  0.7538  2.0969 -0.5526
16395TIP3   OH270675   6.439   2.983  13.517  0.0555 -0.1507 -0.2412
16395TIP3    H170676   6.415   2.891  13.502  1.1939 -0.3026 -1.3774
16395TIP3    H270677   6.362   3.033  13.491 -0.5405 -0.7689  0.2907
16396TIP3   OH270678   3.407   5.406   0.560  0.1361  0.7457 -0.2184
16396TIP3    H170679   3.353   5.386   0.484 -0.6929 -0.2855  0.5958
16396TIP3    H270680   3.404   5.326   0.613  2.8033  0.4926 -0.3078
16397TIP3   OH270681   4.524   5.630   4.534  0.0957 -0.3388  0.0243
16397TIP3    H170682   4.610   5.664   4.556 -1.0742  1.2783  2.4958
16397TIP3    H270683   4.499   5.676   4.454  0.7233  0.7006  0.4089
16398TIP3   OH270684   6.504   1.359   3.622 -0.4957 -0.7242  0.6823
16398TIP3    H170685   6.509   1.435   3.565 -0.7121 -1.2734 -0.0911
16398TIP3    H270686   6.578   1.368   3.681 -0.3900 -0.0373  0.4530
16399TIP3   OH270687   2.186   4.559   6.306  0.5966 -0.0824 -0.4122
16399TIP3    H170688   2.200   4.639   6.356 -0.0976  0.7754 -1.5461
16399TIP3    H270689   2.103   4.573   6.260  0.6361 -1.3062 -0.9074
16400TIP3   OH270690   0.442   4.227  16.397  0.4421 -0.5872  0.2104
16400TIP3    H170691   0.477   4.219  16.309 -1.4962  1.0057 -0.7607
16400TIP3    H270692   0.348   4.212  16.387 -0.0207  1.0215  1.7621
16401TIP3   OH270693   2.672   0.262  13.981  0.2313  0.1607  0.3200
16401TIP3    H170694   2.695   0.355  13.986  0.2694  0.1630  0.1096
16401TIP3    H270695   2.597   0.253  14.041  0.5698  0.2148  0.7569
16402TIP3   OH270696   3.125   4.832  15.322  0.2517  0.7435  0.1853
16402TIP3    H170697   3.054   4.838  15.258  0.3493  0.0217 -0.0031
16402TIP3    H270698   3.205   4.848  15.271  0.3255  0.2183  0.1253
16403TIP3   OH270699   3.208   2.150  10.219  0.4634 -0.4783 -0.3817
16403TIP3    H170700   3.188   2.089  10.148  0.1626 -0.1654 -0.5662
16403TIP3    H270701   3.265   2.100  10.278  0.4908 -0.8286 -0.7007
16404TIP3   OH270702   3.163   4.594   3.693 -0.5515  0.1654  0.0368
16404TIP3    H170703   3.161   4.579   3.788 -0.6301  0.2242  0.0443
16404TIP3    H270704   3.071   4.599   3.667 -0.6450 -3.1011 -0.5710
16405TIP3   OH270705   5.033   6.796   2.866  0.5029  0.1123  0.8586
16405TIP3    H170706   5.108   6.789   2.806  0.9454 -1.2667  1.5250
16405TIP3    H270707   5.065   6.759   2.948 -0.3763  1.1515  1.7017
16406TIP3   OH270708   5.759   1.813   3.665  0.1600 -0.1178 -0.1353
16406TIP3    H170709   5.761   1.828   3.571 -0.7697 -0.9954 -0.3095
16406TIP3    H270710   5.730   1.897   3.702  0.3752  0.1817 -0.6336
16407TIP3   OH270711   4.318   4.976   5.508  0.0430 -0.4084 -0.0830
16407TIP3    H170712   4.312   4.989   5.602 -1.7874  0.5595 -0.2947
16407TIP3    H270713   4.240   5.018   5.472  1.0055 -0.2067 -2.0962
16408TIP3   OH270714   6.671   6.653   3.491 -0.0719 -0.2115 -0.2067
16408TIP3    H170715   6.596   6.713   3.490 -1.3445 -1.7203  0.0890
16408TIP3    H270716   6.726   6.683   3.418 -1.8514 -0.1137 -1.5970
16409TIP3   OH270717   4.708   3.723   6.089 -0.5001 -0.1419  0.5982
16409TIP3    H170718   4.744   3.811   6.086  0.2471 -0.4517 -2.2338
16409TIP3    H270719   4.768   3.674   6.146  0.8232  0.4775 -0.2350
16410TIP3   OH270720   5.691   6.174  16.957 -0.0968  0.1736 -0.1912
16410TIP3    H170721   5.746   6.098  16.973 -0.9285 -0.3702  0.1389
16410TIP3    H270722   5.705   6.194  16.864  0.4761 -0.0851 -0.1657
16411TIP3   OH270723   0.124   4.665  13.509  0.4924  0.9880  0.6692
16411TIP3    H170724   0.071   4.714  13.447  0.4548 -0.2626 -0.3125
16411TIP3    H270725   0.214   4.688  13.488  0.4296  1.7079  1.1464
16412TIP3   OH270726   2.738   0.717  12.943  0.4569  0.3953 -0.4093
16412TIP3    H170727   2.644   0.723  12.931  0.0997  0.9268  2.2136
16412TIP3    H270728   2.769   0.807  12.940  0.7587  0.2932 -0.4351
16413TIP3   OH270729   0.479   5.996  15.630 -0.1786 -0.4241  0.4881
16413TIP3    H170730   0.480   5.981  15.536 -1.5223 -1.6718  0.6289
16413TIP3    H270731   0.569   6.020  15.652 -0.3703  2.8036 -1.5026
16414TIP3   OH270732   5.059   5.294   3.308 -0.2407  0.1941  0.1280
16414TIP3    H170733   5.008   5.359   3.356 -1.2339 -0.6767  0.2732
16414TIP3    H270734   5.002   5.268   3.235  0.6940  0.4837 -0.7285
16415TIP3   OH270735   1.890   1.706  10.772 -0.2072  0.4218 -0.1214
16415TIP3    H170736   1.814   1.679  10.823  1.5501  0.1408  2.5347
16415TIP3    H270737   1.891   1.647  10.697 -0.8895 -1.6279  1.4020
16416TIP3   OH270738   2.127   1.485   6.187 -0.0559 -0.0684  0.4545
16416TIP3    H170739   2.103   1.564   6.234 -0.9093 -1.2970  2.2170
16416TIP3    H270740   2.089   1.414   6.238  1.4168 -1.6889 -0.5559
16417TIP3   OH270741   3.474   6.826  11.518  0.1330  0.2014  0.2852
16417TIP3    H170742   3.546   6.803  11.460 -0.0180  1.6755 -0.5381
16417TIP3    H270743   3.430   6.743  11.536  0.7984 -0.4222 -0.8716
16418TIP3   OH270744   3.926   1.478  15.033 -0.2671  0.0470 -0.0955
16418TIP3    H170745   3.849   1.450  14.983 -0.7932 -0.0602  0.7683
16418TIP3    H270746   3.953   1.401  15.083  0.9997 -0.2105 -1.1002
16419TIP3   OH270747   3.273   3.574  12.078  0.0498  0.2502 -0.0331
16419TIP3    H170748   3.273   3.612  12.166 -1.1637  0.0164  0.0747
16419TIP3    H270749   3.250   3.483  12.091  2.2148 -0.4089 -0.3776
16420TIP3   OH270750   2.702   3.689   5.576 -0.2016 -0.1159  0.0003
16420TIP3    H170751   2.713   3.601   5.612  0.3116  0.9727  2.7596
16420TIP3    H270752   2.791   3.721   5.563 -0.3631  0.4185  0.1712
16421TIP3   OH270753   5.193   4.952  16.438  0.5974  0.0592  0.2740
16421TIP3    H170754   5.179   4.965  16.532  1.0888  2.3634  0.0853
16421TIP3    H270755   5.108   4.968  16.398  0.5786 -0.1058  0.2451
16422TIP3   OH270756   2.332   4.477   3.660 -0.0868  0.1036  0.1760
16422TIP3    H170757   2.283   4.395   3.669  2.4190 -1.5711 -0.4533
16422TIP3    H270758   2.384   4.466   3.580 -0.7820  2.9817 -0.8030
16423TIP3   OH270759   0.368   6.054   1.188  0.2771 -0.2823 -0.2010
16423TIP3    H170760   0.392   5.961   1.185  0.6951 -0.1689 -0.4364
16423TIP3    H270761   0.382   6.085   1.099  0.0348 -0.0188 -0.1468
16424TIP3   OH270762   3.351   5.828  11.708  0.1953 -0.0045 -0.4062
16424TIP3    H170763   3.333   5.922  11.707 -0.8128 -0.1836  0.0542
16424TIP3    H270764   3.266   5.787  11.719  0.6741 -0.9653 -0.1711
16425TIP3   OH270765   3.112   2.123  16.876  0.0161  0.1956  0.1573
16425TIP3    H170766   3.039   2.061  16.884  2.5010 -2.8352  1.1848
16425TIP3    H270767   3.126   2.154  16.966  1.4780 -1.1647  0.4297
16426TIP3   OH270768   0.489   6.537   2.955 -0.3024  0.3243  0.9885
16426TIP3    H170769   0.422   6.532   3.024 -1.5190 -0.4842 -0.2101
16426TIP3    H270770   0.526   6.625   2.965 -1.0491  0.5348  2.1401
16427TIP3   OH270771   0.479   2.095   0.223 -0.5276  0.3880  0.2222
16427TIP3    H170772   0.439   2.073   0.139 -0.4660 -1.0556  0.5368
16427TIP3    H270773   0.407   2.094   0.286 -0.1296 -2.0562  0.7613
16428TIP3   OH270774   0.416   6.294   5.625  0.4191  0.1205  0.4053
16428TIP3    H170775   0.464   6.224   5.581  1.3415  0.5338  0.7278
16428TIP3    H270776   0.376   6.252   5.701 -0.3744 -0.3857 -0.2684
16429TIP3   OH270777   0.975   1.681  11.925 -0.0755 -0.3998 -0.3483
16429TIP3    H170778   1.020   1.678  12.010 -0.1770 -0.6413 -0.3028
16429TIP3    H270779   0.950   1.590  11.909  0.5953 -0.4822 -0.9827
16430TIP3   OH270780   5.744   6.544  14.890 -0.1186  0.4361  0.2352
16430TIP3    H170781   5.821   6.555  14.834  0.1340  3.3241  0.9362
16430TIP3    H270782   5.762   6.466  14.942 -0.2344 -2.1741 -3.3474
16431TIP3   OH270783   1.281   2.931  11.571  0.8630  0.2682  0.2697
16431TIP3    H170784   1.347   2.997  11.547 -0.6516  1.4634 -0.7914
16431TIP3    H270785   1.236   2.968  11.646  0.8744 -0.1799  0.4985
16432TIP3   OH270786   6.478   6.472   0.798 -0.4413 -0.1168 -0.2170
16432TIP3    H170787   6.469   6.394   0.853  0.0423  1.2149  1.9089
16432TIP3    H270788   6.563   6.461   0.754 -0.1189 -0.5576  0.4900
16433TIP3   OH270789   4.435   1.843  14.540 -0.1530 -0.1268 -0.5896
16433TIP3    H170790   4.509   1.901  14.522  0.8073 -1.4733 -1.1593
16433TIP3    H270791   4.448   1.816  14.631 -0.7453  0.7124 -0.2398
16434TIP3   OH270792   3.476   0.502  10.308 -0.1370 -0.0064 -0.0771
16434TIP3    H170793   3.437   0.438  10.249 -0.1745  0.0911 -0.1582
16434TIP3    H270794   3.410   0.516  10.375 -0.9420  1.4223 -1.1238
16435TIP3   OH270795   3.454   2.221   0.978 -0.1039  0.3016 -0.2976
16435TIP3    H170796   3.366   2.187   0.992 -0.2734  0.1296 -1.6731
16435TIP3    H270797   3.455   2.252   0.887  0.9819  1.1390 -0.0286
16436TIP3   OH270798   3.094   0.613   6.091  0.2023 -0.4843 -0.0401
16436TIP3    H170799   3.080   0.527   6.132  0.1503 -0.4739 -0.0355
16436TIP3    H270800   3.189   0.623   6.087  0.2171 -0.8046 -0.5888
16437TIP3   OH270801   6.382   6.183  14.575 -0.1493 -0.0081 -0.4518
16437TIP3    H170802   6.331   6.252  14.616 -0.2129 -0.3905  0.1141
16437TIP3    H270803   6.327   6.105  14.581  0.2589 -0.2905 -0.3569
16438TIP3   OH270804   5.505   3.080  16.101  0.7981 -0.4536 -0.1838
16438TIP3    H170805   5.422   3.123  16.122  0.4416 -0.5139 -1.3716
16438TIP3    H270806   5.533   3.041  16.183 -0.6041 -0.8475  0.1445
16439TIP3   OH270807   2.495   6.397  12.796 -0.1225  0.2959 -0.0952
16439TIP3    H170808   2.544   6.466  12.751  1.1517 -0.4145  0.1632
16439TIP3    H270809   2.562   6.337  12.829 -1.2010 -1.5630 -1.0848
16440TIP3   OH270810   2.155   6.101  13.387 -0.2442 -0.1817 -0.1211
16440TIP3    H170811   2.194   6.021  13.421  0.5595 -0.1663 -0.9725
16440TIP3    H270812   2.203   6.172  13.432 -0.4703 -0.1762  0.1102
16441TIP3   OH270813   3.180   2.872  12.952  0.4924 -0.6669 -0.2261
16441TIP3    H170814   3.227   2.813  13.011 -0.0870 -3.3366 -2.2068
16441TIP3    H270815   3.115   2.815  12.910 -0.7158  1.6399 -1.6478
16442TIP3   OH270816   0.346   6.633   1.398  0.3831 -0.3582  0.2911
16442TIP3    H170817   0.381   6.568   1.337  0.9005  0.5012 -0.3490
16442TIP3    H270818   0.263   6.596   1.427  0.1782 -0.8365 -0.8520
16443TIP3   OH270819   0.234   3.698  12.588 -0.4551 -0.3521 -0.2022
16443TIP3    H170820   0.259   3.636  12.519  2.2981 -1.3986  1.5732
16443TIP3    H270821   0.287   3.775  12.571 -0.7073 -0.1291  0.0225
16444TIP3   OH270822   5.463   6.332   0.013 -0.4517 -0.0970  0.4076
16444TIP3    H170823   5.542   6.279   0.024 -0.9028 -0.6109  1.2989
16444TIP3    H270824   5.399   6.273  -0.026 -0.1648  0.5498 -1.1112
16445TIP3   OH270825   4.328   5.172   0.175 -0.2076 -0.3306  0.0590
16445TIP3    H170826   4.368   5.251   0.137  0.1318 -0.3741  0.3278
16445TIP3    H270827   4.282   5.204   0.252 -1.6516 -0.0919 -0.8524
16446TIP3   OH270828   6.195   1.867  12.222  0.1981 -0.0213  0.0371
16446TIP3    H170829   6.271   1.882  12.277  1.1721  1.8293 -1.6880
16446TIP3    H270830   6.161   1.782  12.251  1.5157  0.1608  2.3992
16447TIP3   OH270831   0.052   4.301   5.571 -0.9419  0.3276 -0.6104
16447TIP3    H170832  -0.030   4.251   5.563 -1.3260  1.1153 -2.1658
16447TIP3    H270833   0.109   4.264   5.503 -0.2096  0.1656  0.0826
16448TIP3   OH270834   6.877   0.335  15.335 -0.1504  0.7190  0.2434
16448TIP3    H170835   6.953   0.373  15.293 -0.0059 -0.6327 -0.7962
16448TIP3    H270836   6.806   0.396  15.317  0.4094  1.3323  0.0958
16449TIP3   OH270837   0.419   4.866   4.011 -0.6661  0.2480  0.2374
16449TIP3    H170838   0.462   4.888   3.929 -1.4442  0.3106 -0.1706
16449TIP3    H270839   0.445   4.935   4.072  0.2195 -0.0060  0.1603
16450TIP3   OH270840   4.533   1.601   4.670  1.2641 -0.5324  0.0919
16450TIP3    H170841   4.467   1.615   4.738  1.8944  0.3918  0.5314
16450TIP3    H270842   4.487   1.621   4.589  0.6905 -1.0162  0.2780
16451TIP3   OH270843   3.776   1.769  16.774 -0.1382 -0.4527 -0.1156
16451TIP3    H170844   3.722   1.847  16.762 -1.6259 -1.3807  0.1984
16451TIP3    H270845   3.849   1.781  16.713 -1.8432 -0.1173 -2.2465
16452TIP3   OH270846   0.899   2.969  12.973 -0.7575 -0.2009 -0.1141
16452TIP3    H170847   0.949   2.899  12.932 -2.2459 -0.9892 -0.6801
16452TIP3    H270848   0.833   2.992  12.908 -1.7217  0.1389  0.9529
16453TIP3   OH270849   5.914   4.864  12.471  0.3091 -0.0027  0.3680
16453TIP3    H170850   5.842   4.897  12.417  1.2737  0.0102 -0.9593
16453TIP3    H270851   5.875   4.852  12.558 -1.9592 -2.3850 -0.8436
16454TIP3   OH270852   1.386   0.328   3.267  0.1193 -0.4310 -0.6867
16454TIP3    H170853   1.295   0.332   3.238  0.7934  0.8896 -2.8603
16454TIP3    H270854   1.437   0.323   3.186  2.0494  0.3065  0.4102
16455TIP3   OH270855   0.513   6.413   3.215  0.3495 -0.0590 -0.2104
16455TIP3    H170856   0.572   6.434   3.287  1.1521  1.6006 -1.2888
16455TIP3    H270857   0.560   6.346   3.165  0.3455 -0.3030  0.1060
16456TIP3   OH270858   2.414   6.300   5.714 -0.0042  0.5099 -0.4328
16456TIP3    H170859   2.449   6.211   5.725  0.5417  1.0112  3.0557
16456TIP3    H270860   2.491   6.356   5.707 -0.3472  0.7655 -2.6633
16457TIP3   OH270861   2.117   4.251   5.707 -0.1325 -0.0058 -0.5598
16457TIP3    H170862   2.156   4.338   5.700  0.0264  0.0231  0.4657
16457TIP3    H270863   2.190   4.191   5.698  0.0279  0.0240  0.4130
16458TIP3   OH270864   5.011   1.523  15.464 -0.1339 -0.3294 -0.3955
16458TIP3    H170865   5.061   1.587  15.415  1.2387 -0.3015  0.9567
16458TIP3    H270866   4.976   1.464  15.398 -0.4594  1.1231 -1.5722
16459TIP3   OH270867   1.744   4.128  14.931  0.0200  0.5638  0.2469
16459TIP3    H170868   1.655   4.163  14.931 -1.1880 -2.2803  0.0665
16459TIP3    H270869   1.775   4.141  14.841 -0.8852  0.0510 -0.1489
16460TIP3   OH270870   1.244   1.662   1.951 -0.9106  0.0374 -0.4629
16460TIP3    H170871   1.211   1.581   1.991 -3.8725  0.2144 -2.2724
16460TIP3    H270872   1.279   1.634   1.866  1.7406  0.1997  0.4889
16461TIP3   OH270873   0.608   0.849   0.528  0.7452  0.5866 -0.0362
16461TIP3    H170874   0.580   0.835   0.438  0.4510  1.5473 -0.1084
16461TIP3    H270875   0.693   0.893   0.520  1.8595 -1.4280  0.1816
16462TIP3   OH270876   3.581   5.751   5.128  0.1317 -0.2032 -0.0734
16462TIP3    H170877   3.521   5.821   5.152 -0.1118  0.4775 -2.4493
16462TIP3    H270878   3.626   5.729   5.210 -0.5979  1.9339  0.9718
16463TIP3   OH270879   2.370   1.430   6.404  0.4731  0.0543 -0.7075
16463TIP3    H170880   2.463   1.453   6.404  0.6147 -0.5049 -0.8441
16463TIP3    H270881   2.357   1.383   6.322 -0.0470  0.5691 -0.9296
16464TIP3   OH270882   3.189   4.275   0.722  0.0199 -0.7532  0.5149
16464TIP3    H170883   3.204   4.346   0.783  2.9897 -2.0384  1.4401
16464TIP3    H270884   3.102   4.242   0.744 -1.1705  2.0785  0.4657
16465TIP3   OH270885   2.410   0.926  15.692  0.3597 -0.6373  0.7589
16465TIP3    H170886   2.319   0.902  15.709  1.0261 -2.1946  2.4821
16465TIP3    H270887   2.437   0.871  15.619 -0.3597  0.6213 -0.4952
16466TIP3   OH270888   4.439   1.168   0.973 -0.3442 -0.7603 -0.2358
16466TIP3    H170889   4.410   1.079   0.992  1.7506 -1.3023  0.6660
16466TIP3    H270890   4.481   1.197   1.053  1.1055  0.1448 -1.2782
16467TIP3   OH270891   5.084   3.678  14.777 -0.0044 -0.4146  0.2325
16467TIP3    H170892   5.088   3.614  14.848  0.5384  0.8391  1.3739
16467TIP3    H270893   5.002   3.726  14.792  0.5356  0.4337  0.5556
16468TIP3   OH270894   4.242   5.139   1.355 -0.2932 -0.1467  0.2315
16468TIP3    H170895   4.250   5.055   1.309  2.5399 -0.1148  0.4891
16468TIP3    H270896   4.304   5.197   1.310 -0.3396  1.0359  1.6209
16469TIP3   OH270897   1.840   3.621  14.035  0.0377  0.8188 -0.6040
16469TIP3    H170898   1.899   3.672  14.091  0.2014  0.0641 -0.0725
16469TIP3    H270899   1.752   3.644  14.065  0.1379 -0.4148  0.7597
16470TIP3   OH270900   1.485   2.587   4.606  0.4537 -0.3294  0.6162
16470TIP3    H170901   1.507   2.498   4.634 -0.1669 -0.7453 -0.1857
16470TIP3    H270902   1.545   2.643   4.656  1.1239 -1.2166  0.8350
16471TIP3   OH270903   4.963   2.234  11.733 -0.0513  0.3112 -0.2243
16471TIP3    H170904   5.035   2.174  11.751 -0.1802 -0.1202 -1.1058
16471TIP3    H270905   4.954   2.232  11.638 -0.1955  1.5651 -0.2524
16472TIP3   OH270906   5.924   2.583   4.795  0.3807  0.6922  0.6842
16472TIP3    H170907   5.883   2.567   4.880  1.7349 -3.9803  0.7463
16472TIP3    H270908   5.853   2.616   4.740 -2.1701 -1.9580  2.1094
16473TIP3   OH270909   3.490   6.189  11.567 -0.3347 -0.1953  0.0309
16473TIP3    H170910   3.559   6.234  11.518 -1.9535  0.0904 -2.1340
16473TIP3    H270911   3.468   6.113  11.513 -0.3110 -1.4572  1.7225
16474TIP3   OH270912   4.950   2.742   3.456  0.4653 -0.2649 -0.1094
16474TIP3    H170913   4.937   2.712   3.546  1.5351 -0.3336  0.0269
16474TIP3    H270914   4.919   2.670   3.402  1.9770 -1.1868  0.2165
16475TIP3   OH270915   2.059   5.480   4.134  0.1153  0.1303  0.2712
16475TIP3    H170916   2.118   5.546   4.171  0.4844 -0.6328  1.0691
16475TIP3    H270917   2.017   5.525   4.061 -0.7529  1.7190  1.6829
16476TIP3   OH270918   1.814   6.168   4.440 -0.1271 -0.0018  0.2603
16476TIP3    H170919   1.762   6.106   4.390 -1.3888  1.2166 -0.0274
16476TIP3    H270920   1.776   6.165   4.529 -0.6488  0.7983  0.0806
16477TIP3   OH270921   0.439   3.716   2.123  0.2849 -0.8693 -0.5850
16477TIP3    H170922   0.366   3.778   2.128  0.7542 -0.3726  3.0950
16477TIP3    H270923   0.516   3.770   2.108  0.3545 -0.9301 -0.4433
16478TIP3   OH270924   6.251   5.560   1.647  0.0919 -0.1955 -0.1793
16478TIP3    H170925   6.179   5.574   1.586 -1.2454 -0.5869  1.2610
16478TIP3    H270926   6.289   5.647   1.659  0.0161 -0.0220 -1.1140
16479TIP3   OH270927   6.176   5.021  16.408 -0.8159 -0.1116  0.0892
16479TIP3    H170928   6.162   5.089  16.341 -0.7644 -1.0609 -0.9139
16479TIP3    H270929   6.165   4.938  16.361 -2.5960 -0.8392  1.6489
16480TIP3   OH270930   4.052   0.450   5.525  0.1982  0.4413 -0.2715
16480TIP3    H170931   4.019   0.532   5.491 -2.3425 -0.6898 -0.7628
16480TIP3    H270932   4.010   0.441   5.611 -3.3956 -2.3411 -2.0511
16481TIP3   OH270933   4.705   4.745   4.497  0.2793 -0.0750  0.1428
16481TIP3    H170934   4.697   4.664   4.548 -0.6459 -0.1582 -0.1053
16481TIP3    H270935   4.763   4.800   4.549  1.0663 -0.9596  0.2348
16482TIP3   OH270936   3.529   0.901   0.266  0.2606  0.1835 -0.0912
16482TIP3    H170937   3.526   0.808   0.289  0.0978  0.6469  1.9417
16482TIP3    H270938   3.485   0.906   0.181 -0.2341 -1.5175  0.0277
16483TIP3   OH270939   6.520   3.472  12.239 -0.3256 -0.2448 -0.1603
16483TIP3    H170940   6.467   3.413  12.185 -0.9931 -0.6273  0.8697
16483TIP3    H270941   6.582   3.415  12.284  0.7503  0.1590 -1.0705
16484TIP3   OH270942   5.790   5.082  14.289  0.5269 -0.3963 -0.1962
16484TIP3    H170943   5.743   5.153  14.245  0.3016 -0.0172  0.6476
16484TIP3    H270944   5.838   5.124  14.360  0.6542 -1.0394  0.1095
16485TIP3   OH270945   6.534   5.994  16.329 -1.1650  0.3365 -0.2533
16485TIP3    H170946   6.505   5.928  16.266 -1.6826  0.8344 -0.5481
16485TIP3    H270947   6.466   5.996  16.395 -1.3206  0.8075 -0.4231
16486TIP3   OH270948   6.661   0.541  10.797 -0.2867 -0.2190  0.0606
16486TIP3    H170949   6.605   0.519  10.723 -0.5187 -0.9698  0.4468
16486TIP3    H270950   6.710   0.461  10.815  0.0956  0.0905  0.4330
16487TIP3   OH270951   3.840   0.175  12.532  0.0731  0.3458 -0.2291
16487TIP3    H170952   3.847   0.079  12.534 -0.9361  0.1933 -1.9103
16487TIP3    H270953   3.750   0.193  12.557  0.0904  0.8107 -0.4879
16488TIP3   OH270954   2.790   0.946  14.625 -0.2552  0.5521  0.3981
16488TIP3    H170955   2.843   0.931  14.703  0.8542 -0.3584 -0.4996
16488TIP3    H270956   2.719   1.003  14.655  0.2218  0.3349  2.0259
16489TIP3   OH270957   6.500   0.037   1.159 -0.0746 -0.4924 -0.1461
16489TIP3    H170958   6.594   0.022   1.169  0.0944  0.0953 -0.7556
16489TIP3    H270959   6.493   0.132   1.147 -0.7897 -0.4752  0.3479
16490TIP3   OH270960   4.809   5.512  12.241 -0.2447 -0.3854  0.2215
16490TIP3    H170961   4.878   5.554  12.189  0.3228 -1.4466  0.0994
16490TIP3    H270962   4.855   5.451  12.298 -0.7820  1.2358  2.5108
16491TIP3   OH270963   5.153   6.727  14.332  0.4736 -0.2771 -0.0184
16491TIP3    H170964   5.248   6.737  14.318  0.7787  2.0195  2.7953
16491TIP3    H270965   5.114   6.797  14.280  0.3212 -0.9544 -0.8339
16492TIP3   OH270966   0.992   0.316  12.860 -0.6223 -0.1116  0.2578
16492TIP3    H170967   1.009   0.265  12.781 -1.1458  0.3065 -0.1295
16492TIP3    H270968   0.995   0.252  12.931 -1.6715 -0.7612 -0.2611
16493TIP3   OH270969   6.246   4.794  13.681 -0.4760 -0.7119  0.3266
16493TIP3    H170970   6.264   4.884  13.653 -1.1639 -0.5148  0.4849
16493TIP3    H270971   6.204   4.753  13.606  2.0482 -1.6944 -0.6708
16494TIP3   OH270972   5.807   3.481  13.087  0.3825  0.2628 -0.0817
16494TIP3    H170973   5.810   3.508  12.996 -1.2189 -0.6630 -0.4570
16494TIP3    H270974   5.716   3.454  13.101  0.3848  1.1467  2.0234
16495TIP3   OH270975   1.677   2.295   1.286  0.2663  0.4550  0.1168
16495TIP3    H170976   1.656   2.278   1.378  3.3822 -2.1355  0.5251
16495TIP3    H270977   1.632   2.226   1.238  0.4727  0.4318 -0.0435
16496TIP3   OH270978   2.965   5.172  14.997 -0.3769  0.3309  0.1776
16496TIP3    H170979   2.870   5.177  15.005 -0.4308 -1.2582  0.9086
16496TIP3    H270980   2.994   5.134  15.080  0.7746 -0.3077 -0.4888
16497TIP3   OH270981   1.267   3.548  16.469 -0.0897 -0.1692 -0.5946
16497TIP3    H170982   1.223   3.597  16.400 -1.6714  0.9294  1.0937
16497TIP3    H270983   1.218   3.569  16.548  2.6292 -0.0227  1.1904
16498TIP3   OH270984   0.105   2.462  10.833  0.2079  0.0640 -0.3473
16498TIP3    H170985   0.112   2.444  10.739  0.7254 -1.1461 -0.0937
16498TIP3    H270986   0.041   2.398  10.865  0.3096  0.2259  0.1882
16499TIP3   OH270987   5.334   1.515  15.098 -0.1384 -0.1950  0.0128
16499TIP3    H170988   5.304   1.463  15.024 -0.2813  0.8549 -0.6975
16499TIP3    H270989   5.383   1.454  15.153  0.3936 -0.8889 -1.1919
16500TIP3   OH270990   0.503   3.287   5.067 -0.4919  0.5489 -0.3537
16500TIP3    H170991   0.455   3.370   5.075 -1.1015  0.2117 -0.4287
16500TIP3    H270992   0.507   3.270   4.973  0.3927  0.9230 -0.3885
16501TIP3   OH270993   5.090   4.908   1.821 -0.0151 -0.2048 -0.3438
16501TIP3    H170994   5.089   4.857   1.740 -4.2605 -0.6829 -0.2342
16501TIP3    H270995   5.148   4.982   1.802  0.8599 -1.4471 -2.9909
16502TIP3   OH270996   0.896   0.606  14.637  0.6214  0.1579 -0.6509
16502TIP3    H170997   0.944   0.613  14.720 -1.8529 -1.9237  1.1518
16502TIP3    H270998   0.963   0.588  14.572  2.4694 -0.8884  1.3898
16503TIP3   OH270999   6.672   3.655   5.169 -0.6687  0.3304 -0.3589
16503TIP3    H171000   6.680   3.570   5.213 -1.3036  0.5860  0.2610
16503TIP3    H271001   6.754   3.665   5.121  0.6294  0.6261  1.8052
16504TIP3   OH271002   6.644   5.948   5.019  0.7581 -0.3161 -0.5297
16504TIP3    H171003   6.687   6.008   5.080 -1.0168 -0.1697  0.6483
16504TIP3    H271004   6.607   5.880   5.076 -0.3405 -0.5587 -1.5087
16505TIP3   OH271005   0.139   6.461  14.514  0.1184  0.4753  0.7173
16505TIP3    H171006   0.063   6.513  14.487 -0.0248 -0.8624 -1.8121
16505TIP3    H271007   0.208   6.525  14.530 -0.2719  1.5619 -1.4975
16506TIP3   OH271008   1.904   6.499  16.797 -0.1344  0.3549 -0.1774
16506TIP3    H171009   1.992   6.504  16.834  1.3015  0.3843 -3.3264
16506TIP3    H271010   1.917   6.469  16.707 -3.4537 -0.6375 -0.4592
16507TIP3   OH271011   1.759   6.333   1.695  0.4981 -0.3485  0.7387
16507TIP3    H171012   1.668   6.310   1.715  0.5666 -1.6001 -0.3331
16507TIP3    H271013   1.811   6.273   1.748  0.7593  1.0644  2.1806
16508TIP3   OH271014   1.760   2.465  14.717  0.1071 -0.4529 -0.1827
16508TIP3    H171015   1.690   2.531  14.717 -0.2708 -0.8349 -1.1078
16508TIP3    H271016   1.813   2.486  14.794 -0.7848  0.1033  0.2968
16509TIP3   OH271017   3.415   0.637   0.950  0.5488 -0.0449  0.4756
16509TIP3    H171018   3.459   0.602   0.873 -0.7991  0.3584 -0.5080
16509TIP3    H271019   3.415   0.565   1.013 -0.4408 -1.1866 -0.7861
16510TIP3   OH271020   6.060   4.617   1.457  0.0668 -0.1556 -0.4071
16510TIP3    H171021   6.035   4.607   1.549  0.1670  0.4204 -0.3167
16510TIP3    H271022   6.014   4.545   1.412  1.7286 -1.8004  0.3981
16511TIP3   OH271023   0.214   5.960  13.699  0.0844  0.0192 -0.1034
16511TIP3    H171024   0.283   5.895  13.709  1.7014  1.8989  1.6856
16511TIP3    H271025   0.260   6.043  13.688 -1.8623  1.3163  0.9077
16512TIP3   OH271026   5.669   2.021   4.810  0.3837 -1.0940 -0.4193
16512TIP3    H171027   5.674   2.012   4.714  0.3576 -0.7296 -0.4560
16512TIP3    H271028   5.753   2.059   4.835 -0.0121 -0.2028 -0.4163
16513TIP3   OH271029   6.685   3.058   6.680  0.5334 -0.5191  0.6935
16513TIP3    H171030   6.677   3.006   6.760  0.2760 -0.4839  0.6893
16513TIP3    H271031   6.748   3.127   6.703  0.0534 -0.1874  1.0325
16514TIP3   OH271032   1.319   1.669   4.761  0.0538 -0.7079 -0.0698
16514TIP3    H171033   1.378   1.607   4.717  1.2344  1.1582 -1.2441
16514TIP3    H271034   1.365   1.692   4.842  0.9855  0.6773 -0.9423
16515TIP3   OH271035   5.336   4.981   2.074 -0.3664 -0.3473 -0.1403
16515TIP3    H171036   5.296   4.895   2.084 -0.8469 -0.4267 -2.2952
16515TIP3    H271037   5.278   5.029   2.016 -0.7757  1.9428  1.9749
16516TIP3   OH271038   5.982   3.231   2.370  0.1002 -0.3053 -0.5529
16516TIP3    H171039   5.890   3.239   2.343  0.5072 -3.0991 -3.3221
16516TIP3    H271040   6.019   3.318   2.354 -1.6344  0.3697 -1.2321
16517TIP3   OH271041   2.392   4.658   2.174  0.3815 -0.0043  0.1293
16517TIP3    H171042   2.345   4.730   2.132 -1.3504 -1.8286 -1.2271
16517TIP3    H271043   2.484   4.674   2.151 -0.2363  0.4507 -2.3074
16518TIP3   OH271044   3.089   1.343   2.410  0.4080  0.4238 -0.2467
16518TIP3    H171045   3.110   1.256   2.443  1.1329  1.0913  1.1960
16518TIP3    H271046   3.172   1.391   2.415 -0.4225  1.8441  1.2572
16519TIP3   OH271047   0.019   6.360  12.574 -0.2992 -0.4561 -0.4675
16519TIP3    H171048   0.093   6.363  12.514 -1.3437  1.6579 -1.7764
16519TIP3    H271049   0.058   6.349  12.661  1.4771 -0.3349 -1.2260
16520TIP3   OH271050   5.601   4.967   4.167  0.1037  0.0404 -0.1892
16520TIP3    H171051   5.618   5.055   4.134 -1.3467  0.7135  0.7438
16520TIP3    H271052   5.623   4.972   4.260 -0.3354 -0.4800 -0.0506
16521TIP3   OH271053   4.266   2.284  15.604 -0.2919 -0.5050  0.4235
16521TIP3    H171054   4.327   2.316  15.537  0.3977  1.2714  1.8004
16521TIP3    H271055   4.208   2.225  15.557 -0.8963  1.8980 -2.1651
16522TIP3   OH271056   5.625   0.449  16.317 -0.4760 -0.3352 -0.1030
16522TIP3    H171057   5.566   0.443  16.242 -1.6956 -1.1054  0.8780
16522TIP3    H271058   5.626   0.541  16.341  0.1465 -0.0403 -1.2309
16523TIP3   OH271059   6.702   6.289   4.682  0.3630  0.0209 -0.1484
16523TIP3    H171060   6.660   6.208   4.710 -0.9141  1.0429  1.0831
16523TIP3    H271061   6.639   6.329   4.622  0.3255  0.7391  0.3503
16524TIP3   OH271062   4.381   5.544  16.332 -0.1711  0.0236  0.3261
16524TIP3    H171063   4.473   5.548  16.357 -0.3078 -0.5891  0.9913
16524TIP3    H271064   4.371   5.607  16.261  1.2505 -1.4784 -1.2983
16525TIP3   OH271065   6.649   3.218   6.457  0.2821 -0.0856  0.1260
16525TIP3    H171066   6.616   3.307   6.470 -2.3963 -1.1687  1.5152
16525TIP3    H271067   6.643   3.177   6.544  2.7452 -1.2889 -0.1759
16526TIP3   OH271068   1.589   6.842  11.118  0.2211 -0.0491 -0.1251
16526TIP3    H171069   1.545   6.919  11.083  2.3002  2.6093  2.5954
16526TIP3    H271070   1.678   6.848  11.084  0.7152 -0.5818  1.0088
16527TIP3   OH271071   4.584   2.351   0.480 -0.2194 -0.4065 -0.1371
16527TIP3    H171072   4.556   2.341   0.570  0.1312 -0.9056 -0.0795
16527TIP3    H271073   4.579   2.445   0.463 -0.4307 -0.3312  0.3531
16528TIP3   OH271074   1.454   5.555   6.015  0.1472 -0.4718  0.3531
16528TIP3    H171075   1.451   5.643   5.978  3.5611 -0.8724 -1.2199
16528TIP3    H271076   1.498   5.565   6.099  1.2138 -0.7007 -0.1564
16529TIP3   OH271077   1.952   6.321  11.904 -0.1454  0.3406 -0.4066
16529TIP3    H171078   1.869   6.357  11.935  0.5157  0.4886  1.2673
16529TIP3    H271079   1.973   6.375  11.827  0.3305  2.9921  1.4539
16530TIP3   OH271080   5.301   4.484   4.658 -0.0400 -0.4181  0.1241
16530TIP3    H171081   5.237   4.440   4.603  0.7040 -1.3189 -0.0389
16530TIP3    H271082   5.259   4.490   4.744 -0.6014 -0.3911 -0.1503
16531TIP3   OH271083   2.810   5.464  14.242 -0.2975 -0.0144  0.0712
16531TIP3    H171084   2.777   5.472  14.152  0.7700  0.3724 -0.3096
16531TIP3    H271085   2.868   5.387  14.239 -3.3220 -2.5720  1.4417
16532TIP3   OH271086   0.850   3.696   5.288 -0.1038  0.3657  0.2538
16532TIP3    H171087   0.779   3.632   5.282  0.5689 -0.3168 -0.7568
16532TIP3    H271088   0.815   3.765   5.345 -1.2322 -0.3860  0.5129
16533TIP3   OH271089   1.156   3.328  14.543 -0.4333 -0.0328  0.1842
16533TIP3    H171090   1.210   3.280  14.606 -0.3680 -0.2686 -0.0511
16533TIP3    H271091   1.131   3.263  14.478 -1.3388 -0.0214  0.5049
16534TIP3   OH271092   1.008   3.542  14.842  0.1551  0.1660  0.0409
16534TIP3    H171093   1.027   3.559  14.750  0.8449 -1.3105 -0.1122
16534TIP3    H271094   1.088   3.501  14.876 -0.7054 -0.9048  0.8550
16535TIP3   OH271095   5.352   5.146  13.769 -0.3192 -0.1254 -0.0430
16535TIP3    H171096   5.300   5.066  13.762 -0.9515  0.2367  0.3414
16535TIP3    H271097   5.389   5.142  13.857 -0.0887 -0.1529 -0.1419
16536TIP3   OH271098   5.594   0.503  12.746  0.1008 -0.0107 -0.0332
16536TIP3    H171099   5.577   0.433  12.683 -2.1550 -0.2979  0.8331
16536TIP3    H271100   5.567   0.583  12.701 -0.0623 -0.0284  0.0360
16537TIP3   OH271101   5.894   0.725   0.213  0.0786 -0.2932 -0.1567
16537TIP3    H171102   5.981   0.685   0.223  0.0189 -0.5556 -0.6512
16537TIP3    H271103   5.913   0.817   0.192  0.2517 -0.4366 -0.6535
16538TIP3   OH271104   4.707   4.299  12.490  0.7457  0.0979 -0.0614
16538TIP3    H171105   4.695   4.388  12.522 -0.8455  0.0745 -0.5275
16538TIP3    H271106   4.799   4.279  12.508  0.7962  1.3624  1.1951
16539TIP3   OH271107   1.856   1.051   2.900 -0.3047  0.3863 -0.3629
16539TIP3    H171108   1.884   0.973   2.852  0.5022  1.0578 -1.0151
16539TIP3    H271109   1.937   1.087   2.936 -0.6889  0.8320  0.0592
16540TIP3   OH271110   3.257   4.443  15.337 -0.0552 -0.1791 -0.0840
16540TIP3    H171111   3.219   4.433  15.250  0.4199 -1.9955 -0.1091
16540TIP3    H271112   3.340   4.488  15.321  0.5250 -1.4364 -0.7114
16541TIP3   OH271113   0.371   2.141  16.934 -0.2085  0.1441 -0.4583
16541TIP3    H171114   0.297   2.118  16.879 -1.8459  0.0805  1.6422
16541TIP3    H271115   0.345   2.223  16.977  0.7920 -0.0397  0.5704
16542TIP3   OH271116   2.027   0.270  13.854  0.2421 -0.5510 -0.7770
16542TIP3    H171117   2.045   0.342  13.914  1.9788 -1.3444 -0.2916
16542TIP3    H271118   1.939   0.240  13.878  0.3304  0.0797  0.3684
16543TIP3   OH271119   1.290   2.698   2.766 -0.5028 -0.0214  0.5232
16543TIP3    H171120   1.286   2.668   2.675 -0.2993  1.0703  0.1422
16543TIP3    H271121   1.205   2.675   2.802 -0.1438 -1.6318  0.4576
16544TIP3   OH271122   4.703   5.376  13.215 -0.1571 -0.0106 -0.5389
16544TIP3    H171123   4.735   5.445  13.273  0.7876 -0.4971 -0.4783
16544TIP3    H271124   4.719   5.295  13.262  0.0138 -0.3681 -1.2065
16545TIP3   OH271125   0.260   3.471   5.958 -0.0066 -0.4184 -0.0295
16545TIP3    H171126   0.264   3.543   5.894 -0.0440  0.0340  0.4737
16545TIP3    H271127   0.170   3.472   5.989  0.2159 -0.1216  0.6165
16546TIP3   OH271128   4.747   3.638   2.917  0.5367  0.4954  0.1938
16546TIP3    H171129   4.747   3.686   2.835 -2.5507 -0.6206 -0.6031
16546TIP3    H271130   4.767   3.548   2.893 -0.7400  0.0888  0.5418
16547TIP3   OH271131   0.666   3.644  11.702 -0.3836  0.2619  0.5750
16547TIP3    H171132   0.708   3.610  11.781  0.5681  0.8005  0.3234
16547TIP3    H271133   0.574   3.619  11.710  0.1335 -1.7583  0.7198
16548TIP3   OH271134   0.398   1.344  16.071  0.3725  0.0984 -0.8039
16548TIP3    H171135   0.455   1.408  16.114  1.4178  0.8343 -3.1244
16548TIP3    H271136   0.312   1.385  16.071  0.1301 -0.2928  1.2455
16549TIP3   OH271137   3.310   1.945   2.424 -0.2730 -0.1028 -0.2777
16549TIP3    H171138   3.231   1.948   2.478  0.0136 -1.5347  0.2550
16549TIP3    H271139   3.281   1.902   2.343 -0.4336  0.9927 -0.8194
16550TIP3   OH271140   2.552   6.365  15.826  0.6739 -0.2035  0.2894
16550TIP3    H171141   2.602   6.442  15.799 -0.5205 -0.0977 -1.8135
16550TIP3    H271142   2.462   6.384  15.799  0.3616 -2.3299 -0.3424
16551TIP3   OH271143   4.999   5.683   2.757 -0.3737  0.3374  0.5769
16551TIP3    H171144   4.952   5.752   2.805  0.0202  0.2865  1.0467
16551TIP3    H271145   4.972   5.602   2.800 -1.8517  0.0604 -0.8135
16552TIP3   OH271146   5.310   4.417   2.600  0.1760  0.2296  0.7816
16552TIP3    H171147   5.322   4.424   2.506 -1.9409  1.6795  0.5364
16552TIP3    H271148   5.398   4.417   2.636  1.0274  2.3690 -1.0505
16553TIP3   OH271149   6.523   4.417   5.420 -0.1564  0.2192 -0.2981
16553TIP3    H171150   6.549   4.339   5.469  1.6199  1.2558  0.5297
16553TIP3    H271151   6.577   4.415   5.341  1.3307  1.5225  0.6214
16554TIP3   OH271152   2.706   6.273  16.133 -0.5827 -0.3615 -0.1048
16554TIP3    H171153   2.799   6.265  16.157 -0.0923  2.8600 -0.5075
16554TIP3    H271154   2.701   6.354  16.083 -3.6135 -0.5790 -0.3263
16555TIP3   OH271155   1.489   5.313  14.232 -0.0514 -0.3256  0.4839
16555TIP3    H171156   1.546   5.258  14.285  0.7752  1.5227  1.6236
16555TIP3    H271157   1.504   5.284  14.142 -0.3401 -2.5110  1.1022
16556TIP3   OH271158   5.075   0.118  14.589 -0.4759  0.3954 -0.2340
16556TIP3    H171159   5.035   0.034  14.567  2.6072 -0.8801 -1.5962
16556TIP3    H271160   5.066   0.170  14.509  1.6381 -0.4281 -1.0813
16557TIP3   OH271161   4.235   2.178  16.698 -0.6807  0.6605  0.0694
16557TIP3    H171162   4.216   2.200  16.607 -0.1621  0.9894  0.0346
16557TIP3    H271163   4.310   2.119  16.694 -2.6470 -2.0082  0.1009
16558TIP3   OH271164   2.520   6.011  16.765  0.1661 -0.1803 -0.1179
16558TIP3    H171165   2.592   6.046  16.818  0.2089 -1.4797  0.7381
16558TIP3    H271166   2.456   6.082  16.761  0.9809  0.5878  0.1029
16559TIP3   OH271167   3.039   1.392  11.054  0.1999 -0.4305  0.0895
16559TIP3    H171168   3.035   1.307  11.012  1.0355 -1.2512  1.5829
16559TIP3    H271169   3.037   1.373  11.148 -0.1220  1.2221  0.4547
16560TIP3   OH271170   5.396   3.717   5.973 -0.6940 -0.5411 -0.4162
16560TIP3    H171171   5.490   3.698   5.973 -0.8637 -1.3994 -0.6126
16560TIP3    H271172   5.361   3.669   6.048 -0.7823  0.8463  0.4635
16561TIP3   OH271173   3.427   0.023   2.883 -0.3375  0.6009  0.1573
16561TIP3    H171174   3.495   0.069   2.932  0.3622  0.2496 -0.4715
16561TIP3    H271175   3.348   0.035   2.936 -0.1026  2.1904  0.2203
16562TIP3   OH271176   3.091   0.013   2.433 -0.2561  0.1755  0.1721
16562TIP3    H171177   3.117   0.016   2.525  1.3787 -0.8833 -0.2216
16562TIP3    H271178   3.074  -0.079   2.415  0.1184  0.2668 -0.7440
16563TIP3   OH271179   5.320   5.390   0.596  0.1046  0.1369  0.0733
16563TIP3    H171180   5.296   5.378   0.688  1.7395  0.3299  0.5524
16563TIP3    H271181   5.252   5.343   0.547  0.5735 -2.1683  1.4717
16564TIP3   OH271182   4.907   3.589   0.333  0.2547  0.8950  0.3328
16564TIP3    H171183   4.986   3.634   0.362  0.2130  0.0666  1.8469
16564TIP3    H271184   4.895   3.519   0.397 -1.6918  0.9929  0.1311
16565TIP3   OH271185   4.614   1.783  12.075  0.8855 -0.0765 -0.0061
16565TIP3    H171186   4.592   1.873  12.050 -0.5887 -0.3009  0.3889
16565TIP3    H271187   4.680   1.793  12.144  0.3218  0.7286  0.4325
16566TIP3   OH271188   0.704   1.129   1.872 -0.5974 -0.6991 -0.6429
16566TIP3    H171189   0.781   1.184   1.855 -0.1574 -0.8562  0.6611
16566TIP3    H271190   0.643   1.150   1.802 -0.4753  1.5319 -0.1633
16567TIP3   OH271191   2.675   1.371  10.901 -0.1673 -0.3487  0.2814
16567TIP3    H171192   2.654   1.398  10.990 -0.5734  0.1726  0.0326
16567TIP3    H271193   2.720   1.286  10.911 -1.0589 -0.7563  0.9084
16568TIP3   OH271194   3.113   3.939  11.083 -0.1929 -0.3448 -0.4691
16568TIP3    H171195   3.175   3.929  11.011  0.4063 -2.0251  0.2393
16568TIP3    H271196   3.104   3.851  11.119 -0.7901  0.3895  1.2507
16569TIP3   OH271197   6.452   5.454   2.844 -0.3045  0.0950  0.2750
16569TIP3    H171198   6.545   5.471   2.858 -0.3854  0.0331  0.8933
16569TIP3    H271199   6.408   5.534   2.874 -0.3693  0.7214 -1.3733
16570TIP3   OH271200   3.663   0.880  15.245 -0.5321 -0.1737  0.1524
16570TIP3    H171201   3.570   0.901  15.254 -0.8600 -1.4810 -0.0620
16570TIP3    H271202   3.674   0.797  15.290  0.7103  0.3516  0.8688
16571TIP3   OH271203   5.102   0.775  14.480  0.0338  0.2746 -0.6006
16571TIP3    H171204   5.046   0.845  14.445  0.6897  1.4611  0.6112
16571TIP3    H271205   5.059   0.747  14.560  0.9342  0.9399  0.1446
16572TIP3   OH271206   4.851   2.621   4.959  0.3314 -0.6769  0.2661
16572TIP3    H171207   4.920   2.556   4.971 -1.1126 -1.9988  2.1030
16572TIP3    H271208   4.803   2.620   5.042 -1.9585  0.0626 -0.9652
16573TIP3   OH271209   4.566   6.401   1.979  0.3335  0.3512 -0.2860
16573TIP3    H171210   4.572   6.324   1.924  0.2956 -0.7125  1.1383
16573TIP3    H271211   4.648   6.448   1.965  1.9123 -1.7411  1.3466
16574TIP3   OH271212   6.281   5.541  13.606  0.3887  0.5537 -0.2650
16574TIP3    H171213   6.298   5.552  13.700  0.3567 -0.6008 -0.1130
16574TIP3    H271214   6.193   5.575  13.593 -0.0844 -0.4034  0.3606
16575TIP3   OH271215   4.986   1.523   4.188  0.2128  0.3365 -0.2903
16575TIP3    H171216   4.972   1.430   4.209  2.7706  0.0780  0.5505
16575TIP3    H271217   5.031   1.522   4.104  1.1068  0.7577  0.1776
16576TIP3   OH271218   5.826   1.446   4.412  0.2601 -0.5634  0.0039
16576TIP3    H171219   5.766   1.372   4.406  1.0878 -1.2764  0.3982
16576TIP3    H271220   5.908   1.408   4.442  1.2693  0.2108 -1.6489
16577TIP3   OH271221   1.423   2.693   3.221 -0.3187  0.2338  0.3353
16577TIP3    H171222   1.439   2.737   3.137 -2.3797  2.6028  1.0526
16577TIP3    H271223   1.459   2.605   3.209  0.5767  0.8799 -2.5837
16578TIP3   OH271224   5.323   0.530   5.579  0.2305 -0.2098 -0.2158
16578TIP3    H171225   5.396   0.548   5.639  0.6661 -0.1336 -0.7579
16578TIP3    H271226   5.308   0.435   5.588  1.1756 -0.4421 -0.9583
16579TIP3   OH271227   5.005   3.477   2.407 -0.0845  0.2687 -0.1357
16579TIP3    H171228   4.952   3.557   2.410  0.7079  0.9158 -1.8355
16579TIP3    H271229   4.942   3.406   2.419 -1.2210  1.0552 -1.1602
16580TIP3   OH271230   1.453   5.706   6.573 -0.1966 -0.5043 -0.6364
16580TIP3    H171231   1.358   5.701   6.568 -0.3299  1.3538 -0.6297
16580TIP3    H271232   1.484   5.623   6.535 -1.7859 -0.6090 -1.7666
16581TIP3   OH271233   3.908   2.722  15.578 -0.4247 -0.0662  0.2276
16581TIP3    H171234   3.813   2.730  15.586 -0.4592  1.1482 -1.0659
16581TIP3    H271235   3.927   2.633  15.608 -2.0487 -0.5821 -0.1957
16582TIP3   OH271236   3.807   4.268  14.708  0.4694  0.1015 -0.2574
16582TIP3    H171237   3.849   4.351  14.685  1.8318 -0.4300  0.2207
16582TIP3    H271238   3.714   4.289  14.714  0.5876  1.2096 -1.8421
16583TIP3   OH271239   3.751   3.528   0.128  0.7091 -0.5447  0.2035
16583TIP3    H171240   3.820   3.469   0.157  0.4841 -0.3970  1.0663
16583TIP3    H271241   3.738   3.506   0.035  1.6510 -0.8199  0.1279
16584TIP3   OH271242   4.208   6.268  11.765  0.4630 -0.4446  0.1656
16584TIP3    H171243   4.262   6.269  11.686 -0.6495 -1.7830 -0.6736
16584TIP3    H271244   4.226   6.183  11.805 -1.1656 -1.0538 -0.2962
16585TIP3   OH271245   6.302   1.621  13.953  0.1002  0.4083 -0.3106
16585TIP3    H171246   6.231   1.604  14.014 -0.5388  2.2962 -0.4735
16585TIP3    H271247   6.369   1.665  14.006  1.4248 -1.7792 -0.0410
16586TIP3   OH271248   2.067   2.098   1.561  0.9604 -0.1799 -0.0061
16586TIP3    H171249   2.044   2.133   1.475 -0.3314 -0.1597  0.3233
16586TIP3    H271250   2.044   2.168   1.623  1.6818 -0.2713  0.3765
16587TIP3   OH271251   3.032   0.616   5.323 -0.2498 -0.6417 -0.5151
16587TIP3    H171252   3.089   0.644   5.394 -0.1431  0.0003 -0.8543
16587TIP3    H271253   2.951   0.590   5.367  0.4744 -2.1134  0.0290
16588TIP3   OH271254   3.001   2.792   6.613 -0.1964  0.0352 -0.0846
16588TIP3    H171255   2.915   2.833   6.599 -0.8356 -1.0887  0.4249
16588TIP3    H271256   3.063   2.865   6.608 -1.2601  1.0142  0.4325
16589TIP3   OH271257   5.538   5.035   0.552  0.3617 -0.8096 -0.3687
16589TIP3    H171258   5.517   5.126   0.573 -1.2029 -0.7810 -1.8584
16589TIP3    H271259   5.527   4.988   0.635  0.9098  0.2821  0.3530
16590TIP3   OH271260   4.637   0.598  11.701 -0.4349 -0.4057  0.5104
16590TIP3    H171261   4.554   0.643  11.685 -1.2183 -1.7662  0.6243
16590TIP3    H271262   4.681   0.596  11.616 -1.4360 -1.4446  0.0004
16591TIP3   OH271263   6.626   1.169   1.682 -0.0797  0.8907 -0.0238
16591TIP3    H171264   6.644   1.145   1.773 -0.5459 -0.2694 -0.2184
16591TIP3    H271265   6.569   1.099   1.650 -0.7743  1.8333 -0.9004
16592TIP3   OH271266   1.376   3.089   4.004  0.3113  0.0426  0.1085
16592TIP3    H171267   1.355   3.060   3.915  0.2111  0.8937 -0.1582
16592TIP3    H271268   1.296   3.132   4.035 -0.4066 -2.1121  1.4462
16593TIP3   OH271269   0.974   0.434   1.361 -0.0294 -0.4856  0.3089
16593TIP3    H171270   0.940   0.459   1.275  0.6116  0.3474  0.2781
16593TIP3    H271271   0.954   0.341   1.369  0.5452 -0.7508 -1.0636
16594TIP3   OH271272   2.395   6.321   0.024  0.3224  0.4808  0.1653
16594TIP3    H171273   2.307   6.349   0.051  0.1032  1.2149 -1.1981
16594TIP3    H271274   2.385   6.296  -0.068  1.3767 -0.2443  0.2291
16595TIP3   OH271275   3.977   2.519  10.990 -0.1145  0.2132  0.1330
16595TIP3    H171276   4.035   2.526  11.066  1.2285 -1.6330 -0.6448
16595TIP3    H271277   3.965   2.425  10.978 -2.2896  0.5186 -0.5150
16596TIP3   OH271278   0.285   3.198  15.343  0.0497 -0.1286 -0.5283
16596TIP3    H171279   0.365   3.207  15.394 -0.7543  0.2325  0.7111
16596TIP3    H271280   0.261   3.106  15.352 -0.6339  0.1457  0.6220
16597TIP3   OH271281   2.837   0.206  16.564 -0.7811  0.2329  0.0705
16597TIP3    H171282   2.770   0.239  16.503 -0.2008  0.0333 -0.6933
16597TIP3    H271283   2.906   0.173  16.507  0.9135  2.3011  0.8255
16598TIP3   OH271284   0.261   3.362   3.063  0.6144  0.2685 -0.4687
16598TIP3    H171285   0.238   3.269   3.053 -1.1525  0.5887  0.3676
16598TIP3    H271286   0.180   3.409   3.047  1.0790  1.5855  0.8832
16599TIP3   OH271287   6.728   4.468   3.889  0.1885 -0.5231  0.4359
16599TIP3    H171288   6.749   4.507   3.974 -0.2764 -1.6264  1.0701
16599TIP3    H271289   6.633   4.468   3.885  0.1220  2.7123 -1.6191
16600TIP3   OH271290   1.147   5.637   0.444 -0.4345  0.1364 -0.2208
16600TIP3    H171291   1.092   5.573   0.398 -0.5019  1.2787 -1.8360
16600TIP3    H271292   1.235   5.623   0.409  0.0887 -0.8207  1.3984
16601TIP3   OH271293   3.046   2.094   1.435  0.6234  0.1581  0.8295
16601TIP3    H171294   3.053   2.094   1.530 -0.3999  1.7125  0.9365
16601TIP3    H271295   2.999   2.175   1.414  1.0814 -0.0071 -1.0176
16602TIP3   OH271296   3.118   0.451   0.041 -0.1357 -0.2001 -0.4212
16602TIP3    H171297   3.042   0.429   0.096  0.1139 -1.0777 -0.4265
16602TIP3    H271298   3.123   0.380  -0.023  1.6889 -1.0574  0.6032
16603TIP3   OH271299   5.185   0.539   1.305  0.6139  0.1136 -0.2535
16603TIP3    H171300   5.100   0.524   1.265  0.1493  1.1313  0.3179
16603TIP3    H271301   5.228   0.453   1.304  0.1460 -0.1235 -1.8076
16604TIP3   OH271302   3.748   0.498  14.653  0.0736  0.2509  0.2953
16604TIP3    H171303   3.666   0.546  14.656 -1.2601 -1.7822 -1.1399
16604TIP3    H271304   3.778   0.507  14.563 -0.4593 -1.8896 -0.1535
16605TIP3   OH271305   2.177   6.501  13.668  0.6283 -0.2918  0.0921
16605TIP3    H171306   2.256   6.521  13.718  0.5203  1.8888 -0.4982
16605TIP3    H271307   2.210   6.462  13.586  1.2340  1.6143 -0.6336
16606TIP3   OH271308   2.250   0.364   5.962  0.7346 -0.2126  0.2507
16606TIP3    H171309   2.319   0.308   5.997  1.7749 -0.1766 -1.6234
16606TIP3    H271310   2.230   0.425   6.033  2.6095 -0.2690  0.8646
16607TIP3   OH271311   1.944   2.992  11.247  0.0140  0.2768 -0.0922
16607TIP3    H171312   1.950   2.968  11.155 -0.3559 -0.8554  0.1651
16607TIP3    H271313   1.942   2.909  11.294 -1.8053  0.7800  0.8233
16608TIP3   OH271314   6.176   3.034   5.192  0.0516  0.8580 -0.8002
16608TIP3    H171315   6.251   2.989   5.153  0.2562 -0.3828  0.9245
16608TIP3    H271316   6.154   2.982   5.269 -1.3856  2.2764 -0.1976
16609TIP3   OH271317   5.729   3.991  13.003  0.4117 -0.2822 -0.1505
16609TIP3    H171318   5.694   3.918  13.053 -1.1298  0.8492  0.5287
16609TIP3    H271319   5.819   4.001  13.033 -0.1367 -0.3272  1.6485
16610TIP3   OH271320   2.730   3.117  12.800  0.3706  0.0060  0.2808
16610TIP3    H171321   2.766   3.097  12.713  1.0923 -0.7420  0.7329
16610TIP3    H271322   2.779   3.060  12.859 -0.0796  0.5457  1.1880
16611TIP3   OH271323   3.866   5.076  10.626  0.3035  1.2172 -0.0964
16611TIP3    H171324   3.947   5.052  10.672 -0.3083 -0.2585  0.2862
16611TIP3    H271325   3.886   5.062  10.534  0.2254 -0.0790  0.0598
16612TIP3   OH271326   3.446   6.427   4.768  0.2331  0.0319 -0.8584
16612TIP3    H171327   3.520   6.479   4.800 -0.4256  0.2123  0.4419
16612TIP3    H271328   3.414   6.476   4.693  1.6576 -0.2450 -1.6819
16613TIP3   OH271329   2.233   2.679   4.660 -0.0887 -0.2459 -0.1398
16613TIP3    H171330   2.319   2.675   4.700  0.2345 -1.1215 -0.8943
16613TIP3    H271331   2.249   2.703   4.569 -0.2878 -3.4384 -1.1706
16614TIP3   OH271332   5.514   4.049   3.543  0.0527  0.0383  0.1747
16614TIP3    H171333   5.428   4.053   3.503  0.5868  0.5342 -0.9678
16614TIP3    H271334   5.536   3.955   3.542 -2.0917 -0.7281  4.1806
16615TIP3   OH271335   2.047   6.157  10.566  0.2138  0.8799 -0.0422
16615TIP3    H171336   2.133   6.140  10.528 -0.6249 -0.5692 -1.4105
16615TIP3    H271337   2.046   6.252  10.581  1.7987  1.0152 -0.5833
16616TIP3   OH271338   4.164   6.239   4.134 -0.1367 -0.0749 -0.0336
16616TIP3    H171339   4.141   6.172   4.198 -0.0926  0.5198  0.6212
16616TIP3    H271340   4.239   6.285   4.173  0.8320 -0.6165 -1.1677
16617TIP3   OH271341   4.609   1.427  13.021 -0.0102  0.2904 -0.1790
16617TIP3    H171342   4.611   1.416  13.116  0.5475 -0.8040 -0.2989
16617TIP3    H271343   4.535   1.373  12.993  0.0696  0.2925 -0.3956
16618TIP3   OH271344   3.422   4.143   2.960 -0.1383 -0.1301 -0.7573
16618TIP3    H171345   3.358   4.095   2.908  0.1101 -0.6272 -0.6177
16618TIP3    H271346   3.496   4.082   2.967  0.4168  0.4966 -1.0636
16619TIP3   OH271347   4.543   6.198   1.770 -0.2888  0.0395 -0.1363
16619TIP3    H171348   4.480   6.219   1.701  1.3641 -0.4390 -1.8930
16619TIP3    H271349   4.571   6.108   1.749 -1.4176 -1.0560  2.5573
16620TIP3   OH271350   5.616   6.778   2.835  0.0500 -0.4794 -0.2045
16620TIP3    H171351   5.699   6.753   2.875 -0.3478 -0.1742  0.8466
16620TIP3    H271352   5.639   6.805   2.746  1.5189  2.2443  0.8914
16621TIP3   OH271353   3.933   0.290   4.302 -0.0645  0.0249 -0.2213
16621TIP3    H171354   4.027   0.280   4.317 -0.0825 -1.4841 -0.9422
16621TIP3    H271355   3.915   0.381   4.325  1.5198  0.2719  0.1804
16622TIP3   OH271356   4.767   1.069  12.784  0.1692  0.2800 -0.5067
16622TIP3    H171357   4.676   1.039  12.786  0.0121  0.6461 -1.5031
16622TIP3    H271358   4.791   1.079  12.877 -0.9781  0.6894 -0.2321
16623TIP3   OH271359   4.207   2.321   2.365 -0.4780  0.3013 -0.3030
16623TIP3    H171360   4.181   2.317   2.273  0.2891 -0.4511 -0.5030
16623TIP3    H271361   4.296   2.358   2.364 -0.4935  0.3663  0.1483
16624TIP3   OH271362   2.858   5.078  15.740 -0.1450  0.2698  0.3105
16624TIP3    H171363   2.802   5.107  15.812  1.1635 -0.1567  1.5751
16624TIP3    H271364   2.816   4.999  15.707 -0.8579  0.5641  0.5081
16625TIP3   OH271365   0.911   5.697  12.002  0.4671 -0.6689  0.5700
16625TIP3    H171366   0.893   5.721  12.093  0.6595 -0.0862  0.4565
16625TIP3    H271367   1.006   5.693  11.996  0.6496  2.2951 -0.3230
16626TIP3   OH271368   3.164   0.029   0.246  0.0511  0.6555 -0.2331
16626TIP3    H171369   3.116  -0.044   0.205  2.1100 -0.3726 -0.9534
16626TIP3    H271370   3.147   0.019   0.340  0.8466 -1.2480 -0.2350
16627TIP3   OH271371   3.365   5.603  14.371  0.3481  0.1423  0.1805
16627TIP3    H171372   3.442   5.556  14.338  0.5126  0.3633  0.2456
16627TIP3    H271373   3.303   5.534  14.396 -0.0092 -0.0415 -1.1162
16628TIP3   OH271374   1.395   2.830   4.111 -0.1430  0.6660 -0.4188
16628TIP3    H171375   1.457   2.801   4.178 -1.5927  0.4421  0.8847
16628TIP3    H271376   1.410   2.924   4.104 -1.0086  0.9837  1.3988
16629TIP3   OH271377   4.700   2.479  15.872  0.8829 -0.0439  0.2278
16629TIP3    H171378   4.682   2.412  15.807  1.7432 -0.6188  0.5712
16629TIP3    H271379   4.788   2.509  15.853  0.0710  1.9328 -0.7179
16630TIP3   OH271380   2.784   1.099   4.845 -0.3085  0.3983  0.8952
16630TIP3    H171381   2.774   1.102   4.940 -0.7849 -0.4934  0.8906
16630TIP3    H271382   2.694   1.095   4.812 -0.1453  0.7686  0.4081
16631TIP3   OH271383   2.544   1.847   3.682 -0.5949 -0.4696  0.5679
16631TIP3    H171384   2.530   1.782   3.613  1.5254 -0.0082 -0.3826
16631TIP3    H271385   2.639   1.857   3.686 -0.7109  0.1198  3.0352
16632TIP3   OH271386   0.668   5.808   4.921  0.5733 -0.0254  0.3851
16632TIP3    H171387   0.620   5.726   4.933  0.0475  0.4188  1.4430
16632TIP3    H271388   0.601   5.876   4.921  0.7876  0.2946 -2.6341
16633TIP3   OH271389   3.323   3.790   6.164  0.2459  0.0234 -0.2596
16633TIP3    H171390   3.382   3.756   6.231 -0.5343 -0.6533  0.1119
16633TIP3    H271391   3.323   3.723   6.095  0.1206  0.1443 -0.3792
16634TIP3   OH271392   3.168   4.850  14.994  0.0502  0.0886 -0.2777
16634TIP3    H171393   3.094   4.859  14.934  0.0696 -0.2981 -0.3669
16634TIP3    H271394   3.189   4.939  15.021 -2.1398  0.0460  1.7983
16635TIP3   OH271395   5.942   2.364  16.386  0.5936  0.4998  0.0944
16635TIP3    H171396   5.853   2.376  16.353  0.5060 -0.1707  0.0899
16635TIP3    H271397   5.996   2.416  16.326  0.3452 -0.0692 -0.6445
16636TIP3   OH271398   1.994   4.198   0.179  0.2888 -0.2064 -0.0247
16636TIP3    H171399   2.064   4.257   0.153  0.1294 -0.1057 -0.2313
16636TIP3    H271400   1.985   4.137   0.106  0.1668 -0.2249  0.0045
16637TIP3   OH271401   3.818   3.023  12.312 -0.2546  0.3909  0.8399
16637TIP3    H171402   3.758   2.953  12.285 -1.1571  1.1621  0.8070
16637TIP3    H271403   3.834   3.072  12.232  1.5688 -0.6209  0.5312
16638TIP3   OH271404   3.226   5.974  15.999 -0.2774 -0.0368 -0.2765
16638TIP3    H171405   3.244   5.881  15.981 -1.8095 -0.2271 -1.0263
16638TIP3    H271406   3.243   6.018  15.916  0.7691  0.4331  0.1665
16639TIP3   OH271407   5.009   0.531  14.988 -0.3396  0.0382 -0.5548
16639TIP3    H171408   5.103   0.530  15.008 -0.1528  0.8759 -1.3340
16639TIP3    H271409   4.971   0.471  15.053  0.6172  0.3277  0.3109
16640TIP3   OH271410   0.757   3.296  13.370  0.3396 -0.2652  0.1504
16640TIP3    H171411   0.851   3.314  13.366  0.4208 -0.4880  0.9067
16640TIP3    H271412   0.721   3.373  13.413  0.1386 -0.0754 -0.3485
16641TIP3   OH271413   0.817   6.883  13.005  0.2506 -0.7777  0.1928
16641TIP3    H171414   0.729   6.913  13.025  0.2341 -0.4865 -0.2887
16641TIP3    H271415   0.874   6.951  13.041  0.2323 -0.4113 -0.4535
16642TIP3   OH271416   4.501   0.641  10.610  0.3991 -0.1685  0.1154
16642TIP3    H171417   4.516   0.548  10.598  0.0204 -0.2118 -0.0488
16642TIP3    H271418   4.411   0.655  10.578  0.6038  0.3206 -0.2726
16643TIP3   OH271419   1.835   5.950  13.725 -0.2499 -0.2307  0.0463
16643TIP3    H171420   1.861   6.017  13.789  0.4318  0.1665 -0.6399
16643TIP3    H271421   1.828   5.997  13.642  1.1821 -1.1858 -0.6447
16644TIP3   OH271422   6.078   2.521  14.339 -0.5543  0.2348 -0.2221
16644TIP3    H171423   6.072   2.529  14.434 -1.4277  1.1472 -0.3343
16644TIP3    H271424   6.004   2.571  14.306 -0.4574 -0.3527 -1.3824
16645TIP3   OH271425   5.010   0.779  12.095  0.4167  0.9206  0.2151
16645TIP3    H171426   4.923   0.740  12.103  0.9310 -0.0014  1.7883
16645TIP3    H271427   5.066   0.709  12.062  0.9979  0.8095  1.3713
16646TIP3   OH271428   6.217   2.403   1.807  0.0043  0.5283  0.5119
16646TIP3    H171429   6.281   2.451   1.754  0.4129  0.1434  0.6509
16646TIP3    H271430   6.204   2.321   1.761 -0.1961  0.4988  0.6191
16647TIP3   OH271431   2.596   4.139  14.313 -0.0819 -0.1452  0.1348
16647TIP3    H171432   2.532   4.206  14.339  2.9703  3.0361  0.1435
16647TIP3    H271433   2.598   4.078  14.387 -1.3159  1.0649  1.2209
16648TIP3   OH271434   2.145   1.132   1.029 -0.0581  0.1755  0.6392
16648TIP3    H171435   2.121   1.094   1.113 -0.9557 -0.5769  0.0474
16648TIP3    H271436   2.156   1.225   1.047 -0.7968  0.1065  1.4750
16649TIP3   OH271437   1.913   3.606  15.095  0.3299 -0.0318  0.8549
16649TIP3    H171438   1.947   3.686  15.134  0.7641  0.1228  0.1845
16649TIP3    H271439   1.974   3.538  15.125 -0.3610 -0.2189  1.8829
16650TIP3   OH271440   4.473   2.721   4.346  0.1771 -0.8781 -0.1875
16650TIP3    H171441   4.426   2.717   4.262  1.4425 -0.6432 -0.9259
16650TIP3    H271442   4.476   2.630   4.376 -1.6711 -0.7911  0.4372
16651TIP3   OH271443   2.240   6.398   0.434  0.2740  0.3243  0.2710
16651TIP3    H171444   2.216   6.328   0.374 -1.3196  2.1722 -1.4114
16651TIP3    H271445   2.169   6.400   0.498  0.3519  0.3604  0.3567
16652TIP3   OH271446   2.830   5.698  13.771 -0.1987 -0.1948  0.2905
16652TIP3    H171447   2.815   5.603  13.766 -3.0682  0.0641  1.6866
16652TIP3    H271448   2.897   5.708  13.838 -0.4514 -1.2305  0.7262
16653TIP3   OH271449   0.682   0.460  14.640 -0.1582  0.1726 -0.0955
16653TIP3    H171450   0.742   0.511  14.694 -1.0823  0.5658  0.5911
16653TIP3    H271451   0.719   0.465  14.552  1.9602 -1.3629  0.6305
16654TIP3   OH271452   3.835   0.565  16.509  0.4961 -0.2259  0.5336
16654TIP3    H171453   3.861   0.636  16.567 -3.0679 -0.2229  2.4032
16654TIP3    H271454   3.873   0.486  16.548  1.8097  0.2360  0.2485
16655TIP3   OH271455   6.681   1.575   0.185 -0.1769  0.4433  0.1819
16655TIP3    H171456   6.645   1.557   0.098 -1.4675 -1.2607  0.9880
16655TIP3    H271457   6.707   1.667   0.182 -2.2515  1.0729 -1.3212
16656TIP3   OH271458   3.804   4.255   5.307 -0.0057  0.2932  0.3504
16656TIP3    H171459   3.824   4.237   5.216 -2.5790  2.0028 -0.6703
16656TIP3    H271460   3.800   4.351   5.313  3.3164  0.4472  3.0974
16657TIP3   OH271461   1.731   1.822  12.772 -0.2878  0.3254 -0.1889
16657TIP3    H171462   1.821   1.837  12.799 -0.8853  2.0979  0.9735
16657TIP3    H271463   1.681   1.823  12.854 -1.3581 -0.8429 -0.7869
16658TIP3   OH271464   4.320   1.565  15.411 -0.0671  0.4901 -0.3702
16658TIP3    H171465   4.303   1.480  15.450 -1.1111  1.4754  1.5012
16658TIP3    H271466   4.355   1.618  15.483 -0.8677  2.0503 -1.0661
16659TIP3   OH271467   1.721   5.049  11.445 -0.3831  0.2569  1.0595
16659TIP3    H171468   1.722   4.955  11.426 -1.9769  0.4284 -0.0815
16659TIP3    H271469   1.660   5.086  11.381 -0.0633  2.0264  1.7177
16660TIP3   OH271470   4.648   5.261   1.028  0.2376  0.0964  0.0871
16660TIP3    H171471   4.654   5.203   1.104  2.3992 -1.1018 -0.8975
16660TIP3    H271472   4.691   5.342   1.056  1.4400 -0.5031  0.0521
16661TIP3   OH271473   4.444   0.492   1.161  0.2419  0.1600  0.0313
16661TIP3    H171474   4.417   0.535   1.079  1.0738  1.3700  0.3638
16661TIP3    H271475   4.539   0.483   1.154  0.6083  2.0750  1.6386
16662TIP3   OH271476   5.692   2.652  14.279  0.3278  0.4097 -0.2712
16662TIP3    H171477   5.684   2.588  14.208  0.8109 -1.9447  1.6682
16662TIP3    H271478   5.615   2.637  14.333  1.3591  0.1333  1.1942
16663TIP3   OH271479   5.107   5.234   0.539 -0.0482  0.7550 -0.1970
16663TIP3    H171480   5.050   5.295   0.585 -0.1947 -1.7098  3.2879
16663TIP3    H271481   5.048   5.171   0.497  0.0870  2.8389 -4.0309
16664TIP3   OH271482   5.954   1.983  12.637  0.2020  0.0060  0.3319
16664TIP3    H171483   5.938   2.064  12.589 -1.5280 -0.2869  0.3435
16664TIP3    H271484   5.887   1.983  12.706  1.6174 -0.3552  1.7667
16665TIP3   OH271485   3.256   1.169   0.674  0.6240  0.2609 -0.3726
16665TIP3    H171486   3.228   1.230   0.606 -0.3413 -0.6255 -0.8078
16665TIP3    H271487   3.226   1.084   0.643 -0.2259 -0.1178  1.3391
16666TIP3   OH271488   5.266   1.734  16.358 -0.1515 -0.3292 -0.0027
16666TIP3    H171489   5.308   1.775  16.282  2.6855 -3.1891 -0.1843
16666TIP3    H271490   5.232   1.651  16.324 -2.5062  0.1078  1.0900
16667TIP3   OH271491   3.786   6.844   1.480  0.1714 -0.1635  0.2572
16667TIP3    H171492   3.791   6.877   1.570  1.0417  0.5683 -0.0478
16667TIP3    H271493   3.719   6.775   1.484 -0.9108  0.8938  1.1382
16668TIP3   OH271494   2.817   1.541  15.817  0.3508  0.1580 -0.4307
16668TIP3    H171495   2.859   1.512  15.736 -1.0815 -1.4516 -0.6355
16668TIP3    H271496   2.730   1.502  15.815 -0.6610  2.1925  0.6881
16669TIP3   OH271497   3.497   5.652   1.289 -0.1078  0.0788 -0.8548
16669TIP3    H171498   3.457   5.672   1.205  0.9003  0.7211 -1.1999
16669TIP3    H271499   3.538   5.734   1.316  0.4748 -0.4032 -0.2427
16670TIP3   OH271500   3.488   0.374   0.862 -0.0155  1.0548  0.2550
16670TIP3    H171501   3.552   0.414   0.803 -0.9880  2.4462  0.1014
16670TIP3    H271502   3.540   0.314   0.916  0.7233 -1.3539 -2.8622
16671TIP3   OH271503   3.448   4.378   0.177  0.4017 -0.1739 -0.0883
16671TIP3    H171504   3.443   4.411   0.267 -1.2083 -1.0473  0.1692
16671TIP3    H271505   3.514   4.434   0.135  0.8235  0.5696  1.4844
16672TIP3   OH271506   4.929   0.458  13.084 -0.2329  0.9497  0.5774
16672TIP3    H171507   4.854   0.456  13.024  1.2606 -1.2653 -1.3948
16672TIP3    H271508   4.934   0.549  13.114 -3.0691  1.3768  0.0275
16673TIP3   OH271509   6.418   1.888  13.746  0.1846  1.0658  0.4207
16673TIP3    H171510   6.378   1.843  13.821 -0.0946  0.9291  0.1922
16673TIP3    H271511   6.351   1.883  13.677  1.0683 -0.2809 -0.3822
16674TIP3   OH271512   1.348   1.154  11.222  0.1206 -0.1829  0.2338
16674TIP3    H171513   1.267   1.164  11.171  0.7042  0.8496 -0.5358
16674TIP3    H271514   1.364   1.241  11.259  0.3994 -0.6055  1.1209
16675TIP3   OH271515   5.202   3.207   1.057 -0.0904  0.0200  0.4123
16675TIP3    H171516   5.160   3.169   0.980 -2.0111  0.7126  1.0606
16675TIP3    H271517   5.154   3.288   1.072  1.5181  0.8514  1.2266
16676TIP3   OH271518   1.683   1.885   4.661  0.1054 -0.1830  0.4717
16676TIP3    H171519   1.706   1.928   4.743  0.1722  0.8308 -0.0605
16676TIP3    H271520   1.714   1.795   4.671 -0.2604 -0.1849  1.7077
16677TIP3   OH271521   6.122   4.895  11.723 -0.3155 -0.2942 -0.3143
16677TIP3    H171522   6.033   4.930  11.712 -0.2187  0.2000  0.4230
16677TIP3    H271523   6.125   4.868  11.815  0.3455 -0.1575 -0.2962
16678TIP3   OH271524   3.976   2.519   2.030  0.8369 -0.0976  0.1053
16678TIP3    H171525   4.066   2.514   1.997 -0.1071 -1.4857 -2.5502
16678TIP3    H271526   3.930   2.577   1.970 -0.1040  0.5987  1.4235
16679TIP3   OH271527   5.927   0.050  12.534 -0.1847  0.4494  0.5596
16679TIP3    H171528   5.963  -0.031  12.499  0.6211  1.5120 -1.1669
16679TIP3    H271529   5.863   0.021  12.599 -1.2429 -1.6291 -1.2758
16680TIP3   OH271530   4.481   0.112  15.498  0.1888 -0.5656  0.1399
16680TIP3    H171531   4.407   0.055  15.478  2.7415 -3.6547 -1.3480
16680TIP3    H271532   4.466   0.140  15.588 -3.2045 -0.1586 -0.3877
16681TIP3   OH271533   6.810   0.080   3.538  0.2990  0.1584  0.7708
16681TIP3    H171534   6.798   0.134   3.615 -1.2671  0.6631  0.2203
16681TIP3    H271535   6.830   0.142   3.467  0.0536 -0.1295  0.4436
16682TIP3   OH271536   3.823   0.069   4.180  0.0230 -0.4694  0.1989
16682TIP3    H171537   3.738   0.098   4.147  0.2744  1.1966  0.9026
16682TIP3    H271538   3.863   0.149   4.216  1.6053 -1.3494  0.4754
16683TIP3   OH271539   5.110   1.277   3.779 -0.3294 -0.0894  0.7747
16683TIP3    H171540   5.033   1.222   3.793  0.3793 -1.4977 -0.5319
16683TIP3    H271541   5.182   1.215   3.768  0.4895  1.0640 -0.8752
16684TIP3   OH271542   5.824   3.825   6.118  0.4318  0.0057 -0.3685
16684TIP3    H171543   5.773   3.871   6.185  1.8603  0.6036  0.3469
16684TIP3    H271544   5.913   3.824   6.152  0.6991 -2.1708 -0.9772
16685TIP3   OH271545   5.670   1.452   3.444  0.3118  0.0814 -0.1615
16685TIP3    H171546   5.582   1.418   3.461 -0.5376  1.8102 -0.7458
16685TIP3    H271547   5.699   1.406   3.365 -0.3508 -0.0673 -0.3281
16686TIP3   OH271548   4.518   2.787   2.652 -0.2497 -0.6105 -0.1032
16686TIP3    H171549   4.441   2.736   2.630  0.4133 -0.5760 -2.9045
16686TIP3    H271550   4.521   2.857   2.586  0.8548  0.8888  1.4256
16687TIP3   OH271551   6.625   5.681  13.552 -0.0232 -0.4408 -0.4476
16687TIP3    H171552   6.577   5.732  13.488 -0.3841 -1.3653 -0.9257
16687TIP3    H271553   6.579   5.696  13.635  1.1244  1.6912 -0.1000
16688TIP3   OH271554   6.637   4.429  16.786 -0.3434 -0.3189 -0.3510
16688TIP3    H171555   6.618   4.506  16.732 -0.5385 -2.6644 -3.9560
16688TIP3    H271556   6.731   4.413  16.772 -0.4001 -0.9808 -0.0063
16689TIP3   OH271557   2.424   6.268  11.503 -0.1686  0.1515  0.0257
16689TIP3    H171558   2.497   6.244  11.560 -1.0604 -2.0825  0.3121
16689TIP3    H271559   2.426   6.203  11.433 -1.7697  0.1690 -0.0595
16690TIP3   OH271560   4.012   4.383   4.785 -0.0276 -0.1830 -0.4314
16690TIP3    H171561   4.009   4.460   4.729  0.3378  0.5151  0.4801
16690TIP3    H271562   3.944   4.325   4.750  0.5297  0.0076 -1.8868
16691TIP3   OH271563   5.542   6.206  15.952  0.3359 -0.8356 -0.5571
16691TIP3    H171564   5.488   6.169  15.882  0.1846 -0.9609 -0.3786
16691TIP3    H271565   5.512   6.160  16.031 -0.9093  0.7072 -0.0743
16692TIP3   OH271566   1.270   1.646   2.315 -0.6544 -0.6338 -0.8045
16692TIP3    H171567   1.313   1.703   2.378  1.5755 -1.0661 -1.8307
16692TIP3    H271568   1.252   1.565   2.363  0.2536 -0.6529 -0.4679
16693TIP3   OH271569   6.053   4.857  13.394  0.5839  0.5686 -0.3274
16693TIP3    H171570   6.013   4.903  13.320  0.3898  0.8431 -0.0491
16693TIP3    H271571   6.125   4.808  13.354 -0.6261 -0.7400 -1.0018
16694TIP3   OH271572   3.421   3.573  15.005  0.1420 -0.3269  0.0388
16694TIP3    H171573   3.495   3.626  15.033  1.0318 -1.8239  0.6054
16694TIP3    H271574   3.344   3.620  15.038  0.8335  1.1224 -0.3638
16695TIP3   OH271575   0.984   5.150  14.131  0.4295 -0.1399 -0.1294
16695TIP3    H171576   0.968   5.059  14.106  0.0691  0.0553 -0.6411
16695TIP3    H271577   1.006   5.193  14.049  0.0393  0.3522  0.0209
16696TIP3   OH271578   2.326   3.052  14.806  0.3875  0.5700  0.1178
16696TIP3    H171579   2.413   3.089  14.794  0.0881  0.8462 -1.5495
16696TIP3    H271580   2.303   3.016  14.720 -1.0357  0.2778  0.5821
16697TIP3   OH271581   1.558   3.367  13.022  0.0781 -0.5068 -0.1267
16697TIP3    H171582   1.552   3.287  12.970  0.2079 -0.7486  0.2220
16697TIP3    H271583   1.491   3.357  13.089 -0.1626 -0.1475 -0.3099
16698TIP3   OH271584   3.582   0.244  13.845 -0.7773 -0.1486 -0.0805
16698TIP3    H171585   3.495   0.229  13.882 -0.7864  2.5459  1.2380
16698TIP3    H271586   3.578   0.331  13.808  1.4716  0.2410  0.4195
16699TIP3   OH271587   5.244   5.363  11.437  0.2978 -0.9201 -0.6021
16699TIP3    H171588   5.187   5.370  11.361  0.6638  1.7541 -0.7194
16699TIP3    H271589   5.237   5.448  11.481  2.8728 -1.0857  0.3112
16700TIP3   OH271590   5.744   6.587   5.384  0.0096 -0.0631 -0.0342
16700TIP3    H171591   5.692   6.506   5.387  0.7737 -0.6016 -0.8154
16700TIP3    H271592   5.724   6.631   5.466  1.1376 -2.0395  1.3870
16701TIP3   OH271593   2.582   6.033   1.433 -0.1019 -0.5504 -0.3291
16701TIP3    H171594   2.511   6.023   1.370 -3.4480 -1.5452  3.1815
16701TIP3    H271595   2.596   6.128   1.438 -2.3271 -0.1707 -0.0981
16702TIP3   OH271596   6.448   1.744   0.936  0.1227 -0.1829 -0.0819
16702TIP3    H171597   6.509   1.813   0.962 -0.9585  1.1070 -0.8086
16702TIP3    H271598   6.457   1.677   1.003  3.6639 -0.9541 -1.0706
16703TIP3   OH271599   0.380   4.135   3.308  0.0253 -0.0178  0.5455
16703TIP3    H171600   0.304   4.093   3.268  1.2979  0.2404 -2.4057
16703TIP3    H271601   0.346   4.175   3.388 -3.3237  1.2791 -1.3112
16704TIP3   OH271602   0.013   1.895   3.657  0.0698  0.0253 -0.3102
16704TIP3    H171603  -0.045   1.886   3.732  0.6341 -1.5747 -0.0419
16704TIP3    H271604   0.101   1.898   3.695  0.2897  0.4085 -0.8364
16705TIP3   OH271605   4.563   3.649   5.250  0.0037 -0.3697 -0.5254
16705TIP3    H171606   4.578   3.575   5.191 -0.7886 -0.5676 -0.4867
16705TIP3    H271607   4.469   3.663   5.248  0.1190  0.4860 -0.3382
16706TIP3   OH271608   0.780   6.740   3.766  0.1226 -0.5545 -0.1024
16706TIP3    H171609   0.696   6.787   3.765 -0.6582 -1.7860  1.6283
16706TIP3    H271610   0.839   6.797   3.815 -0.6839 -1.0969  1.5788
16707TIP3   OH271611   5.554   3.798  16.856  0.1928  0.4167  0.0929
16707TIP3    H171612   5.624   3.853  16.821  1.4138 -0.8006  0.5357
16707TIP3    H271613   5.504   3.771  16.779  1.4592 -0.3616 -0.4903
16708TIP3   OH271614   5.781   3.237   2.808  0.9098 -0.2296 -0.2672
16708TIP3    H171615   5.807   3.152   2.775 -0.0348 -0.8317  0.4722
16708TIP3    H271616   5.691   3.224   2.840  0.9132  0.9215  0.2762
16709TIP3   OH271617   4.915   0.023  13.039  0.6215 -1.0080  0.5685
16709TIP3    H171618   4.895   0.086  13.108 -0.5173 -0.7398  0.0126
16709TIP3    H271619   4.959  -0.049  13.085  0.4234 -0.5701  1.4739
16710TIP3   OH271620   0.734   3.063   5.928  1.0547 -0.2500  0.2925
16710TIP3    H171621   0.752   3.152   5.898 -1.0047  0.4705  1.0026
16710TIP3    H271622   0.662   3.074   5.991  0.1470 -2.5218 -0.2830
16711TIP3   OH271623   6.625   5.203  13.218  0.0961 -0.2359  0.0642
16711TIP3    H171624   6.687   5.170  13.153  0.8438  0.0684  0.6105
16711TIP3    H271625   6.547   5.148  13.207 -0.0054  0.1765 -1.4583
16712TIP3   OH271626   2.041   3.806  15.710  0.1004  0.4061  0.4050
16712TIP3    H171627   1.956   3.850  15.698  0.2290  0.0559 -2.9270
16712TIP3    H271628   2.018   3.714  15.722 -0.0562  0.3014 -0.5596
16713TIP3   OH271629   0.463   1.063  11.520 -0.4490 -0.4775  0.0223
16713TIP3    H171630   0.427   1.146  11.551  1.2841  0.6645 -0.8376
16713TIP3    H271631   0.413   1.044  11.440  0.4193  0.8151 -0.8738
16714TIP3   OH271632   6.437   6.664  13.914 -0.5026 -0.3843  0.2543
16714TIP3    H171633   6.389   6.700  13.839  0.7453  1.6397  0.3731
16714TIP3    H271634   6.387   6.586  13.939 -1.1857 -0.9076 -2.4232
16715TIP3   OH271635   1.350   5.288   6.101 -0.7658 -0.2202  0.0918
16715TIP3    H171636   1.416   5.233   6.143 -1.7049 -1.5420 -0.0848
16715TIP3    H271637   1.329   5.355   6.166 -1.4065 -1.5733  1.3479
16716TIP3   OH271638   5.143   2.115  13.818 -0.2582  0.2675 -0.2869
16716TIP3    H171639   5.178   2.154  13.897 -1.9480 -1.7011  1.5742
16716TIP3    H271640   5.186   2.030  13.812 -0.6870  0.0945 -1.0580
16717TIP3   OH271641   0.184   6.235   1.663 -0.5031 -0.7412 -0.6841
16717TIP3    H171642   0.241   6.311   1.666 -0.5808 -0.7114  1.3198
16717TIP3    H271643   0.107   6.265   1.614  0.0575  0.0204 -1.1223
16718TIP3   OH271644   1.443   3.632   5.099 -0.0942 -0.0824  0.5319
16718TIP3    H171645   1.437   3.721   5.064  2.1062  0.1427  0.5924
16718TIP3    H271646   1.517   3.593   5.053  1.6684 -0.4448  3.4759
16719TIP3   OH271647   1.064   5.008  11.924 -0.2622 -0.3388  0.0747
16719TIP3    H171648   1.078   5.102  11.914  0.0078 -0.4794 -0.9301
16719TIP3    H271649   0.989   5.002  11.984  0.0380  0.5006  0.5576
16720TIP3   OH271650   1.223   1.679  12.503  0.0862 -0.3469 -0.0382
16720TIP3    H171651   1.141   1.698  12.457  1.1749  1.8950 -1.1703
16720TIP3    H271652   1.275   1.759  12.495  2.0902 -1.4142  1.3677
16721TIP3   OH271653   0.963   1.905  15.595 -0.5598  0.3877 -0.3926
16721TIP3    H171654   1.009   1.985  15.571  1.2181 -0.9267 -1.6939
16721TIP3    H271655   0.926   1.922  15.681  2.0463  1.7021  0.5561
16722TIP3   OH271656   5.142   4.058  16.565 -0.0218 -0.6280  0.7376
16722TIP3    H171657   5.119   4.135  16.619  0.1113 -0.9003  1.1889
16722TIP3    H271658   5.106   3.984  16.614 -2.4186 -0.6935 -0.9201
16723TIP3   OH271659   5.411   4.073   3.077 -0.0776 -0.1571 -0.1629
16723TIP3    H171660   5.400   3.980   3.099  0.5996 -0.3142 -0.4384
16723TIP3    H271661   5.498   4.077   3.036  0.2422  0.7368  0.5819
16724TIP3   OH271662   3.393   3.587   0.245 -0.3230  0.8120 -0.0887
16724TIP3    H171663   3.452   3.513   0.259 -0.5147  0.5368 -0.7116
16724TIP3    H271664   3.437   3.642   0.181 -0.5384  0.8381 -0.2160
16725TIP3   OH271665   0.026   2.506   2.057 -0.2501  0.4995  0.4967
16725TIP3    H171666   0.077   2.432   2.025 -0.4078  0.5389  0.1430
16725TIP3    H271667  -0.062   2.491   2.023 -0.0446  1.3800 -0.4697
16726TIP3   OH271668   6.572   0.677   0.188  0.3564 -0.0716  0.0792
16726TIP3    H171669   6.526   0.760   0.204 -0.1216 -0.4552  0.7827
16726TIP3    H271670   6.597   0.647   0.276  0.0286 -0.9450 -0.1153
16727TIP3   OH271671   4.274   1.141  15.311 -0.0214  0.4505  0.1629
16727TIP3    H171672   4.184   1.114  15.296  0.2746 -0.1495 -0.5699
16727TIP3    H271673   4.308   1.163  15.224  0.2694  1.5585  0.5343
16728TIP3   OH271674   1.758   1.168  10.663 -0.0241  0.5380  0.1689
16728TIP3    H171675   1.694   1.118  10.613 -1.2169  0.6685  1.4914
16728TIP3    H271676   1.751   1.257  10.628 -0.3537  0.4879  0.1041
16729TIP3   OH271677   5.136   4.799  15.473  0.6611  0.1255 -0.1265
16729TIP3    H171678   5.173   4.876  15.430 -1.5726  0.9996 -0.5917
16729TIP3    H271679   5.197   4.780  15.544  2.9360  0.3829 -1.8829
16730TIP3   OH271680   2.467   1.588   0.162  0.0631 -0.2450  0.3289
16730TIP3    H171681   2.403   1.565   0.095 -0.5083  0.4027  0.6464
16730TIP3    H271682   2.456   1.682   0.175  2.5808  0.3577 -1.1692
16731TIP3   OH271683   6.840   4.404  13.952 -0.1937 -0.4185 -0.1283
16731TIP3    H171684   6.787   4.482  13.934 -0.3649 -0.4628  0.1794
16731TIP3    H271685   6.837   4.354  13.870 -0.6709 -0.4464 -0.0949
16732TIP3   OH271686   6.452   3.546   5.318  0.1388  0.6119  0.1030
16732TIP3    H171687   6.543   3.517   5.313  0.3931  1.5156 -0.8166
16732TIP3    H271688   6.402   3.465   5.323  0.8970  0.0367 -1.1374
16733TIP3   OH271689   2.879   6.156  14.529  0.5318 -0.3189  0.1236
16733TIP3    H171690   2.799   6.206  14.545 -0.1115 -1.4313  0.5173
16733TIP3    H271691   2.943   6.194  14.589  0.3103  0.5984 -0.2120
16734TIP3   OH271692   6.607   0.171   0.172  0.0886  0.1526 -0.0649
16734TIP3    H171693   6.573   0.167   0.083 -1.4634  1.9809  0.3797
16734TIP3    H271694   6.530   0.162   0.228  0.9773 -0.5344  1.1179
16735TIP3   OH271695   0.406   6.068   3.635  0.4127 -0.0281  0.0553
16735TIP3    H171696   0.436   6.094   3.548  1.6245 -0.8393  0.2202
16735TIP3    H271697   0.331   6.126   3.652  1.6768  1.8438 -0.4840
16736TIP3   OH271698   1.761   0.456   5.133 -0.1040 -0.0501 -0.1328
16736TIP3    H171699   1.735   0.404   5.209  0.9078 -0.1194  0.1681
16736TIP3    H271700   1.756   0.546   5.163  3.1781 -0.1286  1.0187
16737TIP3   OH271701   3.710   6.528   4.849 -0.6326  0.0782  0.0301
16737TIP3    H171702   3.756   6.598   4.803 -1.9738  1.1364  0.2321
16737TIP3    H271703   3.748   6.527   4.937 -0.0035 -0.0477 -0.2407
16738TIP3   OH271704   6.186   6.511   0.210  0.2099  0.1755 -0.4065
16738TIP3    H171705   6.159   6.599   0.235 -2.0256 -0.4410 -0.4205
16738TIP3    H271706   6.121   6.484   0.145  0.4022 -1.7556  0.1394
16739TIP3   OH271707   2.335   1.252  15.458  0.1746 -0.6561  0.5870
16739TIP3    H171708   2.423   1.255  15.420 -0.4172  1.9283 -0.7638
16739TIP3    H271709   2.320   1.159  15.474  2.8331 -1.2547  0.1338
16740TIP3   OH271710   5.965   6.791   0.911 -0.7544 -0.4045  0.0824
16740TIP3    H171711   5.927   6.723   0.854 -0.4528 -2.4188  2.1251
16740TIP3    H271712   6.028   6.744   0.965  1.2240  2.0010  0.0261
16741TIP3   OH271713   4.604   0.128   1.975 -0.7814 -0.0423  0.2698
16741TIP3    H171714   4.692   0.104   2.004 -0.1753  0.0031 -1.4033
16741TIP3    H271715   4.548   0.108   2.049  0.6935  0.3510  1.5353
16742TIP3   OH271716   4.021   5.428  12.786  0.6247  0.1399  0.0222
16742TIP3    H171717   3.957   5.388  12.727  0.2765  1.6336 -0.6442
16742TIP3    H271718   4.104   5.386  12.762  0.0400 -1.2926  0.4107
16743TIP3   OH271719   6.817   0.860  15.857 -0.0733 -0.2613 -0.2358
16743TIP3    H171720   6.758   0.935  15.863  0.1484  0.0058 -1.2378
16743TIP3    H271721   6.904   0.899  15.847  0.4458 -0.6276  2.1111
16744TIP3   OH271722   3.145   5.460  15.217  0.0748 -0.5959 -0.0055
16744TIP3    H171723   3.061   5.434  15.179 -0.5980 -0.3932  1.2754
16744TIP3    H271724   3.125   5.540  15.267  1.8880  2.0199 -3.0963
16745TIP3   OH271725   2.001   6.556   0.848  0.0447 -0.0520 -0.2900
16745TIP3    H171726   2.051   6.556   0.930  0.8127 -0.4843 -0.7464
16745TIP3    H271727   2.026   6.638   0.805 -0.0938  0.0140 -0.2429
16746TIP3   OH271728   5.887   0.221   1.743  0.0264 -1.0264 -0.1479
16746TIP3    H171729   5.821   0.171   1.792 -1.4587  0.4458 -0.5292
16746TIP3    H271730   5.948   0.252   1.809 -1.4509  0.1868  0.7112
16747TIP3   OH271731   6.306   1.357  14.157  0.5367 -0.4222  0.3258
16747TIP3    H171732   6.306   1.261  14.149  0.0722 -0.2988 -1.5501
16747TIP3    H271733   6.389   1.377  14.199 -0.1114 -1.7328  2.4103
16748TIP3   OH271734   0.679   0.783  16.747 -0.6392 -0.4527 -0.1727
16748TIP3    H171735   0.596   0.826  16.730 -0.4218 -0.1218 -0.4103
16748TIP3    H271736   0.655   0.697  16.782 -1.1148 -1.1231 -1.9993
16749TIP3   OH271737   3.231   6.301   5.191 -0.0414  0.2508 -0.1728
16749TIP3    H171738   3.281   6.379   5.166  2.3121 -0.1557  2.6579
16749TIP3    H271739   3.290   6.228   5.173 -0.5943 -0.4904  0.9174
16750TIP3   OH271740   6.516   0.645   2.009 -0.3475 -0.2714  0.4090
16750TIP3    H171741   6.437   0.591   2.014 -0.5748  0.1246  1.1081
16750TIP3    H271742   6.508   0.707   2.081 -0.0081  0.5986 -0.2791
16751TIP3   OH271743   6.341   5.499  16.160  0.5761  0.4175 -0.1323
16751TIP3    H171744   6.324   5.461  16.246 -0.3864 -1.2371 -0.9823
16751TIP3    H271745   6.262   5.549  16.139  1.1724  1.5701  0.2928
16752TIP3   OH271746   3.936   5.222  12.094 -0.8134 -0.8697  0.0065
16752TIP3    H171747   3.908   5.307  12.128 -0.8288 -2.2384  3.8615
16752TIP3    H271748   3.942   5.236  11.999 -4.7234  2.2868 -0.0827
16753TIP3   OH271749   6.560   6.178   1.686  1.2529  0.7098 -0.6353
16753TIP3    H171750   6.550   6.137   1.599  0.8432 -1.0833  0.2031
16753TIP3    H271751   6.584   6.105   1.743  0.0288  1.5759  1.0443
16754TIP3   OH271752   1.247   3.098  12.983  0.0747  0.1573 -0.2176
16754TIP3    H171753   1.338   3.118  12.964 -0.3083  1.7849 -0.4556
16754TIP3    H271754   1.213   3.176  13.027 -1.7282  0.4334 -1.9285
16755TIP3   OH271755   4.339   0.724   0.824 -0.2100  0.7192 -0.2230
16755TIP3    H171756   4.284   0.766   0.890 -1.5238 -0.5101 -0.5028
16755TIP3    H271757   4.308   0.634   0.820  2.3298 -0.2484  0.1234
16756TIP3   OH271758   5.799   5.128  15.539  0.1817  0.1317  0.3383
16756TIP3    H171759   5.855   5.062  15.580 -1.7013 -2.6048 -1.1251
16756TIP3    H271760   5.740   5.156  15.609 -0.6606 -1.7637  0.4383
16757TIP3   OH271761   0.571   5.596   1.317  0.2703  0.6983  0.0645
16757TIP3    H171762   0.626   5.632   1.387  3.1334 -2.1450 -0.4979
16757TIP3    H271763   0.498   5.554   1.363  0.9866  0.6768  1.2152
16758TIP3   OH271764   6.036   0.519   4.262  0.9077 -0.0017 -0.1409
16758TIP3    H171765   6.039   0.431   4.300  1.1739  1.1512  2.7696
16758TIP3    H271766   5.943   0.540   4.260  0.8713 -0.1933 -0.4196
16759TIP3   OH271767   2.433   1.834   3.266  0.1882 -0.5924 -0.3445
16759TIP3    H171768   2.488   1.848   3.189 -0.7658 -0.0585 -0.9479
16759TIP3    H271769   2.445   1.914   3.318  0.3542 -0.6863 -0.2372
16760TIP3   OH271770   5.073   4.734   5.160  0.3012 -0.3372 -0.2007
16760TIP3    H171771   5.019   4.749   5.238 -0.1738 -0.5208 -0.4950
16760TIP3    H271772   5.156   4.778   5.180  0.1429 -0.2909  0.3646
16761TIP3   OH271773   6.739   2.170  12.292 -0.2286 -0.7758 -0.4412
16761TIP3    H171774   6.698   2.230  12.230 -0.6351 -1.9624 -1.3640
16761TIP3    H271775   6.710   2.083  12.264 -0.9817 -1.3185  1.8260
16762TIP3   OH271776   0.778   5.311  10.620  0.0609  0.5575 -0.0850
16762TIP3    H171777   0.787   5.385  10.679 -0.4554  0.7737 -0.2746
16762TIP3    H271778   0.862   5.265  10.626 -0.7291 -0.7083  2.5280
16763TIP3   OH271779   4.778   3.252  15.827  0.2433 -0.6232  0.0538
16763TIP3    H171780   4.691   3.227  15.859  0.2420  1.0027  1.4294
16763TIP3    H271781   4.832   3.173  15.840 -0.2705 -0.6623  2.2150
16764TIP3   OH271782   4.201   6.875   4.998 -0.2527  0.6566 -0.2077
16764TIP3    H171783   4.109   6.862   4.976 -0.4304  0.6477  0.5229
16764TIP3    H271784   4.203   6.877   5.094  0.7058 -0.8859 -0.1644
16765TIP3   OH271785   5.081   3.755   0.465 -0.0306  0.0745  0.4128
16765TIP3    H171786   5.040   3.838   0.488 -1.2790 -0.7663  1.3473
16765TIP3    H271787   5.165   3.756   0.510  0.5372  1.3413 -0.6107
16766TIP3   OH271788   4.734   0.446  14.529  0.2327 -0.0933  0.0281
16766TIP3    H171789   4.646   0.457  14.563  0.3091  0.3744  0.0764
16766TIP3    H271790   4.791   0.460  14.605  0.3197 -1.2572  0.1967
16767TIP3   OH271791   0.606   1.100  13.814 -0.2714  0.1708  0.1248
16767TIP3    H171792   0.673   1.069  13.874 -2.5432 -1.8739  1.8431
16767TIP3    H271793   0.612   1.195  13.817  0.5129  0.1121  2.7013
16768TIP3   OH271794   5.732   5.397  11.343 -0.1052 -0.2523 -0.2246
16768TIP3    H171795   5.692   5.455  11.278 -2.5908 -1.0833  0.4574
16768TIP3    H271796   5.658   5.362  11.393  1.6313 -0.2811  2.5555
16769TIP3   OH271797   2.468   6.836  14.068 -0.1164  0.0715 -0.5101
16769TIP3    H171798   2.532   6.886  14.016 -0.1233 -0.3087 -0.8886
16769TIP3    H271799   2.520   6.766  14.107  0.1519  1.0936  1.0562
16770TIP3   OH271800   6.232   5.408   4.603  0.1375 -0.3963 -0.0959
16770TIP3    H171801   6.205   5.325   4.643  1.4286 -1.1466 -0.7408
16770TIP3    H271802   6.247   5.386   4.511  0.3514  0.5946 -0.3010
16771TIP3   OH271803   4.259   4.258   1.348 -0.1290 -0.5553  0.5668
16771TIP3    H171804   4.264   4.187   1.283  1.4054  0.1897 -0.1843
16771TIP3    H271805   4.233   4.334   1.297  0.4082 -0.1112  0.9488
16772TIP3   OH271806   3.500   3.505   4.101 -0.1376 -0.6622 -0.7205
16772TIP3    H171807   3.433   3.546   4.156  1.2506  0.7500 -0.0145
16772TIP3    H271808   3.583   3.527   4.144  0.8147 -2.0209 -1.7926
16773TIP3   OH271809   4.414   3.740   3.914 -0.3396 -0.0812 -0.5665
16773TIP3    H171810   4.413   3.685   3.993 -0.5210  0.6021 -0.0849
16773TIP3    H271811   4.503   3.773   3.909 -0.3138 -0.1688 -0.6742
16774TIP3   OH271812   1.009   5.713   1.637  0.1420 -0.3475 -0.1969
16774TIP3    H171813   1.011   5.680   1.726 -0.0244 -0.3402 -0.1899
16774TIP3    H271814   1.069   5.656   1.589 -0.3746 -0.8550 -0.2501
16775TIP3   OH271815   5.348   3.548   4.290  0.8621 -0.0554 -0.8919
16775TIP3    H171816   5.370   3.622   4.347 -1.0486  0.3781 -0.6260
16775TIP3    H271817   5.380   3.574   4.204 -0.1274  1.2966 -0.8838
16776TIP3   OH271818   3.429   6.392   6.504  0.0500  0.6849 -0.3111
16776TIP3    H171819   3.477   6.408   6.585 -0.4881  0.9343 -0.0415
16776TIP3    H271820   3.376   6.314   6.522  2.2090 -1.1751 -1.4176
16777TIP3   OH271821   1.576   2.411  14.391  0.0319 -0.3437 -0.1305
16777TIP3    H171822   1.525   2.491  14.377 -1.0855 -0.8783  0.7496
16777TIP3    H271823   1.523   2.342  14.352  0.4767 -0.7965  0.0661
16778TIP3   OH271824   1.108   2.914   0.623  0.0089 -0.1753  0.3337
16778TIP3    H171825   1.166   2.899   0.697 -0.6495 -2.0604  0.5231
16778TIP3    H271826   1.030   2.862   0.642  0.0642 -1.2247 -1.9442
16779TIP3   OH271827   1.174   4.525  16.118 -0.7676  0.1682  0.0695
16779TIP3    H171828   1.232   4.459  16.156 -0.7425  0.8912  1.3277
16779TIP3    H271829   1.216   4.550  16.035 -0.2767 -0.6744  0.0604
16780TIP3   OH271830   0.316   6.361   2.376 -0.4658  0.1849  0.1579
16780TIP3    H171831   0.312   6.397   2.465 -0.5878  0.3949  0.0671
16780TIP3    H271832   0.280   6.273   2.384  0.3615 -0.1271  0.4911
16781TIP3   OH271833   1.833   2.323   0.070 -0.0233 -0.8586 -0.3931
16781TIP3    H171834   1.810   2.401   0.019  0.2197 -1.2183 -1.0739
16781TIP3    H271835   1.751   2.273   0.076 -0.6006  0.2402  1.5158
16782TIP3   OH271836   0.082   6.500   2.950 -0.0855  0.0485  0.1838
16782TIP3    H171837   0.013   6.545   3.000  0.4781 -0.4763  1.4942
16782TIP3    H271838   0.143   6.569   2.926 -0.8752  0.4626 -0.6669
16783TIP3   OH271839   2.668   1.654  15.348  0.1196  0.2055  0.7094
16783TIP3    H171840   2.681   1.578  15.291 -0.2941 -0.3769  1.3831
16783TIP3    H271841   2.748   1.705  15.338 -0.5615  0.9450 -1.6176
16784TIP3   OH271842   6.527   2.510   6.005 -0.2157  0.7697  0.4718
16784TIP3    H171843   6.465   2.571   6.044 -1.9480 -0.7266  0.2244
16784TIP3    H271844   6.565   2.557   5.931 -2.7671  1.0509 -0.7787
16785TIP3   OH271845   3.762   5.893   0.385  0.1832  0.1884  0.3704
16785TIP3    H171846   3.752   5.980   0.348  0.1707  1.1708  2.5491
16785TIP3    H271847   3.851   5.892   0.422  0.2139 -0.7561  0.3138
16786TIP3   OH271848   1.020   2.628  10.638  0.0557  0.6295  0.5139
16786TIP3    H171849   1.101   2.679  10.643 -0.4132  1.7472 -1.8333
16786TIP3    H271850   1.032   2.573  10.560 -1.1216  0.1897  0.6245
16787TIP3   OH271851   4.181   2.715   5.341  0.1999  0.3485 -0.0791
16787TIP3    H171852   4.107   2.743   5.394 -0.2980 -0.2359 -0.4445
16787TIP3    H271853   4.256   2.761   5.378 -0.4813  1.7026 -0.2908
16788TIP3   OH271854   6.846   4.063  13.065 -0.0033 -0.2855  0.3066
16788TIP3    H171855   6.929   4.105  13.084  0.8642 -1.7854 -0.0115
16788TIP3    H271856   6.861   4.013  12.985 -1.1234 -0.8157  0.4006
16789TIP3   OH271857   0.784   3.077   0.441  0.4520  0.2035 -0.9211
16789TIP3    H171858   0.828   3.095   0.524  0.4516  2.3490 -1.3295
16789TIP3    H271859   0.854   3.054   0.380  0.9860  2.7378 -1.3428
16790TIP3   OH271860   1.870   2.534   5.393  0.1351 -0.0357 -1.1157
16790TIP3    H171861   1.854   2.484   5.313  1.1692 -0.0976 -1.2954
16790TIP3    H271862   1.823   2.485   5.461  0.7022 -0.9802 -1.3762
16791TIP3   OH271863   2.088   4.818  14.263 -0.2863  0.0211 -0.6560
16791TIP3    H171864   2.179   4.825  14.234 -0.5831 -2.1929 -2.3998
16791TIP3    H271865   2.047   4.759  14.199 -2.3735 -0.8867  1.3839
16792TIP3   OH271866   1.950   3.913   4.079  0.3465  0.6784 -0.2983
16792TIP3    H171867   1.966   3.839   4.138 -0.8376  0.4777 -0.2036
16792TIP3    H271868   2.024   3.972   4.094  0.2219  0.4957  1.1795
16793TIP3   OH271869   0.988   2.741  14.351  0.7561 -0.2392 -0.1482
16793TIP3    H171870   0.961   2.680  14.420  2.4497  0.7606  1.4926
16793TIP3    H271871   0.943   2.823  14.373 -0.0824 -0.3681 -1.2951
16794TIP3   OH271872   3.250   4.460   0.889 -0.2928  0.6152  0.8236
16794TIP3    H171873   3.330   4.493   0.929  0.6572 -0.0749 -0.4184
16794TIP3    H271874   3.213   4.534   0.841 -0.6035  1.0263  1.6839
16795TIP3   OH271875   3.900   1.697   5.553 -0.0540 -0.0414  0.5418
16795TIP3    H171876   3.969   1.740   5.502 -0.6511 -0.9536 -1.1133
16795TIP3    H271877   3.946   1.663   5.631  1.2372 -0.0394 -0.1899
16796TIP3   OH271878   4.889   5.387   5.579 -0.3557 -0.4000  0.1171
16796TIP3    H171879   4.963   5.327   5.571  0.2811  0.3543  0.1808
16796TIP3    H271880   4.897   5.423   5.667 -0.5409  0.0198 -0.0367
16797TIP3   OH271881   0.472   0.018   3.687 -0.0294 -0.0606  0.8320
16797TIP3    H171882   0.423  -0.064   3.690 -0.0865 -0.1285 -1.0288
16797TIP3    H271883   0.543   0.001   3.626  0.8728  0.8209  1.6048
16798TIP3   OH271884   3.683   1.835   5.639  0.0867 -0.2652  0.0367
16798TIP3    H171885   3.648   1.859   5.553 -1.2384  0.2807  0.7126
16798TIP3    H271886   3.762   1.785   5.618 -0.4391 -0.5265 -1.5141
16799TIP3   OH271887   0.916   2.037  10.640 -0.0991  0.0603 -0.3497
16799TIP3    H171888   0.851   2.051  10.710  0.8671  0.4735  0.5001
16799TIP3    H271889   0.984   2.102  10.658 -0.2969  0.8544 -2.2890
16800TIP3   OH271890   4.881   0.276  15.479  0.8025  0.3807 -0.3959
16800TIP3    H171891   4.892   0.289  15.573  0.5860  0.4185 -0.3771
16800TIP3    H271892   4.913   0.357  15.440  1.0488  0.3005 -0.3650
16801TIP3   OH271893   1.078   3.238  16.413 -0.8184  0.7797 -0.3131
16801TIP3    H171894   1.170   3.215  16.430 -1.2037  0.0278  0.8900
16801TIP3    H271895   1.071   3.241  16.317  0.4121  0.6549 -0.4182
16802TIP3   OH271896   1.678   1.858   0.398 -0.0128  0.1965 -0.4203
16802TIP3    H171897   1.736   1.847   0.322  2.8817  0.4574  1.5834
16802TIP3    H271898   1.712   1.936   0.443 -0.6611 -0.7864  1.9146
16803TIP3   OH271899   6.258   5.006  12.731  0.3340  0.0974 -0.2857
16803TIP3    H171900   6.339   5.003  12.782  0.3470 -3.1840 -0.3135
16803TIP3    H271901   6.189   5.015  12.796  0.5495 -0.3404  0.0100
16804TIP3   OH271902   3.623   6.666   5.957  0.2249 -0.1376 -0.1860
16804TIP3    H171903   3.594   6.575   5.953  2.6712 -0.9518 -1.4581
16804TIP3    H271904   3.718   6.660   5.966  0.3828  2.3200  0.4219
16805TIP3   OH271905   6.765   4.611  16.102 -0.3215 -0.3004  0.8959
16805TIP3    H171906   6.778   4.530  16.152 -0.1694 -0.5946  0.3782
16805TIP3    H271907   6.768   4.680  16.169 -0.3750 -0.7110  1.3307
16806TIP3   OH271908   2.226   4.139   4.449  0.5836  0.3526  0.0172
16806TIP3    H171909   2.310   4.139   4.496  1.6452  1.7777 -1.7784
16806TIP3    H271910   2.186   4.223   4.471 -1.3361 -1.0207  2.3133
16807TIP3   OH271911   4.854   1.508  16.490  0.0960  0.1608  0.7948
16807TIP3    H171912   4.902   1.558  16.424  0.8350 -0.3282  0.9538
16807TIP3    H271913   4.769   1.552  16.496  0.5331  1.0701  0.5428
16808TIP3   OH271914   1.395   0.904  14.941  0.3626 -0.7806 -0.2236
16808TIP3    H171915   1.458   0.833  14.928 -0.4657 -1.4840 -0.3889
16808TIP3    H271916   1.367   0.895  15.032  0.6884 -0.2947 -0.0648
16809TIP3   OH271917   5.215   4.674  12.680 -0.5429 -0.1044  0.3678
16809TIP3    H171918   5.122   4.691  12.696 -0.3637  1.0930  0.2271
16809TIP3    H271919   5.253   4.760  12.664  0.4266 -0.6697 -0.5188
16810TIP3   OH271920   3.151   3.460   2.921  0.2242  0.0119  0.0277
16810TIP3    H171921   3.081   3.464   2.856  1.8688  2.1221 -1.7612
16810TIP3    H271922   3.141   3.540   2.973  1.3893  0.4688 -0.4089
16811TIP3   OH271923   6.459   5.598   2.160  0.4392 -0.4845  0.0092
16811TIP3    H171924   6.499   5.663   2.218 -1.4814  1.0749 -0.3171
16811TIP3    H271925   6.394   5.555   2.215  0.0798 -0.4745 -0.4065
16812TIP3   OH271926   5.025   2.250  11.115 -0.1349 -0.4967 -0.5008
16812TIP3    H171927   4.981   2.178  11.160 -1.1875  0.0825 -0.5759
16812TIP3    H271928   5.118   2.228  11.121 -0.3773 -1.4031  0.2570
16813TIP3   OH271929   3.238   0.782  14.782 -0.8761  0.3036  0.0073
16813TIP3    H171930   3.253   0.731  14.862 -1.8763  0.5408  0.3509
16813TIP3    H271931   3.308   0.847  14.783 -1.1125  0.5632  0.9033
16814TIP3   OH271932   1.580   1.931   3.734 -0.2747 -0.2411  0.3019
16814TIP3    H171933   1.552   1.855   3.784 -1.3797  0.1487  0.3024
16814TIP3    H271934   1.512   1.997   3.751 -0.2698  0.1496 -1.0901
16815TIP3   OH271935   3.049   1.874  14.731 -0.0768 -0.5032 -0.1604
16815TIP3    H171936   2.964   1.918  14.728  0.0715 -0.2392 -0.5450
16815TIP3    H271937   3.090   1.895  14.648  1.2665  1.1936  0.8581
16816TIP3   OH271938   4.765   1.760   5.054  0.1753  0.1471 -0.1443
16816TIP3    H171939   4.703   1.811   5.106  1.3111 -0.3660  1.8392
16816TIP3    H271940   4.838   1.821   5.037  0.1119  0.1123 -0.5420
16817TIP3   OH271941   6.871   0.621   3.972  0.1854  0.0018 -0.0757
16817TIP3    H171942   6.780   0.591   3.968  0.2721 -0.3086  0.1998
16817TIP3    H271943   6.872   0.687   4.041  0.1987 -0.1153  0.0381
16818TIP3   OH271944   2.468   1.816  14.717 -0.4412 -0.3796 -0.2285
16818TIP3    H171945   2.531   1.750  14.686 -1.2407 -1.3484  0.1489
16818TIP3    H271946   2.413   1.835  14.640 -0.3562 -0.3267 -0.2763
16819TIP3   OH271947   2.100   0.408  15.958  0.4010  0.1853  0.0166
16819TIP3    H171948   2.056   0.491  15.974 -1.0966 -0.2491 -1.5450
16819TIP3    H271949   2.157   0.425  15.883  0.7805  0.0303  0.2674
16820TIP3   OH271950   4.025   3.255  12.311 -0.4334 -0.5238  0.4675
16820TIP3    H171951   3.993   3.167  12.333 -1.3762 -0.1823  0.4920
16820TIP3    H271952   3.980   3.313  12.372  0.3506 -0.0331  0.5910
16821TIP3   OH271953   4.418   4.034  12.235  0.5890  0.1673 -0.3449
16821TIP3    H171954   4.450   3.944  12.232  0.3901  0.0134  1.3530
16821TIP3    H271955   4.481   4.080  12.290  0.2710  0.9000 -0.5809
16822TIP3   OH271956   4.124   3.493  15.280  0.2406  0.3001  0.2008
16822TIP3    H171957   4.154   3.558  15.216  2.3585 -1.3341 -0.5893
16822TIP3    H271958   4.165   3.520  15.362 -1.1060  1.4329  0.5505
16823TIP3   OH271959   3.464   5.981   2.901 -1.0533 -0.5816 -0.0523
16823TIP3    H171960   3.437   5.909   2.844 -2.1080 -0.7113  0.5741
16823TIP3    H271961   3.499   5.938   2.979  1.3449 -0.4157 -0.9641
16824TIP3   OH271962   4.983   0.647  11.722  0.0873  0.1989  0.3644
16824TIP3    H171963   4.953   0.574  11.776 -0.8868  0.1303 -0.2546
16824TIP3    H271964   5.058   0.611  11.673  0.0884 -0.1539  0.6176
16825TIP3   OH271965   2.898   3.803   0.367  0.5209  0.7689 -0.1773
16825TIP3    H171966   2.815   3.790   0.322  0.9562 -0.5016 -0.6693
16825TIP3    H271967   2.959   3.743   0.323  2.2069  3.0120 -1.0644
16826TIP3   OH271968   2.264   2.786  15.428 -0.0819  0.1720 -0.0788
16826TIP3    H171969   2.255   2.809  15.335 -0.6265 -1.8004 -0.5711
16826TIP3    H271970   2.189   2.729  15.446 -0.2255  0.8693  1.7130
16827TIP3   OH271971   5.639   1.326  14.597 -0.2973 -0.3806  0.1598
16827TIP3    H171972   5.715   1.301  14.544 -0.9443 -1.8623 -0.1088
16827TIP3    H271973   5.677   1.375  14.671  0.9547 -1.3146  0.1700
16828TIP3   OH271974   5.660   3.416   3.110  0.2825  0.1034  0.3609
16828TIP3    H171975   5.722   3.347   3.135 -1.3197 -0.4526  3.2075
16828TIP3    H271976   5.634   3.393   3.021  0.3944 -2.5445  0.9244
16829TIP3   OH271977   4.740   1.503   5.045  0.5256  0.6226  0.1602
16829TIP3    H171978   4.778   1.590   5.051 -0.5481  1.2905 -1.6951
16829TIP3    H271979   4.754   1.477   4.954  0.7739 -1.1290  0.6620
16830TIP3   OH271980   2.027   3.731   2.584  0.6095 -0.1921 -0.1433
16830TIP3    H171981   2.107   3.679   2.584  0.6777 -0.1004 -0.7437
16830TIP3    H271982   1.985   3.710   2.501 -0.8649 -1.5410  0.9125
16831TIP3   OH271983   2.496   2.161  12.295 -0.3934 -0.0587 -0.1572
16831TIP3    H171984   2.474   2.133  12.384 -0.2580  1.6621  0.4459
16831TIP3    H271985   2.585   2.195  12.302 -0.5760  0.5730 -0.8482
16832TIP3   OH271986   2.023   1.890   3.287  0.0592 -0.1917 -0.1378
16832TIP3    H171987   2.088   1.876   3.219 -0.7958  0.6182 -1.1532
16832TIP3    H271988   1.942   1.854   3.251 -0.3667  0.0807  0.5294
16833TIP3   OH271989   4.673   4.193  16.078 -0.0637  0.4761 -0.7039
16833TIP3    H171990   4.682   4.256  16.007  0.1964  2.9203  1.3310
16833TIP3    H271991   4.587   4.212  16.115  0.9689  1.3806  1.4072
16834TIP3   OH271992   0.248   6.680   3.468 -0.0145  0.0636  0.6064
16834TIP3    H171993   0.299   6.661   3.546 -0.3647  0.1821  0.8654
16834TIP3    H271994   0.290   6.757   3.430 -0.4916  0.6610  1.2658
16835TIP3   OH271995   1.216   5.176  14.596  0.0718  0.1499  0.0218
16835TIP3    H171996   1.243   5.173  14.505  2.3362  0.8026  0.6007
16835TIP3    H271997   1.286   5.131  14.644  0.5182  2.4122  1.6945
16836TIP3   OH271998   1.268   2.368  16.406 -0.0958  0.3975 -0.1829
16836TIP3    H171999   1.218   2.426  16.349 -1.3014 -0.3353  0.0908
16836TIP3    H272000   1.327   2.426  16.454  0.5109  1.0968 -1.6986
16837TIP3   OH272001   1.529   4.722   6.326 -0.2291  0.4658  0.6008
16837TIP3    H172002   1.549   4.785   6.395 -0.3296  0.9179  0.2165
16837TIP3    H272003   1.609   4.669   6.318 -0.7526 -0.6479  2.1709
16838TIP3   OH272004   0.675   2.764  15.513 -0.0040  0.2033  0.4941
16838TIP3    H172005   0.664   2.739  15.421 -2.0214  0.1765  0.6846
16838TIP3    H272006   0.753   2.717  15.541 -0.0364 -0.7648 -0.8999
16839TIP3   OH272007   1.147   6.285   0.998 -0.2741  0.0044 -0.1698
16839TIP3    H172008   1.238   6.255   1.000 -0.3295 -0.1494  0.5767
16839TIP3    H272009   1.102   6.224   0.940 -0.3513 -1.3162  1.1971
16840TIP3   OH272010   3.151   6.409   2.865  0.5107 -0.0456 -0.0037
16840TIP3    H172011   3.115   6.496   2.847  0.1317 -0.2406 -0.1949
16840TIP3    H272012   3.075   6.355   2.884  0.7432 -0.3484  0.0774
16841TIP3   OH272013   2.929   4.877   0.725  0.3046 -0.7174  0.1940
16841TIP3    H172014   2.851   4.925   0.755  1.1658  0.9453 -0.1212
16841TIP3    H272015   2.934   4.898   0.631  0.4203 -1.8709 -0.0678
16842TIP3   OH272016   2.781   0.926  10.720  0.3309  0.0484 -0.2709
16842TIP3    H172017   2.707   0.913  10.660  0.5580 -2.6348 -0.0669
16842TIP3    H272018   2.835   0.848  10.709  1.3312  0.3214  2.1420
16843TIP3   OH272019   3.704   2.287  16.815  0.2162  0.7281  0.3997
16843TIP3    H172020   3.787   2.291  16.766  1.1310 -0.2855  1.7837
16843TIP3    H272021   3.646   2.236  16.758  1.3809 -0.7778  0.4635
16844TIP3   OH272022   6.721   2.448  11.726 -0.3817  0.2752  0.2698
16844TIP3    H172023   6.796   2.478  11.675 -1.5009 -1.1424 -2.4062
16844TIP3    H272024   6.759   2.414  11.807  1.3678  3.6739  1.0389
16845TIP3   OH272025   5.728   6.841   4.087  0.4308  0.1162  0.0728
16845TIP3    H172026   5.721   6.824   4.181  0.0908  2.7077  0.5922
16845TIP3    H272027   5.638   6.835   4.055  0.5116 -0.4937 -0.0586
16846TIP3   OH272028   0.282   6.381   3.955 -0.3139 -0.2690  0.2546
16846TIP3    H172029   0.236   6.435   3.891  0.2587 -0.9756 -0.7817
16846TIP3    H272030   0.250   6.292   3.939  0.3341 -0.5515  0.4991
16847TIP3   OH272031   2.185   1.546   0.022  0.1044  0.1289 -0.2645
16847TIP3    H172032   2.170   1.573  -0.069 -0.5745 -0.1396 -0.2382
16847TIP3    H272033   2.203   1.452   0.015  0.8607  0.2625 -0.1970
16848TIP3   OH272034   2.276   0.842   0.185 -0.8103  0.1310 -0.2550
16848TIP3    H172035   2.370   0.822   0.189 -1.1015 -1.9291 -2.0799
16848TIP3    H272036   2.234   0.768   0.227 -1.6724  1.2877  1.0273
16849TIP3   OH272037   2.980   1.394  16.482 -0.1882  0.5978  0.0044
16849TIP3    H172038   2.970   1.311  16.528  1.2756 -0.5964 -1.6879
16849TIP3    H272039   2.901   1.443  16.503 -0.2805 -0.4777  2.4894
16850TIP3   OH272040   4.718   4.083  16.457 -0.3835  0.3867 -0.3440
16850TIP3    H172041   4.718   3.993  16.491  1.1270 -0.1425 -1.6264
16850TIP3    H272042   4.762   4.076  16.372  0.6444  2.4936 -0.0380
16851TIP3   OH272043   4.028   2.929  16.253  0.3745  0.3942 -0.3204
16851TIP3    H172044   3.956   2.992  16.253 -0.0931 -0.0900 -1.6745
16851TIP3    H272045   3.998   2.859  16.196  0.8670 -1.1003  1.1868
16852TIP3   OH272046   1.485   6.693  12.507  0.0357  0.2209 -0.0280
16852TIP3    H172047   1.516   6.783  12.501  2.5305 -0.4683  1.2287
16852TIP3    H272048   1.525   6.649  12.433  0.5726 -0.2937  0.5598
16853TIP3   OH272049   2.654   5.674  16.783  0.3906  0.2875 -0.3891
16853TIP3    H172050   2.558   5.666  16.775  0.3620 -1.4605  0.9606
16853TIP3    H272051   2.666   5.737  16.854  0.2387  0.7813 -0.8035
16854TIP3   OH272052   6.459   2.347  13.027  0.1020 -0.2661  0.1972
16854TIP3    H172053   6.545   2.330  13.064  0.1528 -0.5660 -0.0510
16854TIP3    H272054   6.407   2.270  13.050  0.0103 -0.2574  0.0253
16855TIP3   OH272055   2.412   3.611   5.690 -0.1089 -0.2628 -0.2143
16855TIP3    H172056   2.402   3.654   5.605 -0.9328 -1.1377 -0.5835
16855TIP3    H272057   2.379   3.675   5.753 -1.6501 -0.4554 -0.7835
16856TIP3   OH272058   4.572   1.228  16.361  0.5875 -0.0327 -0.0407
16856TIP3    H172059   4.478   1.236  16.346  0.3746 -0.9190  0.7153
16856TIP3    H272060   4.591   1.135  16.345  1.3614  0.1668 -0.3227
16857TIP3   OH272061   1.852   3.486  11.832 -0.3051 -0.4775 -0.5602
16857TIP3    H172062   1.799   3.453  11.904 -0.0324 -1.6226 -0.8619
16857TIP3    H272063   1.890   3.568  11.865 -0.5581 -0.7432  0.4217
16858TIP3   OH272064   0.389   6.711   6.024 -0.3595 -0.4099  0.6346
16858TIP3    H172065   0.388   6.656   5.946  0.2987  1.5325 -0.8327
16858TIP3    H272066   0.301   6.748   6.029 -0.2120 -0.0369  0.4486
16859TIP3   OH272067   1.773   0.323   2.582 -0.5092 -0.1849 -0.6299
16859TIP3    H172068   1.725   0.382   2.641 -0.2466 -0.0570 -0.5391
16859TIP3    H272069   1.834   0.277   2.640 -1.6782 -1.6020 -0.4643
16860TIP3   OH272070   6.266   6.257   6.531  0.6172 -0.0270 -0.2041
16860TIP3    H172071   6.221   6.175   6.550 -0.5008  0.6196  0.0734
16860TIP3    H272072   6.195   6.321   6.522  1.4882  0.9996  0.0829
16861TIP3   OH272073   3.923   2.088   0.705 -0.3074 -0.3973  0.7849
16861TIP3    H172074   3.888   2.139   0.778 -1.0183  0.0344  0.1485
16861TIP3    H272075   3.892   1.999   0.720 -0.3316 -0.3372  1.0867
16862TIP3   OH272076   2.015   2.263  14.894 -0.2355  0.4615  0.1900
16862TIP3    H172077   2.027   2.170  14.916  0.2142  0.7013  0.9917
16862TIP3    H272078   1.927   2.283  14.926 -0.2624  0.3553  0.1851
16863TIP3   OH272079   3.625   3.556  12.226 -0.0539 -0.0461  0.5209
16863TIP3    H172080   3.587   3.637  12.192 -0.1373 -0.1355  0.3999
16863TIP3    H272081   3.658   3.580  12.313  1.3991  0.5218 -0.1686
16864TIP3   OH272082   4.058   6.445  12.548  0.3855  0.1095  0.0054
16864TIP3    H172083   4.022   6.445  12.637  1.7433  0.1041  0.5759
16864TIP3    H272084   4.065   6.537  12.524 -0.8656  0.1027 -0.5005
16865TIP3   OH272085   3.335   5.213   0.749  0.1431  0.1063  0.9881
16865TIP3    H172086   3.288   5.289   0.782  0.1448  0.0914  1.0256
16865TIP3    H272087   3.279   5.177   0.681  0.4799  0.5575  0.4664
16866TIP3   OH272088   2.718   2.121   0.657 -0.1754 -0.2520  0.6021
16866TIP3    H172089   2.760   2.193   0.704 -1.5034 -0.3453  2.0352
16866TIP3    H272090   2.738   2.043   0.709 -0.1349 -0.6619 -0.0127
16867TIP3   OH272091   3.426   6.208  11.191  0.7762  0.2413  0.0657
16867TIP3    H172092   3.499   6.223  11.131  1.6635 -1.6633  0.5709
16867TIP3    H272093   3.430   6.114  11.211 -0.4228  0.5091  1.8924
16868TIP3   OH272094   1.215   3.796   2.113  0.4776  0.2072 -0.0146
16868TIP3    H172095   1.148   3.757   2.057 -0.8862  2.0652  0.2038
16868TIP3    H272096   1.168   3.862   2.164  2.1446  0.2864  1.5352
16869TIP3   OH272097   1.512   5.238   5.010  0.0742 -0.0999  0.3978
16869TIP3    H172098   1.585   5.218   4.950 -0.5370 -0.5775 -0.2083
16869TIP3    H272099   1.476   5.320   4.977 -0.9668 -0.9315 -0.6039
16870TIP3   OH272100   4.993   4.169   5.800 -0.3513  0.2135  0.1657
16870TIP3    H172101   5.048   4.110   5.852 -0.1812 -0.2408 -0.5120
16870TIP3    H272102   4.904   4.150   5.830 -0.2388  0.1194  0.4509
16871TIP3   OH272103   5.828   5.450   3.988 -0.2203  0.0616 -0.3472
16871TIP3    H172104   5.905   5.427   4.040 -0.4127  1.1328  0.4340
16871TIP3    H272105   5.779   5.511   4.042 -2.9873 -2.4548  0.2693
16872TIP3   OH272106   3.041   3.195  13.401  0.3596 -0.2348  0.0599
16872TIP3    H172107   3.107   3.155  13.345 -0.7011 -1.6157 -0.2524
16872TIP3    H272108   2.968   3.215  13.342 -0.4032 -0.8576  0.7630
16873TIP3   OH272109   4.197   3.934   5.412 -0.4468  0.0698 -0.6815
16873TIP3    H172110   4.142   4.008   5.439 -1.6875 -0.4686 -1.6278
16873TIP3    H272111   4.285   3.970   5.407 -0.6182  0.8741  1.2451
16874TIP3   OH272112   3.465   0.313  14.870 -0.5352 -0.6137  0.1965
16874TIP3    H172113   3.383   0.267  14.852  1.2920 -4.2485  0.2590
16874TIP3    H272114   3.477   0.305  14.965 -0.0741 -0.1407  0.1869
16875TIP3   OH272115   4.210   0.894  13.333 -0.2822 -0.9984 -0.4392
16875TIP3    H172116   4.296   0.875  13.370  0.1006  1.1343 -0.1415
16875TIP3    H272117   4.149   0.855  13.396  0.4251 -2.0276 -0.3582
16876TIP3   OH272118   6.543   5.775   4.653  0.4046  0.2682  0.2372
16876TIP3    H172119   6.589   5.727   4.584  0.3015 -1.2149  1.1406
16876TIP3    H272120   6.451   5.774   4.625  0.0588 -1.9551  1.1861
16877TIP3   OH272121   2.883   4.419  11.325 -0.7873  0.0156 -0.1480
16877TIP3    H172122   2.846   4.377  11.247  0.8972 -1.9051  0.0153
16877TIP3    H272123   2.832   4.383  11.397  0.0694 -1.0956 -0.0826
16878TIP3   OH272124   0.196   5.901  12.026 -0.4372 -0.1556  0.1337
16878TIP3    H172125   0.292   5.905  12.019 -0.1585 -1.6011  2.0903
16878TIP3    H272126   0.171   5.989  12.053  0.2987  0.3101 -0.6321
16879TIP3   OH272127   4.844   6.404  14.356  0.0839  0.4014 -0.2114
16879TIP3    H172128   4.774   6.338  14.355  0.4202  0.0533 -1.1348
16879TIP3    H272129   4.920   6.357  14.390  0.1674  0.4748 -0.2984
16880TIP3   OH272130   3.690   4.696  15.070  0.8438  0.2277 -0.6378
16880TIP3    H172131   3.748   4.727  15.001  1.6213 -0.5147 -0.3332
16880TIP3    H272132   3.742   4.631  15.118  0.1394  0.3424  0.3145
16881TIP3   OH272133   6.348   3.797  12.526 -0.5093  0.3118  0.3710
16881TIP3    H172134   6.363   3.887  12.499 -3.6375  0.6155 -0.7385
16881TIP3    H272135   6.414   3.781  12.595  2.4194  2.1868 -1.7515
16882TIP3   OH272136   6.432   1.366  10.654  0.5872  0.1854  1.6369
16882TIP3    H172137   6.463   1.437  10.709 -1.4595  1.4441  1.2725
16882TIP3    H272138   6.341   1.388  10.636  0.6005 -1.2696 -0.5424
16883TIP3   OH272139   3.094   4.263  12.705  0.3468 -0.2884 -0.4248
16883TIP3    H172140   3.148   4.228  12.775 -1.1591 -0.6068  0.6337
16883TIP3    H272141   3.022   4.307  12.750 -0.3007  0.0848 -1.7650
16884TIP3   OH272142   2.799   5.187  13.601  0.4723 -0.8096  0.1314
16884TIP3    H172143   2.828   5.177  13.692 -1.8370  1.9611  1.3229
16884TIP3    H272144   2.736   5.116  13.588  1.5989 -1.8738  0.2764
16885TIP3   OH272145   0.591   4.847  16.009  0.2225 -0.0470  0.6409
16885TIP3    H172146   0.520   4.785  16.024 -1.3723  1.7517  0.8403
16885TIP3    H272147   0.596   4.899  16.089  1.2417  0.3893  0.3202
16886TIP3   OH272148   3.208   3.532   3.442  0.1963 -0.2434 -0.0948
16886TIP3    H172149   3.192   3.449   3.399  1.8492  0.2515 -1.8175
16886TIP3    H272150   3.243   3.589   3.372  1.3499  1.1424  1.5202
16887TIP3   OH272151   2.295   6.742   2.544 -0.1497 -0.0531  0.8777
16887TIP3    H172152   2.363   6.674   2.543  0.1496  0.2509 -0.3195
16887TIP3    H272153   2.232   6.714   2.478 -0.6632  0.2120  1.2485
16888TIP3   OH272154   3.987   5.165   4.629 -0.1508  0.9694  0.1559
16888TIP3    H172155   3.964   5.092   4.686  1.4606  0.5721  0.3353
16888TIP3    H272156   4.014   5.235   4.688  0.7608  0.8258 -0.0760
16889TIP3   OH272157   5.970   3.342   0.009  0.1765 -0.0490  0.1719
16889TIP3    H172158   5.990   3.265  -0.045  0.5499 -0.8207  1.3744
16889TIP3    H272159   5.875   3.337   0.023  0.2356 -0.4186  0.4430
16890TIP3   OH272160   5.246   1.301  14.856  0.0123  0.5195  0.8677
16890TIP3    H172161   5.207   1.339  14.776  0.3778 -0.1209  0.3754
16890TIP3    H272162   5.204   1.216  14.865  0.0968  0.5186  1.2706
16891TIP3   OH272163   4.833   0.961  14.846  0.4888 -0.1248 -0.2141
16891TIP3    H172164   4.803   1.051  14.858  0.2269 -0.2880  0.3766
16891TIP3    H272165   4.911   0.969  14.792 -0.7476  0.2843 -2.0291
16892TIP3   OH272166   3.962   1.176   0.702 -0.0234  0.3519 -0.0761
16892TIP3    H172167   4.051   1.144   0.716 -0.5261 -2.0077 -1.7170
16892TIP3    H272168   3.946   1.165   0.608 -2.9081 -1.8666  0.5276
16893TIP3   OH272169   4.696   1.163  14.531 -0.2519 -0.5226  0.0401
16893TIP3    H172170   4.717   1.205  14.614 -1.6986 -0.8263  0.5817
16893TIP3    H272171   4.622   1.213  14.496  1.3926  0.6876 -1.9477
16894TIP3   OH272172   2.599   6.581   3.833 -0.3874 -0.2523 -0.0984
16894TIP3    H172173   2.522   6.573   3.888 -0.9868  0.4373 -0.8039
16894TIP3    H272174   2.620   6.675   3.834 -0.9210 -0.0884 -1.6871
16895TIP3   OH272175   1.435   4.282   3.129 -0.4146  0.4666  0.2265
16895TIP3    H172176   1.469   4.359   3.082 -2.4478  0.4016 -1.4820
16895TIP3    H272177   1.506   4.218   3.123  0.7844  1.6977  0.4802
16896TIP3   OH272178   4.434   3.349  15.448  0.2112  0.0510 -0.1040
16896TIP3    H172179   4.399   3.289  15.382 -0.5263  0.2929  0.0533
16896TIP3    H272180   4.362   3.409  15.466  0.8600  0.8477 -0.0949
16897TIP3   OH272181   2.705   3.748  13.065 -0.2928 -0.0920 -0.0773
16897TIP3    H172182   2.668   3.830  13.097  0.2715  0.4636 -0.8286
16897TIP3    H272183   2.684   3.747  12.971  0.0118 -0.6372 -0.1432
16898TIP3   OH272184   6.478   6.803  14.219 -0.0038 -0.1981 -0.0038
16898TIP3    H172185   6.438   6.840  14.141  2.2117 -0.3006 -1.2822
16898TIP3    H272186   6.500   6.879  14.273  2.2863  0.2952 -1.4935
16899TIP3   OH272187   0.967   4.649  15.781  0.7944 -0.0065 -0.3693
16899TIP3    H172188   0.937   4.562  15.756  0.4482  0.3974 -1.4062
16899TIP3    H272189   0.950   4.654  15.875  1.4918 -1.3117 -0.1469
16900TIP3   OH272190   3.313   6.546  10.763  0.6504  1.2228 -0.0937
16900TIP3    H172191   3.340   6.637  10.752 -1.6880  1.6823 -4.0548
16900TIP3    H272192   3.252   6.530  10.691  1.3810 -3.7159  0.0196
16901TIP3   OH272193   3.009   3.496   6.126 -0.2259  0.6845  0.3526
16901TIP3    H172194   2.951   3.438   6.175  1.2962 -0.5764  0.7593
16901TIP3    H272195   3.006   3.463   6.036 -0.9222  1.2777  0.1520
16902TIP3   OH272196   3.517   4.851  12.215  0.2735  0.2316 -0.9268
16902TIP3    H172197   3.485   4.887  12.132  1.2724  0.6768 -1.1372
16902TIP3    H272198   3.518   4.756  12.201 -1.1081  0.1864 -0.8415
16903TIP3   OH272199   5.931   1.200  10.299  0.0937 -1.0995  0.3306
16903TIP3    H172200   5.870   1.142  10.344 -1.1227 -0.0205  0.1164
16903TIP3    H272201   5.882   1.281  10.285  1.4018 -0.3870 -0.3313
16904TIP3   OH272202   3.050   5.916  15.559  0.3487  0.4844 -0.4175
16904TIP3    H172203   3.096   5.995  15.531 -1.3425  1.4139 -0.7344
16904TIP3    H272204   2.959   5.944  15.569  0.1033 -0.8663  1.7913
16905TIP3   OH272205   2.915   4.492  15.065 -0.3137  0.2112 -0.0388
16905TIP3    H172206   2.845   4.428  15.080  0.5706 -0.6138  0.7214
16905TIP3    H272207   2.905   4.518  14.974 -0.5631 -1.1926 -0.4304
16906TIP3   OH272208   2.708   1.256   3.546  0.0524 -0.0493 -0.6056
16906TIP3    H172209   2.751   1.295   3.470 -0.2154 -0.7272 -1.1154
16906TIP3    H272210   2.750   1.297   3.621  1.5772 -0.6657 -1.0913
16907TIP3   OH272211   2.544   1.266   3.304 -0.3221 -0.1737 -0.0796
16907TIP3    H172212   2.600   1.194   3.275 -0.8959  0.1642 -2.2069
16907TIP3    H272213   2.568   1.280   3.396  2.3897 -0.6561 -0.6394
16908TIP3   OH272214   0.231   1.499  12.896  0.4696 -0.0936  0.2537
16908TIP3    H172215   0.225   1.434  12.827  1.0097  0.5653 -0.4290
16908TIP3    H272216   0.142   1.504  12.933  0.1598 -0.3919 -0.4480
16909TIP3   OH272217   0.754   2.952   4.310  0.6033  0.2606  0.1135
16909TIP3    H172218   0.751   2.865   4.270 -0.5760  0.6185 -0.6405
16909TIP3    H272219   0.666   2.966   4.345  1.2494  0.5035  1.7109
16910TIP3   OH272220   5.312   2.122  11.169 -0.4489  0.3935 -0.1210
16910TIP3    H172221   5.274   2.043  11.131  0.8825 -0.3752  0.0792
16910TIP3    H272222   5.405   2.103  11.175 -0.4748  0.7554  2.7995
16911TIP3   OH272223   6.811   6.089   5.183 -0.4151 -0.0282  0.5759
16911TIP3    H172224   6.812   6.183   5.200  0.8789  0.1451 -0.2965
16911TIP3    H272225   6.830   6.049   5.268 -1.4009  0.4588  1.0414
16912TIP3   OH272226   5.601   4.687   5.262 -0.4106  0.1836 -0.2856
16912TIP3    H172227   5.648   4.744   5.202  0.2935 -0.4636 -0.3650
16912TIP3    H272228   5.581   4.609   5.210  0.2090 -0.3878  0.2967
16913TIP3   OH272229   0.172   5.060  11.550  0.1709  0.1647 -0.6925
16913TIP3    H172230   0.261   5.027  11.556  0.0676 -0.1464 -0.8287
16913TIP3    H272231   0.166   5.097  11.462 -0.1795 -0.8714 -1.1284
16914TIP3   OH272232   0.521   0.117  16.727  0.4015 -0.1726  0.1218
16914TIP3    H172233   0.532   0.026  16.754 -0.7164  0.1155  1.7133
16914TIP3    H272234   0.427   0.125  16.708  0.1397  1.0186  1.6832
16915TIP3   OH272235   6.465   1.719  14.565  0.2137 -0.0984 -0.0171
16915TIP3    H172236   6.393   1.727  14.502  1.4660 -0.2919 -1.5233
16915TIP3    H272237   6.478   1.807  14.598  1.0819  0.5031 -1.8410
16916TIP3   OH272238   4.554   3.825   5.456  0.6101 -0.0442 -0.0213
16916TIP3    H172239   4.506   3.773   5.520  1.9172  0.3485  1.3412
16916TIP3    H272240   4.574   3.763   5.386  0.9410 -1.0497  0.9220
16917TIP3   OH272241   6.508   2.083  16.124  0.2606 -0.3306  0.1401
16917TIP3    H172242   6.468   2.094  16.211  1.3341  0.5079  0.5507
16917TIP3    H272243   6.439   2.042  16.072 -1.1332  1.0157  0.8226
16918TIP3   OH272244   2.908   6.776  11.704  0.3793  0.2236 -0.0777
16918TIP3    H172245   2.938   6.712  11.769 -0.1962 -2.2564 -2.0604
16918TIP3    H272246   2.814   6.787  11.722 -0.0751 -1.4665 -1.1601
16919TIP3   OH272247   3.185   3.970   2.630 -0.0246 -0.2965  0.7472
16919TIP3    H172248   3.168   4.042   2.568  1.3256 -0.8810 -0.3587
16919TIP3    H272249   3.280   3.970   2.640 -0.1256 -1.0761  1.8028
16920TIP3   OH272250   2.316   5.129  11.778  0.2726  0.1937  0.4933
16920TIP3    H172251   2.289   5.099  11.691  2.2854 -0.3001 -0.0032
16920TIP3    H272252   2.410   5.142  11.771  0.2916  1.3277  2.2850
16921TIP3   OH272253   2.348   3.169  16.677  0.4610 -0.0066  0.0355
16921TIP3    H172254   2.302   3.250  16.700  1.1828  0.3156  0.3940
16921TIP3    H272255   2.380   3.184  16.588 -0.4483 -0.3836 -0.3607
16922TIP3   OH272256   0.938   6.498   6.139 -0.3886  0.3008  0.3674
16922TIP3    H172257   0.959   6.580   6.183 -0.4133 -0.0790  1.1147
16922TIP3    H272258   0.960   6.430   6.204 -1.5922 -0.2217  0.2681
16923TIP3   OH272259   3.170   5.866  11.038 -0.6737 -0.1572  0.0804
16923TIP3    H172260   3.120   5.863  11.119  1.2099 -2.6026  1.2950
16923TIP3    H272261   3.227   5.789  11.041  0.0461  0.0568 -3.2370
16924TIP3   OH272262   3.060   0.509   0.822  0.0033 -0.0267 -0.1379
16924TIP3    H172263   3.083   0.537   0.911  1.2028 -0.1833 -0.3863
16924TIP3    H272264   3.118   0.435   0.805 -0.6672 -0.4073 -0.8233
16925TIP3   OH272265   5.079   3.451  11.609  0.5591 -0.0077  0.1526
16925TIP3    H172266   5.002   3.430  11.661  0.1446  0.0494 -0.4335
16925TIP3    H272267   5.153   3.421  11.663  0.0641 -1.6342 -0.0067
16926TIP3   OH272268   6.060   0.378   0.798  0.2718  0.2049  0.5546
16926TIP3    H172269   6.035   0.357   0.888  1.0214 -0.4363  0.6234
16926TIP3    H272270   6.035   0.301   0.748  1.9015 -0.3912  0.6019
16927TIP3   OH272271   6.157   4.729  11.145  0.6529  0.8463 -0.4866
16927TIP3    H172272   6.077   4.691  11.181  0.5960  0.6770 -0.7801
16927TIP3    H272273   6.226   4.702  11.205  0.2969  2.1843  0.5586
16928TIP3   OH272274   0.227   4.355  14.511 -0.0176  0.5249  0.5931
16928TIP3    H172275   0.197   4.268  14.487 -1.8497  1.2815 -0.0623
16928TIP3    H272276   0.323   4.351  14.503 -0.1233 -1.1908 -0.1898
16929TIP3   OH272277   5.860   5.049   6.184 -0.0312  0.2949 -0.5132
16929TIP3    H172278   5.934   4.988   6.180  1.0859  1.5414  0.3647
16929TIP3    H272279   5.886   5.123   6.130 -0.3032  1.0893  0.4196
16930TIP3   OH272280   5.931   4.404   6.320 -0.1441  0.0318  0.5201
16930TIP3    H172281   5.922   4.434   6.229  0.9060  2.2297  1.0726
16930TIP3    H272282   5.843   4.408   6.356 -0.3922  0.1951 -0.0977
16931TIP3   OH272283   5.011   3.424  13.552  0.0142  0.0915  0.4471
16931TIP3    H172284   5.007   3.438  13.647 -0.9572  0.3978  0.3774
16931TIP3    H272285   5.102   3.442  13.528  0.2840 -0.0658  1.3308
16932TIP3   OH272286   5.115   2.089  15.440  0.4674 -0.1314  0.0501
16932TIP3    H172287   5.108   2.083  15.535  0.7617 -0.2427  0.0651
16932TIP3    H272288   5.192   2.036  15.418  0.1389 -0.4809 -0.2908
16933TIP3   OH272289   0.561   5.722   3.480  0.3164 -0.0312  0.3817
16933TIP3    H172290   0.620   5.795   3.498 -0.1859  0.6093 -0.4808
16933TIP3    H272291   0.603   5.646   3.519  1.2188  0.5923  0.6377
16934TIP3   OH272292   5.429   2.871  10.835 -0.3381  0.3981  0.0683
16934TIP3    H172293   5.353   2.899  10.785  0.0165 -0.7300 -1.1514
16934TIP3    H272294   5.471   2.805  10.780  1.1440  0.5107  1.0137
16935TIP3   OH272295   5.074   3.563   4.328  0.0492  0.2076 -0.4299
16935TIP3    H172296   5.056   3.511   4.250  2.2290 -0.4134 -0.5859
16935TIP3    H272297   5.169   3.571   4.330  0.0147  0.6993  1.8402
16936TIP3   OH272298   6.325   4.319   1.005 -0.7834  0.2382  0.2530
16936TIP3    H172299   6.305   4.333   1.098  1.3361  2.5186  0.4673
16936TIP3    H272300   6.311   4.405   0.964 -2.6645 -0.9505 -1.8118
16937TIP3   OH272301   6.657   2.236   3.177 -0.4185 -0.3095 -0.4465
16937TIP3    H172302   6.660   2.163   3.238  0.5213  0.7534  0.8633
16937TIP3    H272303   6.610   2.203   3.101 -2.3640 -1.4392  1.1735
16938TIP3   OH272304   4.797   2.514   4.563  0.5044  0.5187 -0.2005
16938TIP3    H172305   4.877   2.467   4.589  0.6848 -0.0048 -1.5850
16938TIP3    H272306   4.733   2.444   4.548  0.2261  0.8428 -0.5174
16939TIP3   OH272307   4.280   5.739  12.326  0.1371  0.3040  0.2123
16939TIP3    H172308   4.264   5.802  12.396 -0.6819 -0.1540  0.4573
16939TIP3    H272309   4.366   5.703  12.345  0.7337  1.5218 -0.0775
16940TIP3   OH272310   3.607   3.025   5.157 -0.1778 -0.0015 -0.3305
16940TIP3    H172311   3.676   2.995   5.215  0.6631  1.4888 -0.5258
16940TIP3    H272312   3.653   3.061   5.081 -1.1042  2.0882  0.0516
16941TIP3   OH272313   6.330   0.227  11.350  0.1115  0.0940 -0.3045
16941TIP3    H172314   6.336   0.314  11.309  1.4899 -0.1527 -0.6646
16941TIP3    H272315   6.288   0.173  11.283 -3.3617  1.0420  0.9203
16942TIP3   OH272316   1.073   3.163  12.395 -0.6144  0.0782  0.3936
16942TIP3    H172317   1.028   3.223  12.454 -0.8250  0.5567 -0.2471
16942TIP3    H272318   1.109   3.219  12.327 -0.4499 -0.4797  0.0191
16943TIP3   OH272319   6.451   1.591  15.742  0.4158 -0.1324  0.4476
16943TIP3    H172320   6.499   1.524  15.694 -0.0473 -1.0368  1.2010
16943TIP3    H272321   6.433   1.659  15.678 -1.1390 -1.7886 -0.9603
16944TIP3   OH272322   4.788   4.914  16.662 -0.7080 -0.1532  0.3496
16944TIP3    H172323   4.877   4.890  16.635 -0.7291 -0.0529  0.1920
16944TIP3    H272324   4.765   4.849  16.728 -0.7743 -0.5834 -0.0963
16945TIP3   OH272325   1.422   0.750  11.945  0.0523  0.0092  0.4297
16945TIP3    H172326   1.505   0.759  11.899 -0.7317  1.3117 -0.8231
16945TIP3    H272327   1.358   0.729  11.877 -1.4729  3.7463  0.4510
16946TIP3   OH272328   1.359   1.159  15.860  0.6614 -0.1531 -0.0014
16946TIP3    H172329   1.315   1.074  15.854 -0.1752  0.2373  0.4199
16946TIP3    H272330   1.434   1.143  15.916  0.9645 -0.7905 -0.5708
16947TIP3   OH272331   3.165   1.754  11.789  0.3560  0.4801 -0.4125
16947TIP3    H172332   3.177   1.732  11.882  2.8564  1.3141 -0.4756
16947TIP3    H272333   3.070   1.765  11.780  0.0681  0.8947  2.1682
16948TIP3   OH272334   3.860   0.527  12.501 -0.4953 -0.1907  0.2011
16948TIP3    H172335   3.942   0.560  12.464 -0.1143 -0.0567  1.1280
16948TIP3    H272336   3.887   0.459  12.563 -1.0117  0.4578  1.1643
16949TIP3   OH272337   3.110   6.063   2.127 -0.2165  0.8467 -0.4215
16949TIP3    H172338   3.067   6.020   2.201  0.9687  0.9065  0.3481
16949TIP3    H272339   3.164   5.994   2.088  1.7102  1.5442  0.8279
16950TIP3   OH272340   2.925   2.628   0.628 -0.8478  0.2351  0.1269
16950TIP3    H172341   3.016   2.599   0.636 -1.0250  0.0938  1.8692
16950TIP3    H272342   2.894   2.587   0.547  0.4598 -0.1694 -0.1896
16951TIP3   OH272343   4.870   3.693   2.409 -0.0274  0.3383 -0.6669
16951TIP3    H172344   4.799   3.709   2.347  1.3241 -1.8097 -2.9378
16951TIP3    H272345   4.914   3.778   2.418 -3.5296  2.1844  2.0011
16952TIP3   OH272346   2.140   3.630  16.872 -0.3206 -0.1095 -0.5991
16952TIP3    H172347   2.089   3.706  16.846 -1.4287  0.1612  2.1002
16952TIP3    H272348   2.127   3.622  16.966  1.0299 -2.7270 -0.5208
16953TIP3   OH272349   6.619   4.137  16.670 -0.2009 -0.0334 -0.2351
16953TIP3    H172350   6.678   4.208  16.698  0.6009 -0.4028 -0.9531
16953TIP3    H272351   6.531   4.171  16.688  0.1751  1.0803 -0.4089
16954TIP3   OH272352   4.716   0.137  14.067  0.5044  0.1796 -0.1702
16954TIP3    H172353   4.708   0.100  13.979 -0.3058  2.0361 -0.9490
16954TIP3    H272354   4.748   0.226  14.052 -1.2416  1.1098  1.2722
16955TIP3   OH272355   3.305   3.166  10.866  0.1673  0.2084 -0.9168
16955TIP3    H172356   3.386   3.140  10.823  0.3582  1.1173 -1.1191
16955TIP3    H272357   3.243   3.180  10.793 -0.0369 -0.0247 -0.7895
16956TIP3   OH272358   0.132   2.667  13.169 -0.4169  0.3906  0.0924
16956TIP3    H172359   0.090   2.696  13.250 -0.2077 -1.0307  0.7345
16956TIP3    H272360   0.067   2.684  13.101 -2.1156 -1.7562  1.0592
16957TIP3   OH272361   5.742   1.156   4.196 -0.1658  0.5570 -0.2562
16957TIP3    H172362   5.806   1.226   4.202  1.0914 -0.6562  1.0660
16957TIP3    H272363   5.657   1.201   4.192  0.7131  2.2161 -2.7318
16958TIP3   OH272364   4.566   1.585  12.287  0.0782 -0.6221 -0.0438
16958TIP3    H172365   4.562   1.503  12.337  1.2940 -0.1843  0.8228
16958TIP3    H272366   4.626   1.566  12.215  0.5333 -0.4497  0.2818
16959TIP3   OH272367   1.518   3.413  11.898  0.8842 -0.5944 -0.3552
16959TIP3    H172368   1.507   3.325  11.934 -0.4485 -0.9124 -1.4585
16959TIP3    H272369   1.563   3.400  11.815  1.6533 -0.1159 -0.0238
16960TIP3   OH272370   4.077   2.692  13.802  0.1958 -0.1769  0.1238
16960TIP3    H172371   4.064   2.686  13.707  2.6053  1.5277 -0.4035
16960TIP3    H272372   3.999   2.737  13.834 -0.9084 -1.2707 -0.9306
16961TIP3   OH272373   5.192   4.479  14.532  0.3238 -0.0241 -0.2240
16961TIP3    H172374   5.146   4.445  14.455 -0.4294 -1.1074  0.6679
16961TIP3    H272375   5.218   4.568  14.507 -0.0032 -0.3076 -1.6763
16962TIP3   OH272376   2.361   5.603  14.468  0.2203  0.3101  0.0402
16962TIP3    H172377   2.307   5.555  14.530  1.0790  1.7757  2.0450
16962TIP3    H272378   2.450   5.570  14.482  0.2013 -0.6837 -1.8225
16963TIP3   OH272379   1.186   0.981   3.507 -0.4121 -0.3154  0.0727
16963TIP3    H172380   1.118   0.927   3.468 -0.8380  0.2623 -0.0103
16963TIP3    H272381   1.174   1.067   3.467  0.8965 -0.4034 -0.5421
16964TIP3   OH272382   2.481   1.365  13.747 -0.2492  0.2563 -0.2844
16964TIP3    H172383   2.516   1.314  13.673 -1.3625 -0.1603 -0.5408
16964TIP3    H272384   2.553   1.368  13.810 -0.3040 -2.1565 -0.0009
16965TIP3   OH272385   5.161   4.132   0.912  0.3940  0.8686 -0.8397
16965TIP3    H172386   5.166   4.074   0.987  0.8637  1.3232 -0.5169
16965TIP3    H272387   5.128   4.215   0.947  0.3309  0.9920 -1.1838
16966TIP3   OH272388   3.057   5.479  11.777 -0.4300  0.5870 -0.0027
16966TIP3    H172389   3.112   5.488  11.855  0.8518  1.7040 -1.0070
16966TIP3    H272390   2.997   5.407  11.799  0.5234  0.2418  1.6385
16967TIP3   OH272391   2.653   4.572  13.057 -0.3403  0.2880  0.1733
16967TIP3    H172392   2.672   4.661  13.030 -0.2331  0.0608 -0.5143
16967TIP3    H272393   2.688   4.565  13.146  1.4198  0.3400 -0.4825
16968TIP3   OH272394   1.172   4.412   3.250 -0.1475 -0.3415 -0.0619
16968TIP3    H172395   1.136   4.489   3.205  1.5297 -1.2659 -3.3234
16968TIP3    H272396   1.252   4.445   3.291 -0.5343  0.0591  0.3893
16969TIP3   OH272397   3.703   1.527   5.443  0.0097  0.0430 -0.1308
16969TIP3    H172398   3.756   1.592   5.488 -1.8084  1.0778  0.6066
16969TIP3    H272399   3.740   1.524   5.354  0.9113  1.1504  0.1821
16970TIP3   OH272400   6.388   4.822   3.624 -0.4621  0.0423  1.1408
16970TIP3    H172401   6.347   4.736   3.624  1.8327 -1.1109  1.3964
16970TIP3    H272402   6.358   4.863   3.543 -0.7284 -1.4336  0.4637
16971TIP3   OH272403   0.640   5.013  11.809 -0.0569  0.0360 -0.1452
16971TIP3    H172404   0.678   5.096  11.840  1.7624 -0.7585 -0.1226
16971TIP3    H272405   0.705   4.979  11.747 -1.2378 -0.9097 -0.9003
16972TIP3   OH272406   6.454   5.520   5.524 -0.4963  0.4623 -0.3159
16972TIP3    H172407   6.388   5.558   5.466 -1.1141 -0.9190 -0.5717
16972TIP3    H272408   6.414   5.439   5.556  0.3899  0.4843  0.9437
16973TIP3   OH272409   2.623   1.851  12.951  0.3861 -0.1209 -0.4843
16973TIP3    H172410   2.633   1.935  12.907 -0.3545 -0.4163 -1.2614
16973TIP3    H272411   2.632   1.786  12.881 -2.4211 -0.5637 -0.5788
16974TIP3   OH272412   5.066   0.997  15.216 -0.5959  0.0260 -0.6667
16974TIP3    H172413   5.041   0.922  15.161 -1.4606  0.1877 -0.5156
16974TIP3    H272414   5.035   0.974  15.303 -0.8262  0.5351 -0.6111
16975TIP3   OH272415   1.499   4.808   4.003  0.2563 -0.1050  0.0643
16975TIP3    H172416   1.479   4.714   3.993 -0.1629  0.1005 -1.0872
16975TIP3    H272417   1.565   4.826   3.937  0.5627  0.3645  0.4903
16976TIP3   OH272418   0.224   5.111  16.298 -0.4808  0.1185  0.0649
16976TIP3    H172419   0.214   5.200  16.331  1.3622 -0.1672  1.5524
16976TIP3    H272420   0.176   5.057  16.360  1.7952 -0.2755  1.5875
16977TIP3   OH272421   3.182   6.755   5.378  0.3828 -0.0244 -0.5376
16977TIP3    H172422   3.274   6.734   5.391  0.6176  1.1521 -0.2237
16977TIP3    H272423   3.136   6.701   5.442  0.5437 -2.8362 -2.6104
16978TIP3   OH272424   1.136   5.054   2.252 -0.0798 -0.2530  0.7978
16978TIP3    H172425   1.119   5.109   2.329  2.0121 -0.1475  1.2448
16978TIP3    H272426   1.120   5.111   2.178 -1.9843 -0.3103  1.1168
16979TIP3   OH272427   2.824   5.970  13.603  0.1054  0.4152  0.2439
16979TIP3    H172428   2.834   5.879  13.575 -0.4830  0.2613  0.5264
16979TIP3    H272429   2.896   5.984  13.665 -0.4457 -0.1901  1.0302
16980TIP3   OH272430   5.887   2.118  15.063 -0.0315  0.0968  0.2870
16980TIP3    H172431   5.877   2.072  15.146  1.6796 -0.8746  0.0029
16980TIP3    H272432   5.858   2.208  15.081  2.3173  0.5121  2.5658
16981TIP3   OH272433   1.632   0.720   2.083 -0.0333  0.2798 -0.1237
16981TIP3    H172434   1.700   0.755   2.141  0.3623 -2.5474  1.2505
16981TIP3    H272435   1.680   0.687   2.007  0.1289 -1.1587  0.5705
16982TIP3   OH272436   1.710   0.678  14.434 -0.0880 -0.2298  0.1595
16982TIP3    H172437   1.637   0.739  14.448 -1.4063 -1.9753  1.4622
16982TIP3    H272438   1.784   0.718  14.479 -0.4959  1.1073 -0.3152
16983TIP3   OH272439   2.485   3.219  12.976  0.3162 -0.2639  0.5746
16983TIP3    H172440   2.542   3.175  12.913 -0.7759 -3.1167  1.4343
16983TIP3    H272441   2.521   3.195  13.062  0.7747  2.1605  1.1448
16984TIP3   OH272442   3.317   1.750   3.206 -0.2013  0.5227  0.4336
16984TIP3    H172443   3.265   1.741   3.286  1.0155 -0.0003  1.2094
16984TIP3    H272444   3.383   1.817   3.227  0.1719  0.3337 -0.0993
16985TIP3   OH272445   5.783   6.094  16.695  0.1974 -0.1931 -0.2135
16985TIP3    H172446   5.789   5.999  16.704 -0.8605 -0.3089 -0.6181
16985TIP3    H272447   5.803   6.111  16.603 -0.1821 -0.0861 -0.2795
16986TIP3   OH272448   0.846   5.118  13.197  0.8692  0.0701 -0.3010
16986TIP3    H172449   0.920   5.069  13.234  0.4347  0.4603  1.1156
16986TIP3    H272450   0.830   5.189  13.258  0.2801  0.9013 -1.3809
16987TIP3   OH272451   1.383   3.251   2.211 -0.0642 -0.5046  0.0922
16987TIP3    H172452   1.315   3.316   2.226  1.2415  1.0087 -0.3621
16987TIP3    H272453   1.343   3.188   2.151 -1.9521 -1.1619  1.9420
16988TIP3   OH272454   3.365   4.569   2.765  0.1552 -0.3740 -0.2527
16988TIP3    H172455   3.398   4.489   2.807  0.4997 -0.8352 -1.3744
16988TIP3    H272456   3.301   4.539   2.702  1.0119  0.1304 -1.4085
16989TIP3   OH272457   0.810   2.923   3.911  0.2821  1.1920  0.5930
16989TIP3    H172458   0.757   2.974   3.849  1.5215  2.4603  0.5403
16989TIP3    H272459   0.780   2.952   3.997 -2.3929 -1.5289  0.7560
16990TIP3   OH272460   1.907   3.599  11.003 -0.6291 -0.0360  0.4164
16990TIP3    H172461   1.815   3.622  10.992 -0.4950  0.7535  0.8612
16990TIP3    H272462   1.952   3.647  10.933 -0.4739  0.1145  0.6219
16991TIP3   OH272463   1.447   4.766  12.607  0.0816 -0.4197 -0.3148
16991TIP3    H172464   1.501   4.805  12.675 -0.9754  0.1402  0.2288
16991TIP3    H272465   1.365   4.816  12.610 -0.0030 -0.4169 -1.9648
16992TIP3   OH272466   3.579   2.565   4.185  0.0502  0.0946  0.3417
16992TIP3    H172467   3.531   2.579   4.103 -0.2782  0.4716  0.5984
16992TIP3    H272468   3.586   2.470   4.192 -0.2092  0.0499  0.0413
16993TIP3   OH272469   1.556   3.118   1.067 -0.1321  0.1780 -0.5070
16993TIP3    H172470   1.559   3.025   1.087 -1.4845 -0.1651 -1.7109
16993TIP3    H272471   1.477   3.150   1.110 -0.2977  0.5043 -1.0334
16994TIP3   OH272472   6.374   6.521   0.464  0.6366 -0.0398 -0.4597
16994TIP3    H172473   6.311   6.580   0.505  1.5228  0.8508 -0.3315
16994TIP3    H272474   6.335   6.498   0.380 -1.0219 -1.5601  0.6661
16995TIP3   OH272475   0.872   3.701  15.805  0.4013 -0.1608 -0.3698
16995TIP3    H172476   0.834   3.652  15.732  1.3230  0.2665 -1.1435
16995TIP3    H272477   0.816   3.778  15.814 -1.0595 -1.2821  0.8524
16996TIP3   OH272478   6.751   1.261  12.768  1.1395 -0.0228 -0.0422
16996TIP3    H172479   6.815   1.259  12.838 -0.2855  0.2111  1.3328
16996TIP3    H272480   6.739   1.170  12.743  0.5588 -0.2718  1.0951
16997TIP3   OH272481   3.921   0.100  10.342 -0.3177 -0.7621 -0.1085
16997TIP3    H172482   3.902   0.071  10.253 -1.1162  3.0150 -1.3456
16997TIP3    H272483   3.846   0.155  10.366  0.5323 -0.5668  2.3876
16998TIP3   OH272484   5.709   3.233  14.875 -0.3674 -0.2070 -0.1417
16998TIP3    H172485   5.792   3.185  14.878 -0.6834 -0.7616 -0.0665
16998TIP3    H272486   5.734   3.325  14.863  0.1855 -0.6029 -2.3158
16999TIP3   OH272487   0.690   0.789  15.394  0.4322  0.5082  0.1557
16999TIP3    H172488   0.615   0.764  15.448  0.0843  1.0890 -0.0508
16999TIP3    H272489   0.750   0.714  15.401  0.1442  0.3311  0.8814
17000TIP3   OH272490   2.934   3.990   3.885  0.2616  0.0016  0.2859
17000TIP3    H172491   2.857   3.980   3.830  0.3888  0.3693  0.0318
17000TIP3    H272492   2.952   3.903   3.920 -0.1470 -0.1210  0.1830
17001TIP3   OH272493   3.885   0.320   3.847 -0.3329 -0.5517 -0.3418
17001TIP3    H172494   3.947   0.393   3.854  0.0571 -1.0016  1.3663
17001TIP3    H272495   3.821   0.336   3.917  0.4603 -2.4406  0.8949
17002TIP3   OH272496   6.043   5.784  11.722  0.5055 -0.5545 -0.5236
17002TIP3    H172497   6.055   5.722  11.650 -1.6743 -0.3870 -1.1080
17002TIP3    H272498   5.981   5.848  11.688 -0.1188 -0.1258  1.2978
17003TIP3   OH272499   6.442   3.046  14.981 -0.3684  0.3098 -0.6063
17003TIP3    H172500   6.489   3.093  14.912  0.0416 -0.2343 -0.7061
17003TIP3    H272501   6.421   3.113  15.045  0.3179  0.6155 -0.6842
17004TIP3   OH272502   0.635   6.679  10.199  0.2230  0.2901 -0.1201
17004TIP3    H172503   0.550   6.640  10.218 -0.5807  2.3716  0.8709
17004TIP3    H272504   0.650   6.661  10.106 -0.1576 -2.1140  0.2294
17005TIP3   OH272505   6.204   4.174   4.745 -0.2760  0.1090  0.2433
17005TIP3    H172506   6.139   4.175   4.676 -0.8526  2.3167  0.7348
17005TIP3    H272507   6.284   4.142   4.703 -0.9963 -0.0690 -1.0287
17006TIP3   OH272508   4.468   1.465  15.005  0.2897  0.4250  0.0571
17006TIP3    H172509   4.463   1.486  14.912 -1.0288  0.9524  0.2132
17006TIP3    H272510   4.378   1.445  15.030  0.9603 -2.0356  0.7369
17007TIP3   OH272511   5.311   3.528   2.033  0.3943  0.2440  0.2506
17007TIP3    H172512   5.381   3.463   2.029  0.1907  0.0799 -1.2054
17007TIP3    H272513   5.259   3.503   2.109 -0.9554 -2.6620 -1.4929
17008TIP3   OH272514   3.304   5.282  13.688  0.2603  0.4606  0.1246
17008TIP3    H172515   3.330   5.265  13.598 -0.0237  0.1470  0.0959
17008TIP3    H272516   3.347   5.212  13.739  0.5830  0.7560  0.2591
17009TIP3   OH272517   4.778   1.349   3.675  0.1481 -0.2881 -0.0273
17009TIP3    H172518   4.747   1.385   3.759 -0.8026 -1.2464  0.0466
17009TIP3    H272519   4.811   1.426   3.628  0.7462  0.2679  1.2248
17010TIP3   OH272520   1.723   0.595  13.625  0.2116  0.4105 -0.2556
17010TIP3    H172521   1.745   0.589  13.532  1.1885  0.1529 -0.0203
17010TIP3    H272522   1.806   0.617  13.668  0.6704 -3.1031  0.9606
17011TIP3   OH272523   0.210   3.882  16.004 -0.2927 -0.3935 -0.1757
17011TIP3    H172524   0.261   3.884  16.084 -0.4157 -0.5194 -0.0929
17011TIP3    H272525   0.138   3.943  16.019 -0.4593 -0.6105 -0.0928
17012TIP3   OH272526   0.957   4.712   2.090 -0.1840 -0.5025 -0.8059
17012TIP3    H172527   1.017   4.647   2.053 -0.8494 -0.1490 -2.6012
17012TIP3    H272528   0.895   4.661   2.141  0.7908 -0.9978 -0.0658
17013TIP3   OH272529   5.365   4.357   6.469 -0.1175  0.4101  0.2821
17013TIP3    H172530   5.321   4.281   6.430  1.0219 -0.2260  0.1825
17013TIP3    H272531   5.310   4.381   6.543  0.5369 -1.8450  1.6048
17014TIP3   OH272532   6.087   5.668   4.634  0.0737 -0.2255 -0.0136
17014TIP3    H172533   5.999   5.629   4.630 -0.1341  0.1577  0.6106
17014TIP3    H272534   6.146   5.594   4.641 -0.1695 -0.5052 -0.7736
17015TIP3   OH272535   3.974   5.837   3.636  0.4966 -0.3369 -0.5493
17015TIP3    H172536   4.056   5.865   3.678  0.5431 -0.5866 -0.4699
17015TIP3    H272537   3.926   5.792   3.705  0.2963 -0.2016 -0.6002
17016TIP3   OH272538   1.796   3.719  16.550 -0.1688  0.2921  0.0713
17016TIP3    H172539   1.721   3.684  16.598 -2.0195  1.2250 -2.0098
17016TIP3    H272540   1.798   3.670  16.468 -0.2530  2.1364 -1.0865
17017TIP3   OH272541   2.986   3.948  15.479 -1.0147 -0.2548  0.2365
17017TIP3    H172542   2.906   3.918  15.436 -0.0977 -1.2106 -0.8821
17017TIP3    H272543   3.027   4.008  15.416 -0.8782  0.2974  0.8346
17018TIP3   OH272544   3.796   2.792  13.887 -0.2440 -0.4463 -0.0277
17018TIP3    H172545   3.807   2.850  13.962  2.5184 -1.0998  0.1742
17018TIP3    H272546   3.791   2.851  13.812 -0.1218  0.1394  0.4155
17019TIP3   OH272547   4.465   3.337  11.050  0.4641 -0.4282  0.4081
17019TIP3    H172548   4.435   3.427  11.038 -0.7226 -0.9876 -1.1917
17019TIP3    H272549   4.504   3.314  10.965 -0.3205 -1.8026  0.3985
17020TIP3   OH272550   3.412   3.273   6.103  0.2062 -0.2357 -0.0710
17020TIP3    H172551   3.378   3.354   6.142  0.1091  0.2688 -1.1775
17020TIP3    H272552   3.386   3.277   6.011 -1.4904 -2.4434  0.2103
17021TIP3   OH272553   5.257   2.575  12.416  0.0168  0.1686 -0.2077
17021TIP3    H172554   5.251   2.671  12.416 -0.4053  0.1800  1.4428
17021TIP3    H272555   5.310   2.554  12.339 -0.7441  1.6566 -1.1861
17022TIP3   OH272556   6.512   5.466  12.854 -0.4815  0.5644 -0.7958
17022TIP3    H172557   6.497   5.402  12.784  1.5981 -0.8627 -0.0112
17022TIP3    H272558   6.480   5.423  12.933 -0.3417  1.0838 -0.4516
17023TIP3   OH272559   2.061   1.360  16.070 -0.0239  0.1400 -0.3237
17023TIP3    H172560   2.056   1.265  16.076 -0.4523  0.0557 -1.5643
17023TIP3    H272561   1.971   1.388  16.057  0.2968  0.5079 -2.0470
17024TIP3   OH272562   1.077   2.534   3.990  0.5229 -0.4822 -0.0020
17024TIP3    H172563   1.007   2.573   3.937 -0.7449  1.1090  2.6500
17024TIP3    H272564   1.059   2.440   3.987 -1.5972 -0.1430  0.3551
17025TIP3   OH272565   3.279   0.919   0.911 -0.3420 -0.7972 -0.1890
17025TIP3    H172566   3.205   0.962   0.954  1.5118  2.0143  0.4539
17025TIP3    H272567   3.249   0.903   0.822 -2.3220 -1.5224  0.5439
17026TIP3   OH272568   5.883   5.401  10.417 -0.1990  0.6805 -0.1471
17026TIP3    H172569   5.943   5.388  10.343 -1.0672  1.5051 -1.0113
17026TIP3    H272570   5.940   5.396  10.494  1.1476  2.1635 -0.9744
17027TIP3   OH272571   0.455   6.846   2.634  0.4646  0.2411  0.2738
17027TIP3    H172572   0.489   6.776   2.689  0.9676  0.5365  0.3396
17027TIP3    H272573   0.423   6.802   2.555 -0.5477 -0.2160  0.9256
17028TIP3   OH272574   1.001   0.502   5.407 -0.1977  0.0252 -0.0168
17028TIP3    H172575   0.996   0.434   5.340  1.2628 -1.3745  1.2133
17028TIP3    H272576   1.046   0.575   5.364 -0.0247 -0.5290 -0.8040
17029TIP3   OH272577   5.904   5.736  13.297 -0.0560  1.0938  0.2325
17029TIP3    H172578   5.822   5.778  13.271 -1.5007 -1.4670  0.2524
17029TIP3    H272579   5.923   5.675  13.225  0.9267  0.4708  0.9886
17030TIP3   OH272580   6.242   6.832   2.155  0.0854  0.6454 -0.1476
17030TIP3    H172581   6.312   6.810   2.094 -0.4851 -1.9067  0.0397
17030TIP3    H272582   6.219   6.750   2.198 -1.0051  1.9484  1.9857
17031TIP3   OH272583   3.273   0.892   0.027  0.4716 -0.6801  0.0331
17031TIP3    H172584   3.188   0.934   0.014  1.2944  0.7804 -0.8630
17031TIP3    H272585   3.252   0.800   0.042 -1.3483 -0.1365  1.1802
17032TIP3   OH272586   5.739   0.586  13.270 -0.3512 -0.2885  0.0088
17032TIP3    H172587   5.689   0.527  13.213 -1.7713  1.1178 -0.2680
17032TIP3    H272588   5.786   0.527  13.329  1.2867 -1.8154 -2.6195
17033TIP3   OH272589   6.517   3.403  11.570 -0.2608  0.2091  0.6865
17033TIP3    H172590   6.554   3.491  11.572  1.3598 -0.3872 -0.8954
17033TIP3    H272591   6.578   3.350  11.622  0.2157 -0.4483 -0.4993
17034TIP3   OH272592   0.153   5.167  14.290 -0.0668 -0.6562  0.3831
17034TIP3    H172593   0.209   5.160  14.368  0.6040  3.2564  0.4523
17034TIP3    H272594   0.066   5.142  14.321  0.4953 -0.8099  1.9440
17035TIP3   OH272595   0.532   2.408   1.416 -0.2687 -0.4102 -0.6301
17035TIP3    H172596   0.561   2.353   1.344 -0.1069  1.0506 -1.7190
17035TIP3    H272597   0.482   2.349   1.473 -1.1682 -1.4092 -2.3911
17036TIP3   OH272598   4.929   2.156   2.915 -0.1864  0.0143 -0.1661
17036TIP3    H172599   4.975   2.077   2.884 -0.9995 -0.5214 -0.0171
17036TIP3    H272600   4.914   2.206   2.835 -0.6645 -0.5132 -0.4138
17037TIP3   OH272601   0.519   4.933   2.703 -0.3496  0.6368 -0.0349
17037TIP3    H172602   0.527   5.003   2.768  3.6610 -0.5644  1.0326
17037TIP3    H272603   0.521   4.852   2.754 -0.2581 -0.3108 -1.4784
17038TIP3   OH272604   3.990   2.002  10.687  0.0694 -0.8817  0.9342
17038TIP3    H172605   3.933   1.990  10.763 -0.5162  2.2283  1.1390
17038TIP3    H272606   4.032   2.087  10.702  1.6000 -1.1760 -1.1995
17039TIP3   OH272607   6.444   0.365  13.552  0.0883  0.1994  0.7058
17039TIP3    H172608   6.538   0.358  13.536  0.1729 -1.7602  1.7986
17039TIP3    H272609   6.411   0.421  13.481  1.7753 -0.6081 -0.7715
17040TIP3   OH272610   0.185   1.327   1.401 -0.4391 -0.3050 -0.4792
17040TIP3    H172611   0.216   1.315   1.311 -0.6273 -1.1900 -0.4286
17040TIP3    H272612   0.122   1.257   1.415  0.0508 -0.5648  0.5523
17041TIP3   OH272613   2.679   6.009  14.011  0.2220 -0.0946 -0.0681
17041TIP3    H172614   2.660   6.076  14.076  1.4942 -0.2279  0.4798
17041TIP3    H272615   2.689   5.928  14.062 -0.9153 -0.6569 -0.6776
17042TIP3   OH272616   5.728   4.760  12.671  0.8304  0.0376 -0.5296
17042TIP3    H172617   5.679   4.766  12.753 -0.8550  2.3631 -1.6157
17042TIP3    H272618   5.694   4.681  12.629  1.0657 -0.6801  0.5688
17043TIP3   OH272619   3.124   0.803   3.692  0.1923 -0.2230  0.1701
17043TIP3    H172620   3.049   0.746   3.678  0.4432 -0.7768  0.9965
17043TIP3    H272621   3.185   0.781   3.621 -0.7028  0.7470 -0.9380
17044TIP3   OH272622   1.591   5.475  13.262 -0.1130 -0.3815  0.1304
17044TIP3    H172623   1.617   5.383  13.272  0.8836 -0.0432  0.8745
17044TIP3    H272624   1.496   5.474  13.270 -0.3209 -1.5790 -1.8627
17045TIP3   OH272625   1.464   0.879  14.042  0.7936  0.3547  0.4228
17045TIP3    H172626   1.536   0.819  14.027  0.5652  0.0592  0.5052
17045TIP3    H272627   1.495   0.937  14.111  1.0385  0.3755  0.2981
17046TIP3   OH272628   1.008   6.738   1.267 -0.2429  0.1851  0.2654
17046TIP3    H172629   1.094   6.773   1.243 -0.4882  1.5935  1.2756
17046TIP3    H272630   1.026   6.652   1.305  0.6953  0.3487  0.2090
17047TIP3   OH272631   1.932   5.597   3.917  0.2461  0.1814 -0.2375
17047TIP3    H172632   1.858   5.536   3.917  1.1723 -1.0116 -1.2658
17047TIP3    H272633   1.894   5.681   3.893 -0.5089 -0.9161 -3.5507
17048TIP3   OH272634   5.589   6.823   5.103  0.8343  0.2380  0.2873
17048TIP3    H172635   5.496   6.847   5.094  0.5803 -0.4516  0.9876
17048TIP3    H272636   5.625   6.835   5.015  0.3625  1.6465  0.2658
17049TIP3   OH272637   2.256   6.161  14.783  0.0346  0.3394  0.2723
17049TIP3    H172638   2.339   6.202  14.760  1.3232 -1.2158  1.8910
17049TIP3    H272639   2.195   6.192  14.716  2.1078  0.8417 -1.4969
17050TIP3   OH272640   2.187   2.751   2.922 -0.2902  0.6221  0.4895
17050TIP3    H172641   2.196   2.808   2.998 -1.5277 -0.0463  1.1734
17050TIP3    H272642   2.274   2.751   2.881 -0.7614  4.7982 -0.8949
17051TIP3   OH272643   0.588   6.302   5.165 -0.1939  0.2154 -0.2922
17051TIP3    H172644   0.574   6.227   5.108  0.1967 -0.8151  0.9136
17051TIP3    H272645   0.518   6.363   5.143  0.8894  0.6027 -2.9944
17052TIP3   OH272646   4.759   2.962   1.793  0.3703  0.0570  0.2445
17052TIP3    H172647   4.704   3.005   1.858  0.5037  0.4853  0.0800
17052TIP3    H272648   4.700   2.906   1.744  0.4428 -1.0180  1.3656
17053TIP3   OH272649   4.748   4.528   4.891  0.3064  0.1466 -0.2084
17053TIP3    H172650   4.756   4.623   4.888 -0.7371  0.3177  1.2574
17053TIP3    H272651   4.785   4.503   4.976  0.2414 -0.7184 -0.4204
17054TIP3   OH272652   2.060   2.149  16.195  0.2605  0.0340  0.5271
17054TIP3    H172653   2.150   2.180  16.185  0.2329  0.5717  1.8245
17054TIP3    H272654   2.043   2.099  16.115  1.0994  1.4041 -0.5543
17055TIP3   OH272655   1.173   4.004   3.929 -0.2533 -0.0943 -0.9206
17055TIP3    H172656   1.113   3.933   3.905  0.8149 -0.9604 -1.1382
17055TIP3    H272657   1.243   3.998   3.863 -0.6495  1.8320 -1.5653
17056TIP3   OH272658   0.733   5.752  14.671  0.0597 -0.1033 -0.0520
17056TIP3    H172659   0.784   5.717  14.598  0.5385  0.7558 -0.1337
17056TIP3    H272660   0.731   5.681  14.735  0.3872 -0.5433 -0.5270
17057TIP3   OH272661   0.465   5.939   5.211  0.5303  0.3243 -0.5681
17057TIP3    H172662   0.468   5.848   5.182  1.6590 -0.3660  1.4996
17057TIP3    H272663   0.507   5.988   5.141 -0.0733 -0.7483 -1.7079
17058TIP3   OH272664   2.610   6.086   2.615  0.2535 -0.4214  0.1964
17058TIP3    H172665   2.527   6.041   2.598  0.0996 -0.8001  1.8416
17058TIP3    H272666   2.639   6.114   2.528 -1.8635  0.2214 -0.3792
17059TIP3   OH272667   1.257   0.428   1.657  0.3024  0.0214  0.0325
17059TIP3    H172668   1.215   0.342   1.654  0.7799 -0.2336  0.6205
17059TIP3    H272669   1.341   0.413   1.700  1.6326  0.2776 -2.3126
17060TIP3   OH272670   4.294   1.528   0.273 -0.4440 -0.1402 -0.1977
17060TIP3    H172671   4.338   1.446   0.294  0.1500  0.3841  0.7197
17060TIP3    H272672   4.230   1.506   0.206 -0.9814 -1.5302  0.7393
17061TIP3   OH272673   4.923   1.816   3.339  0.2753 -0.4424 -0.3624
17061TIP3    H172674   4.938   1.860   3.256  1.3040  0.0751  0.0758
17061TIP3    H272675   4.830   1.828   3.357 -0.2331 -1.6573 -2.0408
17062TIP3   OH272676   2.034   6.433  16.263 -0.2597  0.2494  0.2739
17062TIP3    H172677   2.039   6.507  16.203 -2.9035 -0.3548 -0.8066
17062TIP3    H272678   1.965   6.377  16.227 -0.6321 -1.0901  2.8469
17063TIP3   OH272679   3.491   1.375  12.835  0.1285 -0.0562  0.7349
17063TIP3    H172680   3.490   1.285  12.803 -0.0335 -0.0805  0.8083
17063TIP3    H272681   3.580   1.406  12.816  0.1845 -0.2302  0.7082
17064TIP3   OH272682   0.217   0.910  14.621 -0.1050 -0.3487 -0.1144
17064TIP3    H172683   0.188   0.831  14.667  0.8959 -1.0094 -0.5785
17064TIP3    H272684   0.198   0.892  14.529 -1.7985  0.8315 -0.0314
17065TIP3   OH272685   6.702   1.481  13.883 -0.2474  0.1708 -0.6935
17065TIP3    H172686   6.629   1.445  13.933 -1.8215  0.7136 -2.4741
17065TIP3    H272687   6.757   1.405  13.862 -1.4844 -0.6168 -1.1692
17066TIP3   OH272688   2.713   5.291   6.669  0.1719  0.3678 -0.4012
17066TIP3    H172689   2.766   5.219   6.634  0.6177  1.0363 -1.1345
17066TIP3    H272690   2.667   5.326   6.593  2.5304  3.0154 -0.7810
17067TIP3   OH272691   6.008   5.435   0.733 -1.3047  0.1641 -0.1422
17067TIP3    H172692   6.025   5.371   0.802 -1.4684 -0.1277 -0.3671
17067TIP3    H272693   5.938   5.490   0.767  0.3797  1.7065  1.0117
17068TIP3   OH272694   2.277   5.640  16.140  0.0940  0.2313  0.3034
17068TIP3    H172695   2.240   5.556  16.167  2.2659 -0.3769  1.6331
17068TIP3    H272696   2.275   5.638  16.044 -1.1724 -0.7015  0.3255
17069TIP3   OH272697   5.868   1.528   2.320  0.3862 -0.7980  0.3828
17069TIP3    H172698   5.824   1.443   2.327 -0.4580 -0.3137  1.3063
17069TIP3    H272699   5.845   1.561   2.233  0.2390 -1.2634  0.2445
17070TIP3   OH272700   1.331   6.713  14.574 -0.4488  0.3137 -0.7359
17070TIP3    H172701   1.391   6.782  14.544 -0.1808  1.4771  2.0957
17070TIP3    H272702   1.260   6.760  14.617 -1.1501 -1.1534 -0.2250
17071TIP3   OH272703   5.863   1.460  12.875 -0.1149 -0.7448  0.0030
17071TIP3    H172704   5.905   1.469  12.961  2.2045 -0.5147 -1.0698
17071TIP3    H272705   5.890   1.538  12.827 -0.3203 -1.4747 -1.3446
17072TIP3   OH272706   6.178   0.332   0.449 -0.9364 -0.0171 -0.1145
17072TIP3    H172707   6.183   0.421   0.416  1.1319 -0.8564 -2.3956
17072TIP3    H272708   6.230   0.332   0.529 -0.6812  0.7449 -0.2795
17073TIP3   OH272709   6.006   2.097   3.459  0.0422  0.3548  1.0648
17073TIP3    H172710   6.054   2.050   3.527  1.6011  0.4575  0.1013
17073TIP3    H272711   5.928   2.043   3.443  0.8861 -0.9661  1.2329
17074TIP3   OH272712   5.360   0.902  12.730 -0.0518  0.8907  0.1130
17074TIP3    H172713   5.386   0.990  12.701 -0.2604  1.4557  1.5343
17074TIP3    H272714   5.328   0.915  12.819 -1.9626 -0.3382 -0.3431
17075TIP3   OH272715   4.011   6.292  14.547 -0.1750  0.1575 -0.3088
17075TIP3    H172716   4.035   6.200  14.564  1.6493  0.8844  1.5402
17075TIP3    H272717   4.081   6.325  14.491 -0.6526  0.4973 -0.7038
17076TIP3   OH272718   1.812   3.641   1.077  0.2156 -0.3690 -0.1976
17076TIP3    H172719   1.850   3.727   1.095  0.1389 -0.4926  0.6132
17076TIP3    H272720   1.717   3.657   1.077  0.1711 -0.5944  0.7757
17077TIP3   OH272721   0.936   2.418   3.583  0.1880  0.4144  0.6984
17077TIP3    H172722   1.005   2.470   3.624 -0.7886  0.8151  1.9063
17077TIP3    H272723   0.880   2.484   3.540  0.1833  0.1572  0.3070
17078TIP3   OH272724   4.184   6.354  14.079  0.1487  0.2296  0.1621
17078TIP3    H172725   4.124   6.307  14.021 -0.9716 -0.5619  1.8851
17078TIP3    H272726   4.129   6.419  14.122  0.8990  0.6226  0.5421
17079TIP3   OH272727   3.548   4.040  12.322  0.2046 -0.0378 -0.5489
17079TIP3    H172728   3.481   4.100  12.354  0.5116  0.6599 -1.1853
17079TIP3    H272729   3.606   4.094  12.268  1.5780 -0.5267  0.3875
17080TIP3   OH272730   1.149   0.341  15.763 -0.2812  0.3699 -0.1146
17080TIP3    H172731   1.095   0.410  15.803 -1.0952  0.5747 -1.5107
17080TIP3    H272732   1.204   0.388  15.700  0.3583 -0.0652  0.1056
17081TIP3   OH272733   0.150   6.063   1.336 -0.2090 -0.0260  0.1170
17081TIP3    H172734   0.225   6.059   1.277 -1.1011 -0.0324 -1.0570
17081TIP3    H272735   0.074   6.075   1.278 -1.2051 -0.7697  1.2024
17082TIP3   OH272736   1.199   5.575   5.152 -0.5163  0.6598 -0.0792
17082TIP3    H172737   1.163   5.555   5.238 -1.7149 -1.4660 -0.9939
17082TIP3    H272738   1.155   5.655   5.125 -2.0174 -0.0229  0.2718
17083TIP3   OH272739   1.238   4.907   3.074  0.2355 -0.4667 -0.3042
17083TIP3    H172740   1.205   4.952   3.151  3.7809  0.8884  0.6127
17083TIP3    H272741   1.311   4.961   3.044 -0.9040 -0.9220 -4.6966
17084TIP3   OH272742   1.015   6.851   4.555  0.4892  0.4850  0.6254
17084TIP3    H172743   1.005   6.774   4.611  2.0687 -1.3799 -1.4617
17084TIP3    H272744   1.091   6.897   4.591  1.4536 -0.6607  0.1427
17085TIP3   OH272745   6.665   5.166   2.332  0.4256  0.6435 -0.3152
17085TIP3    H172746   6.697   5.166   2.242  1.9142  0.5425  0.1879
17085TIP3    H272747   6.659   5.074   2.356 -1.7613  0.6026 -0.8932
17086TIP3   OH272748   1.053   2.114  15.899 -0.1689 -0.3058 -0.2818
17086TIP3    H172749   1.104   2.144  15.974  0.2752 -1.3714 -0.1482
17086TIP3    H272750   1.028   2.195  15.854 -1.2929  0.4144  1.5362
17087TIP3   OH272751   2.815   1.731   6.543  0.8025  0.3365 -0.7008
17087TIP3    H172752   2.905   1.700   6.536  0.7786 -0.3851  1.3895
17087TIP3    H272753   2.812   1.811   6.491  2.5075  0.0838 -1.2279
17088TIP3   OH272754   1.078   6.294  16.432 -0.2285  0.4624  0.1100
17088TIP3    H172755   1.010   6.326  16.491 -1.3384 -0.4280 -0.6313
17088TIP3    H272756   1.133   6.237  16.487 -0.3627  0.8127  0.6100
17089TIP3   OH272757   2.872   4.951   0.124 -0.4358  0.6239  0.3704
17089TIP3    H172758   2.929   5.019   0.161 -1.5778  1.3549  0.8598
17089TIP3    H272759   2.808   4.933   0.193 -0.9754  0.0535 -0.2607
17090TIP3   OH272760   3.379   4.781  16.419  0.0339  0.4317  0.8667
17090TIP3    H172761   3.288   4.770  16.445 -0.2027  0.6901  0.1593
17090TIP3    H272762   3.429   4.745  16.492 -0.6556 -1.4606  0.4767
17091TIP3   OH272763   0.054   5.968   5.396  0.2160 -0.4924  0.0853
17091TIP3    H172764   0.123   6.028   5.367  0.2010  1.0499  2.8579
17091TIP3    H272765   0.102   5.892   5.429  0.4630 -0.3496  0.0644
17092TIP3   OH272766   4.344   1.591  16.029 -0.1042  0.5093 -0.5308
17092TIP3    H172767   4.409   1.659  16.042  1.5071 -0.8846 -0.9962
17092TIP3    H272768   4.339   1.579  15.934  0.9306 -1.1681 -0.4213
17093TIP3   OH272769   3.268   1.792  12.654  0.2739  0.1943  0.2487
17093TIP3    H172770   3.189   1.796  12.707  1.2372  1.5952  1.6682
17093TIP3    H272771   3.294   1.699  12.656 -1.0124 -0.1865  0.1911
17094TIP3   OH272772   3.105   1.440   1.778  0.6125 -0.6275  0.0254
17094TIP3    H172773   3.178   1.378   1.769 -0.1433 -1.6755  0.8314
17094TIP3    H272774   3.049   1.422   1.702  0.8732 -0.2348 -0.2683
17095TIP3   OH272775   4.215   5.863  13.052  0.5452  0.2126  0.1176
17095TIP3    H172776   4.137   5.840  13.103 -0.1012  0.5191 -0.6997
17095TIP3    H272777   4.205   5.814  12.970  0.5698  1.1992 -0.4971
17096TIP3   OH272778   4.702   6.153   4.920  0.5463 -0.0261 -0.2259
17096TIP3    H172779   4.735   6.065   4.904  1.3719  0.0756  0.8146
17096TIP3    H272780   4.779   6.209   4.912  0.0578  0.5931 -0.7224
17097TIP3   OH272781   4.109   3.113  15.881 -0.0835 -0.5541  0.7082
17097TIP3    H172782   4.034   3.168  15.903  0.0282 -0.4489  0.8327
17097TIP3    H272783   4.072   3.035  15.840 -0.2025 -0.0553 -0.1448
17098TIP3   OH272784   5.727   3.374   0.130 -0.3875  0.0954 -0.2349
17098TIP3    H172785   5.735   3.469   0.135  0.1479  0.1269 -1.3037
17098TIP3    H272786   5.774   3.342   0.207 -0.3616  0.6890  0.0021
17099TIP3   OH272787   2.253   0.696   0.952  0.3798  0.0480 -0.1835
17099TIP3    H172788   2.225   0.730   1.037  0.7260  1.7573 -0.6984
17099TIP3    H272789   2.312   0.624   0.973 -0.9885 -0.7845  0.9661
17100TIP3   OH272790   5.085   6.219  14.135 -0.2116  0.1830 -0.2339
17100TIP3    H172791   4.995   6.185  14.138  0.7158 -2.7538 -2.0082
17100TIP3    H272792   5.094   6.254  14.047  0.2736  0.9259  0.1036
17101TIP3   OH272793   0.281   1.478   5.858 -0.2969 -0.2909 -0.1326
17101TIP3    H172794   0.364   1.488   5.903 -2.0823  1.1165  3.2299
17101TIP3    H272795   0.261   1.566   5.825 -0.9387 -0.3474  0.0900
17102TIP3   OH272796   2.607   6.460  11.398  0.6847  0.0096  0.1407
17102TIP3    H172797   2.597   6.444  11.304  3.4529 -0.9448 -0.0901
17102TIP3    H272798   2.550   6.395  11.439  1.1678 -1.1114 -0.8971
17103TIP3   OH272799   3.147   5.018   3.110  0.4448 -0.0211  0.3017
17103TIP3    H172800   3.187   4.986   3.030  0.2146  1.8736 -0.6395
17103TIP3    H272801   3.217   5.062   3.158  0.0057  1.4477 -0.3336
17104TIP3   OH272802   1.371   1.521  10.660  0.6504  0.2479  0.5036
17104TIP3    H172803   1.331   1.579  10.725 -0.2196 -0.6841  0.8209
17104TIP3    H272804   1.427   1.579  10.608 -0.3242  1.4025  0.6967
17105TIP3   OH272805   3.961   1.158   3.621 -0.7545  0.0274 -0.1580
17105TIP3    H172806   3.908   1.204   3.686  1.6156  0.3426  1.7279
17105TIP3    H272807   3.929   1.068   3.624 -0.1751 -0.1921  2.2384
17106TIP3   OH272808   4.994   3.657  12.006  0.1957  0.1387 -0.4097
17106TIP3    H172809   5.037   3.737  11.978  0.8688 -0.1942 -0.3449
17106TIP3    H272810   4.922   3.646  11.944  1.1333 -0.1180 -1.4814
17107TIP3   OH272811   3.613   2.850  11.381 -0.0372  0.2670 -0.1382
17107TIP3    H172812   3.629   2.817  11.469  0.9462  0.0906 -0.3675
17107TIP3    H272813   3.700   2.859  11.343 -0.3682  1.6294 -0.6380
17108TIP3   OH272814   2.655   6.797   0.702  0.2109  0.0531 -0.3883
17108TIP3    H172815   2.711   6.810   0.625 -1.8147 -0.8877 -2.1104
17108TIP3    H272816   2.704   6.735   0.756  1.4768  0.3536 -1.1320
17109TIP3   OH272817   6.214   1.769   2.054  0.1367 -0.3700 -0.0390
17109TIP3    H172818   6.121   1.790   2.043  0.4774  1.5109  0.2956
17109TIP3    H272819   6.254   1.795   1.971  0.4460 -0.6675  0.0147
17110TIP3   OH272820   6.026   5.477  14.041 -0.3946 -0.0727 -0.6600
17110TIP3    H172821   5.988   5.515  14.121 -0.5134 -0.5403 -0.4901
17110TIP3    H272822   5.959   5.416  14.010  1.4575 -3.6103  1.5552
17111TIP3   OH272823   3.703   4.953  15.137 -0.0241 -0.3529  0.0871
17111TIP3    H172824   3.695   4.979  15.229  2.4582 -1.1901  0.6071
17111TIP3    H272825   3.696   4.857  15.139  2.3392 -0.5784 -0.2406
17112TIP3   OH272826   1.732   4.999  12.009 -0.0828 -0.2198  0.5276
17112TIP3    H172827   1.825   4.982  11.992 -0.7158 -3.5562 -0.4509
17112TIP3    H272828   1.699   5.030  11.925 -0.0159  0.0858  0.6147
17113TIP3   OH272829   4.132   2.141  15.242 -0.3451 -0.5407 -0.1508
17113TIP3    H172830   4.219   2.104  15.233 -0.7319 -1.7585  0.7811
17113TIP3    H272831   4.114   2.183  15.158  1.1057 -0.3221 -0.3633
17114TIP3   OH272832   6.067   6.720   1.171  0.0820  0.3456 -0.3846
17114TIP3    H172833   6.096   6.629   1.174  1.1512  0.6272 -1.2812
17114TIP3    H272834   5.981   6.720   1.213 -0.5598 -1.3049 -1.6274
17115TIP3   OH272835   1.999   3.046   3.849 -0.5953 -0.4325  0.4527
17115TIP3    H172836   1.932   3.063   3.782 -0.6678 -2.6653 -0.1241
17115TIP3    H272837   2.080   3.080   3.812 -0.9454 -0.0753  0.0069
17116TIP3   OH272838   1.354   6.615  11.116  0.2921  0.0380 -0.1462
17116TIP3    H172839   1.264   6.606  11.148  0.5213 -0.0867  0.4845
17116TIP3    H272840   1.408   6.589  11.191  0.8451 -0.5607 -0.7442
17117TIP3   OH272841   2.622   0.366   0.453  0.1015 -0.3193 -0.7487
17117TIP3    H172842   2.613   0.348   0.359  2.2278 -0.1364 -1.0535
17117TIP3    H272843   2.627   0.462   0.458 -1.7680 -0.2176 -0.2116
17118TIP3   OH272844   3.819   4.443  11.932  0.3317  0.6582 -0.0065
17118TIP3    H172845   3.839   4.450  12.026 -1.0310  0.0173  0.3609
17118TIP3    H272846   3.904   4.429  11.891  1.4548  4.5256  0.6631
17119TIP3   OH272847   3.954   3.558  12.394 -0.1026  0.2573 -0.2429
17119TIP3    H172848   3.942   3.608  12.475 -1.6162 -0.4110 -0.0286
17119TIP3    H272849   3.873   3.508  12.384  0.3898 -0.2983 -1.7460
17120TIP3   OH272850   2.874   3.975   1.982 -0.3286  0.5485  0.1293
17120TIP3    H172851   2.828   3.894   2.005  0.6635  0.3415  1.4924
17120TIP3    H272852   2.805   4.040   1.973 -0.9609  0.1617  1.7540
17121TIP3   OH272853   3.925   4.121  16.317  0.1890  0.0367 -0.0767
17121TIP3    H172854   3.928   4.208  16.276  0.7190  0.2325  0.3660
17121TIP3    H272855   4.000   4.120  16.377 -0.7108 -0.1518  1.0686
17122TIP3   OH272856   3.895   5.236  11.807  0.2538 -0.6546  0.2036
17122TIP3    H172857   3.814   5.188  11.790 -0.8887  0.5927  1.7865
17122TIP3    H272858   3.907   5.291  11.730  0.0897 -1.4758 -0.4235
17123TIP3   OH272859   2.603   1.303  16.530  0.4585 -0.4412 -0.9513
17123TIP3    H172860   2.522   1.353  16.520  1.3236  1.0308 -0.8569
17123TIP3    H272861   2.594   1.231  16.468 -0.9099 -0.3063 -0.9529
17124TIP3   OH272862   0.083   6.860   2.024  0.0077 -0.0573 -0.7595
17124TIP3    H172863   0.161   6.915   2.032 -0.3994  0.2629  2.1685
17124TIP3    H272864   0.010   6.921   2.019 -0.2150 -0.3415 -1.0032
17125TIP3   OH272865   6.199   4.612  11.636  0.7348  0.4560  0.5035
17125TIP3    H172866   6.170   4.703  11.627  1.1860  0.5691  0.1363
17125TIP3    H272867   6.282   4.618  11.684  0.6124  0.2092  0.7534
17126TIP3   OH272868   3.088   5.530   4.988  0.4146  0.2176  0.2227
17126TIP3    H172869   3.070   5.457   5.048  1.0358  0.8583  1.2318
17126TIP3    H272870   3.067   5.608   5.039 -1.4932  0.7664 -1.2669
17127TIP3   OH272871   2.159   5.211   1.285 -0.2384 -0.5453 -0.1736
17127TIP3    H172872   2.235   5.156   1.266  1.5346  0.8958  2.1652
17127TIP3    H272873   2.084   5.151   1.279  1.4214 -2.8658  0.7676
17128TIP3   OH272874   4.130   6.856   3.138 -0.0318 -0.0627  0.2041
17128TIP3    H172875   4.174   6.931   3.179  1.2418 -0.2198 -0.8304
17128TIP3    H272876   4.153   6.782   3.194 -0.1909  0.0997  0.4855
17129TIP3   OH272877   2.261   4.823  11.263  0.1171 -0.1027  0.4774
17129TIP3    H172878   2.233   4.770  11.337 -0.7528  2.3076  1.9753
17129TIP3    H272879   2.197   4.805  11.195 -1.0983  0.2061  1.5169
17130TIP3   OH272880   0.202   2.727  13.751  0.8932 -0.2835 -0.3682
17130TIP3    H172881   0.228   2.779  13.827  0.9425 -3.2126  1.7867
17130TIP3    H272882   0.106   2.735  13.749  0.9654  0.6841 -0.7334
17131TIP3   OH272883   6.053   5.555   2.762 -0.1969 -0.1113 -0.1975
17131TIP3    H172884   6.022   5.584   2.676 -2.2824  0.8776  0.8078
17131TIP3    H272885   6.023   5.623   2.822  0.6764 -1.0859  1.4045
17132TIP3   OH272886   6.216   2.885   0.731 -0.3411  0.3464 -0.1641
17132TIP3    H172887   6.261   2.882   0.816 -0.5626  0.2330 -0.0487
17132TIP3    H272888   6.197   2.978   0.717 -0.3510  0.3594 -0.0641
17133TIP3   OH272889   0.256   2.862   1.932  0.6631  0.5013  0.2773
17133TIP3    H172890   0.178   2.843   1.879  1.0003 -0.1829  0.0073
17133TIP3    H272891   0.221   2.888   2.017  0.1369  0.1623  0.1727
17134TIP3   OH272892   4.209   4.628  12.119  0.0868  0.2483  0.3544
17134TIP3    H172893   4.188   4.551  12.173 -0.5788  0.3743  0.2847
17134TIP3    H272894   4.248   4.591  12.040  2.2051  0.1197  1.4023
17135TIP3   OH272895   0.581   1.057   4.057 -0.0151  0.6977 -0.5622
17135TIP3    H172896   0.629   1.032   4.136  0.5365  1.8045 -0.5268
17135TIP3    H272897   0.490   1.034   4.077  0.1976  0.4423  0.1703
17136TIP3   OH272898   5.967   3.690   0.870  0.1827 -0.6701  0.0346
17136TIP3    H172899   5.887   3.684   0.921 -0.3596 -1.0630 -0.8474
17136TIP3    H272900   5.953   3.764   0.810  0.7460 -0.3187  0.3189
17137TIP3   OH272901   6.577   6.661  13.340 -0.4649 -0.2007 -0.2270
17137TIP3    H172902   6.494   6.664  13.388 -0.2522  0.9928  0.0872
17137TIP3    H272903   6.630   6.597  13.387 -0.0065  1.4160  1.5896
17138TIP3   OH272904   6.102   4.211   6.202 -0.5486  0.3174 -0.3988
17138TIP3    H172905   6.056   4.221   6.286  0.9097  1.9147  0.2809
17138TIP3    H272906   6.191   4.187   6.226 -0.5479 -0.9602 -1.6005
17139TIP3   OH272907   6.592   4.680  12.795  0.2750  0.2160 -0.2502
17139TIP3    H172908   6.618   4.651  12.708 -0.0798  0.4741 -0.4460
17139TIP3    H272909   6.661   4.741  12.822 -0.0871  0.8640 -0.7487
17140TIP3   OH272910   2.921   1.056   3.330  0.4445 -0.0462 -0.6651
17140TIP3    H172911   2.845   1.058   3.272 -1.0151 -0.1413  1.1428
17140TIP3    H272912   2.968   1.138   3.311 -0.6657  0.5093 -1.0998
17141TIP3   OH272913   5.588   4.832  12.066 -0.2973  0.0787 -0.0492
17141TIP3    H172914   5.502   4.826  12.025 -1.6919 -1.0255  2.7349
17141TIP3    H272915   5.648   4.794  12.002 -2.1496 -0.7588 -1.3847
17142TIP3   OH272916   4.449   5.353   2.047 -0.5119 -0.3805  0.2859
17142TIP3    H172917   4.531   5.305   2.061 -0.4026 -0.2988 -0.0516
17142TIP3    H272918   4.404   5.303   1.978  0.2864  0.8181 -1.1494
17143TIP3   OH272919   5.423   1.604  15.655 -0.4061 -0.4861 -0.1266
17143TIP3    H172920   5.445   1.566  15.741  0.7542  2.5453  1.0380
17143TIP3    H272921   5.328   1.614  15.657 -0.3622 -0.1516  0.9469
17144TIP3   OH272922   3.315   4.925  15.788 -0.3972  0.0283 -0.4055
17144TIP3    H172923   3.320   4.829  15.789 -2.3682 -0.1202  0.2906
17144TIP3    H272924   3.363   4.952  15.866  1.2935 -0.2827 -1.2994
17145TIP3   OH272925   6.580   4.708   5.256  0.6056 -0.5299  0.1325
17145TIP3    H172926   6.607   4.796   5.283  0.3580 -0.5620  0.4836
17145TIP3    H272927   6.488   4.717   5.234  0.7295 -0.5731 -0.4046
17146TIP3   OH272928   4.426   1.018   0.379 -0.1832  0.2517  0.3910
17146TIP3    H172929   4.413   1.111   0.398 -1.7429  0.1185  0.0869
17146TIP3    H272930   4.429   0.976   0.464 -2.1642  0.2750  0.5078
17147TIP3   OH272931   6.104   4.831   4.509 -0.4029 -0.1793  0.1343
17147TIP3    H172932   6.075   4.906   4.561 -0.2924 -0.4768  0.6371
17147TIP3    H272933   6.199   4.841   4.503 -0.4095 -0.1752  0.0323
17148TIP3   OH272934   6.327   4.758   5.172 -0.1626 -0.0935  0.0224
17148TIP3    H172935   6.269   4.827   5.206 -0.3622 -0.2342 -0.0290
17148TIP3    H272936   6.285   4.729   5.091 -0.5215 -0.8420  0.4667
17149TIP3   OH272937   0.754   5.001   0.196  0.0165 -0.0160  0.3842
17149TIP3    H172938   0.811   5.057   0.249 -1.1670  0.1824  1.4776
17149TIP3    H272939   0.669   5.003   0.240 -1.0761  0.2850 -1.5837
17150TIP3   OH272940   5.385   5.168   2.610 -0.2684 -0.4714  0.2808
17150TIP3    H172941   5.322   5.148   2.540 -0.1200 -2.9480  0.7399
17150TIP3    H272942   5.468   5.132   2.577  0.3694  0.5832  0.7069
17151TIP3   OH272943   6.283   2.974  12.449 -0.1263 -0.0528  0.3800
17151TIP3    H172944   6.290   3.021  12.365  1.8576 -1.0639 -0.0891
17151TIP3    H272945   6.197   2.999  12.483 -0.8532  0.6580 -1.7815
17152TIP3   OH272946   5.904   0.707  15.930 -0.4515  0.0174  0.2341
17152TIP3    H172947   5.887   0.792  15.971 -0.6302 -0.3376  0.9049
17152TIP3    H272948   5.848   0.707  15.852  0.3806  0.9619 -0.3832
17153TIP3   OH272949   5.902   2.230  11.934  0.0028  0.2350  0.3662
17153TIP3    H172950   5.981   2.220  11.881 -0.8149 -2.0572 -0.5909
17153TIP3    H272951   5.833   2.248  11.871 -0.6175 -0.2534  0.8867
17154TIP3   OH272952   0.262   3.474  11.951 -0.0013  0.1649 -0.4876
17154TIP3    H172953   0.322   3.544  11.975 -0.7706  0.4379  0.7551
17154TIP3    H272954   0.194   3.477  12.018 -2.0734  0.6480 -2.4686
17155TIP3   OH272955   6.207   6.492   1.260 -0.8198 -0.8436 -0.6111
17155TIP3    H172956   6.186   6.411   1.214  0.4769 -1.1791 -0.6327
17155TIP3    H272957   6.197   6.470   1.353 -0.6154 -0.9813 -0.6227
17156TIP3   OH272958   6.194   2.838  16.283 -0.3305 -0.0960  0.0197
17156TIP3    H172959   6.161   2.899  16.218  0.7955  1.9070  1.2161
17156TIP3    H272960   6.286   2.864  16.296  0.1222 -1.9094  0.7452
17157TIP3   OH272961   5.326   4.009  16.790 -0.2212  0.1120  0.1121
17157TIP3    H172962   5.299   3.928  16.748 -0.6942  0.4281 -0.1963
17157TIP3    H272963   5.421   4.013  16.774 -0.0727 -0.7076  0.7120
17158TIP3   OH272964   0.693   6.839  11.648  0.2093  0.0382  0.2538
17158TIP3    H172965   0.772   6.884  11.678  0.0692 -0.0288  0.7463
17158TIP3    H272966   0.721   6.749  11.632 -0.1415 -0.5036  2.3226
17159TIP3   OH272967   5.841   3.057   1.890  0.4743  0.3351 -0.1509
17159TIP3    H172968   5.928   3.021   1.911  0.5038 -0.9664 -2.1497
17159TIP3    H272969   5.780   2.991   1.923  0.4355 -0.5353 -1.8567
17160TIP3   OH272970   1.722   6.801   0.596 -0.2485  0.4345  0.2139
17160TIP3    H172971   1.649   6.781   0.655  0.4648 -2.1098  0.3470
17160TIP3    H272972   1.742   6.893   0.613 -2.1049  0.6368  1.6146
17161TIP3   OH272973   0.668   3.939  12.104  0.0191 -0.4066 -0.2640
17161TIP3    H172974   0.665   3.922  12.198  1.1158 -0.1951 -0.1766
17161TIP3    H272975   0.762   3.945  12.084 -0.1961  2.7030 -0.7758
17162TIP3   OH272976   0.856   4.758   0.089 -0.3559 -0.8993 -0.1372
17162TIP3    H172977   0.824   4.841   0.124 -0.9235 -0.4440 -1.6375
17162TIP3    H272978   0.860   4.699   0.164  0.2498  0.5366  0.9931
17163TIP3   OH272979   4.559   2.817  15.756 -0.1049  0.5478  0.0427
17163TIP3    H172980   4.514   2.898  15.735 -2.5967 -0.6571  0.4552
17163TIP3    H272981   4.565   2.817  15.852 -0.5748  0.0143  0.0739
17164TIP3   OH272982   6.579   0.413  16.287 -0.5737  0.3698 -0.1114
17164TIP3    H172983   6.580   0.438  16.380 -0.5919  1.9726 -0.5280
17164TIP3    H272984   6.487   0.417  16.262 -0.5978 -0.2987 -0.1524
17165TIP3   OH272985   4.836   2.005  15.088  0.1025  0.1476 -0.9619
17165TIP3    H172986   4.764   2.012  15.026 -0.4414  0.6149 -0.2890
17165TIP3    H272987   4.797   2.028  15.173  1.0711  0.5326 -0.6107
17166TIP3   OH272988   2.756   1.263  16.769  0.2491  0.0740 -0.2033
17166TIP3    H172989   2.704   1.282  16.691 -0.5065  1.1976  0.5505
17166TIP3    H272990   2.712   1.189  16.810  0.4675 -0.3166 -0.6542
17167TIP3   OH272991   5.684   1.069  14.731 -0.5894  0.5855 -0.2811
17167TIP3    H172992   5.666   1.082  14.638 -0.1222  1.0577 -0.3058
17167TIP3    H272993   5.635   1.138  14.775 -1.2042  0.0673 -0.1339
17168TIP3   OH272994   4.305   0.217  15.984  0.2302  0.1525  0.4933
17168TIP3    H172995   4.276   0.234  16.073 -0.6546  0.1156  0.2176
17168TIP3    H272996   4.263   0.134  15.960  1.0990 -0.2571  0.3178
17169TIP3   OH272997   6.562   2.370   5.023 -0.4949 -0.3744 -0.8234
17169TIP3    H172998   6.532   2.337   4.939 -3.1526 -0.0145 -0.1006
17169TIP3    H272999   6.492   2.427   5.054 -0.2561 -1.4934  2.2035
17170TIP3   OH273000   3.716   5.011  15.496 -0.2597  0.3291 -0.1547
17170TIP3    H173001   3.621   5.020  15.502 -0.5049 -1.5861 -0.7227
17170TIP3    H273002   3.740   4.959  15.572 -0.2495 -2.7584 -2.1134
17171TIP3   OH273003   6.026   6.519  11.640 -0.0253 -0.2454 -0.0803
17171TIP3    H173004   6.092   6.472  11.690  0.4569  0.0304 -0.4539
17171TIP3    H273005   6.005   6.461  11.567 -0.2696 -0.3745  0.0911
17172TIP3   OH273006   6.779   0.342   2.956  0.1681  0.1093  0.4104
17172TIP3    H173007   6.803   0.387   3.036 -1.5710 -1.6260  1.9964
17172TIP3    H273008   6.861   0.336   2.907  1.3353  0.9577  2.1557
17173TIP3   OH273009   0.437   1.067  16.130  0.1563 -1.0074  0.7438
17173TIP3    H173010   0.398   1.153  16.114  2.3708  0.3070  1.8510
17173TIP3    H273011   0.452   1.065  16.225 -1.2320 -3.2920  0.9813
17174TIP3   OH273012   3.811   4.323   1.786 -0.3835 -0.1942 -0.1705
17174TIP3    H173013   3.842   4.362   1.868  0.6097 -0.5298 -0.3738
17174TIP3    H273014   3.840   4.384   1.718 -1.0890  0.0155 -0.2928
17175TIP3   OH273015   4.504   6.176   4.552 -0.9040  0.1882  0.1222
17175TIP3    H173016   4.559   6.254   4.551 -2.1019  1.1072  1.3846
17175TIP3    H273017   4.561   6.105   4.522  0.9843  1.0492  1.4955
17176TIP3   OH273018   2.969   3.204  10.640  0.1658  0.6514  0.2834
17176TIP3    H173019   3.050   3.245  10.609 -0.5193  0.7190 -1.5277
17176TIP3    H273020   2.911   3.278  10.660  0.0198  0.5888  0.0904
17177TIP3   OH273021   3.319   5.293   2.572  0.1468  0.5692  0.3720
17177TIP3    H173022   3.401   5.262   2.534 -0.3940  0.7275 -1.0134
17177TIP3    H273023   3.338   5.308   2.664  1.0801 -1.5818  0.6011
17178TIP3   OH273024   3.006   3.208  11.292  0.2293  0.3440 -0.0851
17178TIP3    H173025   2.969   3.160  11.218  0.1402  2.1665 -1.2842
17178TIP3    H273026   3.058   3.278  11.252  1.6781  0.2959  1.5858
17179TIP3   OH273027   1.400   6.004  16.285 -0.4633 -0.2760  0.0492
17179TIP3    H173028   1.316   6.005  16.331  0.1640 -0.0997  1.2467
17179TIP3    H273029   1.398   6.082  16.230  0.0832  1.4849  2.3490
17180TIP3   OH273030   5.765   0.091  14.166 -0.0752 -0.3839  0.0150
17180TIP3    H173031   5.815   0.104  14.246 -0.8982 -0.5014  0.5672
17180TIP3    H273032   5.674   0.106  14.192 -0.1096  4.0311 -1.7979
17181TIP3   OH273033   6.886   5.095  13.817 -0.2642 -0.0230  0.0238
17181TIP3    H173034   6.829   5.081  13.741  0.2185 -0.5597 -0.2461
17181TIP3    H273035   6.966   5.048  13.796 -0.1012 -0.1267  0.8448
17182TIP3   OH273036   3.752   0.259  12.910  0.0962 -0.4160 -0.2690
17182TIP3    H173037   3.836   0.214  12.915  1.0438  1.2525 -0.4863
17182TIP3    H273038   3.771   0.340  12.862 -0.6845  2.0542  3.2567
17183TIP3   OH273039   4.476   5.106  11.735  0.1443 -0.1735 -0.4346
17183TIP3    H173040   4.475   5.016  11.702 -0.9411 -0.8560  1.3195
17183TIP3    H273041   4.489   5.160  11.657  2.5399 -1.8955 -1.3428
17184TIP3   OH273042   3.252   3.502   1.906 -0.4322 -0.1584  0.6211
17184TIP3    H173043   3.158   3.510   1.889 -0.4141 -1.0667  0.0224
17184TIP3    H273044   3.281   3.430   1.849  0.8169  0.7435  0.0545
17185TIP3   OH273045   2.607   3.048   0.731 -0.5861 -0.0486  0.0860
17185TIP3    H173046   2.665   2.981   0.693 -2.1445 -0.3627 -1.9678
17185TIP3    H273047   2.666   3.119   0.757  0.8178 -0.7801 -0.9301
17186TIP3   OH273048   5.950   0.008  15.214  0.3328  0.7124 -0.2678
17186TIP3    H173049   5.891  -0.066  15.220  1.0900  0.0376 -0.8773
17186TIP3    H273050   5.980   0.023  15.304 -0.2482  0.6365 -0.0621
17187TIP3   OH273051   4.174   6.198   0.896 -0.5552  0.2847  0.9464
17187TIP3    H173052   4.247   6.257   0.915  0.3055 -0.5830  0.4366
17187TIP3    H273053   4.097   6.255   0.894 -0.2099  0.9806  3.3116
17188TIP3   OH273054   1.044   5.441  12.265 -0.0457 -0.6658 -0.1928
17188TIP3    H173055   1.092   5.407  12.189 -0.1123  2.6560 -1.9004
17188TIP3    H273056   0.960   5.394  12.263  0.9617 -2.5851 -0.4410
17189TIP3   OH273057   4.137   3.941   3.480  0.6477  0.3897 -0.6516
17189TIP3    H173058   4.063   3.937   3.419  0.4857  0.8312 -0.4865
17189TIP3    H273059   4.205   3.988   3.432  0.5728  0.6043 -0.5500
17190TIP3   OH273060   6.744   5.815   3.725 -0.0286  1.1069 -0.0907
17190TIP3    H173061   6.816   5.862   3.768  0.4317  0.0640  0.3255
17190TIP3    H273062   6.743   5.848   3.635 -0.0868  2.2989  0.3279
17191TIP3   OH273063   4.048   6.841  13.805 -0.3341  0.2959 -0.3422
17191TIP3    H173064   4.065   6.807  13.718  1.4804  1.6225 -0.5495
17191TIP3    H273065   4.112   6.797  13.861  0.2331  1.3295 -0.1509
17192TIP3   OH273066   1.420   1.171   6.212  0.2293 -0.3300 -0.1062
17192TIP3    H173067   1.410   1.234   6.141 -0.8096 -0.0765  0.2351
17192TIP3    H273068   1.509   1.182   6.243  1.9849 -2.8299 -3.5698
17193TIP3   OH273069   6.589   5.691   4.348 -0.0035 -0.1640 -0.0755
17193TIP3    H173070   6.639   5.730   4.277 -0.8765 -0.0083 -0.6238
17193TIP3    H273071   6.654   5.666   4.413  1.0310 -2.0845 -1.7455
17194TIP3   OH273072   3.405   3.612  11.794 -0.7632  0.2456  0.2211
17194TIP3    H173073   3.419   3.707  11.796 -0.2368  0.1593  1.6681
17194TIP3    H273074   3.474   3.579  11.737 -2.5587  0.9283 -2.5634
17195TIP3   OH273075   0.434   2.334   5.304  0.2694 -0.4375 -0.4038
17195TIP3    H173076   0.514   2.379   5.332 -0.0806  0.7635 -1.2636
17195TIP3    H273077   0.378   2.404   5.269 -1.4413 -1.1392  0.7896
17196TIP3   OH273078   2.525   2.559   5.149 -0.2313 -0.1463 -0.0528
17196TIP3    H173079   2.530   2.465   5.133  1.1844  0.3086 -3.0140
17196TIP3    H273080   2.613   2.592   5.131 -1.1192  1.9375 -0.9407
17197TIP3   OH273081   3.431   5.568  12.822  0.4156 -0.2960 -0.4966
17197TIP3    H173082   3.373   5.561  12.897  2.0963 -1.5199  0.7552
17197TIP3    H273083   3.457   5.660  12.820  0.2209 -0.2156  0.3170
17198TIP3   OH273084   1.142   1.024   0.028 -0.0787 -0.3181 -0.2850
17198TIP3    H173085   1.092   0.946   0.003  2.4933 -2.6338  1.2186
17198TIP3    H273086   1.095   1.059   0.104 -0.7830 -0.9270 -0.4318
17199TIP3   OH273087   6.838   4.278  15.894 -0.6615  0.3853  0.1018
17199TIP3    H173088   6.760   4.317  15.934  0.1270  1.6755  0.4172
17199TIP3    H273089   6.909   4.339  15.913  0.6219 -1.1349  0.5104
17200TIP3   OH273090   5.027   5.501   4.302 -0.0606  0.1622 -0.0445
17200TIP3    H173091   5.064   5.562   4.238  0.7900 -0.3220 -0.0235
17200TIP3    H273092   4.970   5.444   4.250 -3.5021  2.8786  0.3309
17201TIP3   OH273093   1.593   0.982   0.440 -0.2028  1.3526 -0.6797
17201TIP3    H173094   1.646   1.021   0.509 -0.3186 -0.1955  0.3222
17201TIP3    H273095   1.511   1.032   0.442 -0.6717  0.6044  1.1359
17202TIP3   OH273096   0.350   3.148  12.458  0.3534  0.6311 -0.2398
17202TIP3    H173097   0.288   3.113  12.521  0.5161  3.1174  1.4359
17202TIP3    H273098   0.427   3.092  12.467 -0.6569 -0.8380 -0.4141
17203TIP3   OH273099   1.238   0.933   4.812 -0.3666  0.1451  0.1872
17203TIP3    H173100   1.324   0.890   4.810 -1.1096 -1.4285 -2.3060
17203TIP3    H273101   1.196   0.899   4.891  0.4184 -0.9482  0.1543
17204TIP3   OH273102   1.533   1.705   2.248 -0.0821 -0.0328 -0.4248
17204TIP3    H173103   1.471   1.768   2.212 -0.3521  0.1571  0.3564
17204TIP3    H273104   1.479   1.631   2.276  0.2513 -0.7248 -1.5165
17205TIP3   OH273105   0.503   4.103  11.259 -0.0090 -0.2876  0.7597
17205TIP3    H173106   0.422   4.140  11.223  1.7044  2.5640 -0.4944
17205TIP3    H273107   0.538   4.048  11.188  0.3503  0.4802  0.3277
17206TIP3   OH273108   1.243   0.212   3.617 -0.2677 -0.1767 -0.3689
17206TIP3    H173109   1.332   0.245   3.627 -0.4597 -0.2233  2.4488
17206TIP3    H273110   1.187   0.290   3.615 -0.3369 -0.1523  1.0730
17207TIP3   OH273111   3.630   4.548   0.054 -0.2562 -0.2903 -0.2124
17207TIP3    H173112   3.681   4.591   0.123  0.1072 -2.4362  0.9348
17207TIP3    H273113   3.696   4.505  -0.001 -0.6872 -0.8600 -0.2920
17208TIP3   OH273114   3.578   0.569   0.002 -0.3110 -0.2470  0.1794
17208TIP3    H173115   3.483   0.571  -0.011 -0.0794  1.1382 -1.6879
17208TIP3    H273116   3.609   0.498  -0.055 -0.0675  0.6018 -0.7784
17209TIP3   OH273117   0.178   2.517   1.272 -0.3396  0.7549  0.1258
17209TIP3    H173118   0.127   2.437   1.265  1.3772 -0.3363 -0.3530
17209TIP3    H273119   0.160   2.550   1.360  0.8529 -1.5303  1.3014
17210TIP3   OH273120   1.504   2.109   2.825 -0.5411  0.2616  0.1489
17210TIP3    H173121   1.597   2.130   2.832 -0.7078  1.1893 -0.2939
17210TIP3    H273122   1.466   2.136   2.908 -0.6202  1.0067 -0.1271
17211TIP3   OH273123   2.345   1.000   2.195  0.4636  0.0583 -0.3953
17211TIP3    H173124   2.316   1.066   2.258 -1.8709 -2.1720  1.0574
17211TIP3    H273125   2.322   1.036   2.109  0.2533  1.5733  0.2715
17212TIP3   OH273126   3.243   2.380   4.701  0.1814 -0.7850 -0.2176
17212TIP3    H173127   3.161   2.402   4.746  0.0332 -2.1800  0.2510
17212TIP3    H273128   3.303   2.449   4.728 -1.0616  0.8195 -1.3355
17213TIP3   OH273129   1.928   4.805   1.647  0.1556 -0.2708 -0.1639
17213TIP3    H173130   1.871   4.764   1.581  0.7300 -1.8866  0.2939
17213TIP3    H273131   2.015   4.767   1.630  1.2616  2.4491 -1.1110
17214TIP3   OH273132   0.007   6.500   4.915  0.2182 -0.4300 -0.3379
17214TIP3    H173133  -0.008   6.433   4.848  0.5117 -0.8022 -0.0407
17214TIP3    H273134   0.016   6.451   4.996  0.0333  0.0066 -0.0496
17215TIP3   OH273135   5.374   3.105   3.835 -0.0038  0.1333 -0.0469
17215TIP3    H173136   5.341   3.194   3.848 -1.6578 -0.8675  4.0840
17215TIP3    H273137   5.304   3.060   3.788  1.1376  1.0015 -2.8217
17216TIP3   OH273138   0.783   5.268   5.570 -0.4125  0.6422 -0.4122
17216TIP3    H173139   0.708   5.221   5.606 -0.1721 -0.5878 -1.4457
17216TIP3    H273140   0.826   5.306   5.646 -1.7103  0.8350  0.2602
17217TIP3   OH273141   0.228   2.976  13.125  0.2772  0.0470 -0.4075
17217TIP3    H173142   0.150   2.984  13.070  0.1038  0.7870 -0.0628
17217TIP3    H273143   0.297   3.020  13.076 -0.0830  1.4946  0.3477
17218TIP3   OH273144   4.487   5.728  15.841 -0.0386 -0.2569  0.1171
17218TIP3    H173145   4.566   5.775  15.867  0.0704  0.6995 -1.7658
17218TIP3    H273146   4.518   5.645  15.806 -0.0682 -0.8478  1.4411
17219TIP3   OH273147   5.503   6.130  12.148 -0.8552 -0.1735 -0.0279
17219TIP3    H173148   5.570   6.165  12.206  0.6636 -0.9450 -1.2690
17219TIP3    H273149   5.550   6.074  12.087 -2.5802 -0.4393 -1.1837
17220TIP3   OH273150   2.228   5.884   2.869  0.2736 -0.1556 -0.1033
17220TIP3    H173151   2.199   5.958   2.815 -1.2107 -0.7128 -0.1175
17220TIP3    H273152   2.311   5.913   2.907  0.3661  1.0014 -1.1356
17221TIP3   OH273153   0.729   3.481   2.974  0.0842  0.3441 -0.4642
17221TIP3    H173154   0.807   3.512   3.019 -1.1791  1.1968  1.2721
17221TIP3    H273155   0.762   3.435   2.896  2.2295  1.9139 -0.5703
17222TIP3   OH273156   3.335   5.725   3.193  0.5202  0.0846  0.1681
17222TIP3    H173157   3.251   5.743   3.235  0.3587 -2.1702  0.9448
17222TIP3    H273158   3.401   5.752   3.257  0.3798  0.6962  0.0631
17223TIP3   OH273159   4.277   3.578   0.381 -0.4933  0.3502  0.5888
17223TIP3    H173160   4.274   3.483   0.370  0.5318  0.2735  0.8428
17223TIP3    H273161   4.251   3.593   0.472 -0.5068  0.2985  0.5936
17224TIP3   OH273162   2.351   6.774  15.925  0.3102 -0.1849  0.5737
17224TIP3    H173163   2.317   6.770  15.836 -1.5878  0.1609  1.2407
17224TIP3    H273164   2.342   6.866  15.950 -2.3658 -0.8208  2.2484
17225TIP3   OH273165   2.177   0.498  15.512  0.0790 -0.1800  0.2690
17225TIP3    H173166   2.152   0.406  15.523 -0.7340  0.0975  0.8378
17225TIP3    H273167   2.155   0.519  15.421 -0.9221 -0.1979  0.5031
17226TIP3   OH273168   2.254   3.284  11.751 -0.0524  0.3839 -0.0375
17226TIP3    H173169   2.189   3.220  11.781  0.6173 -0.2982  0.0016
17226TIP3    H273170   2.338   3.238  11.758  0.1154 -0.5028 -4.4530
17227TIP3   OH273171   2.920   6.248  16.886 -0.5973 -0.2602 -0.6308
17227TIP3    H173172   2.936   6.286  16.973 -0.0045 -1.7957 -0.0221
17227TIP3    H273173   2.954   6.312  16.824 -0.2439  0.4837  0.3120
17228TIP3   OH273174   0.524   5.735  15.712 -0.1026  0.1028  0.6783
17228TIP3    H173175   0.616   5.724  15.686 -0.8931 -0.6867 -2.0852
17228TIP3    H273176   0.505   5.827  15.692  0.1619  0.3701  1.6112
17229TIP3   OH273177   0.240   1.578  16.625  0.1069  0.1106  0.3618
17229TIP3    H173178   0.280   1.515  16.566  0.3897  1.0307 -0.4528
17229TIP3    H273179   0.151   1.588  16.592 -0.1674 -0.3802  0.9245
17230TIP3   OH273180   1.783   2.932   5.938 -0.1379  0.2338  0.4561
17230TIP3    H173181   1.732   2.978   6.005 -0.5686  0.6138 -0.1302
17230TIP3    H273182   1.735   2.852   5.921  0.5145 -0.3690  1.3402
17231TIP3   OH273183   1.672   4.751   0.916 -0.3157 -0.4866 -0.6707
17231TIP3    H173184   1.624   4.834   0.916 -0.7999 -0.6775  2.0225
17231TIP3    H273185   1.608   4.686   0.945  0.6787 -1.3659 -0.3792
17232TIP3   OH273186   6.079   4.330   0.794  0.1637 -0.5383  0.1472
17232TIP3    H173187   6.159   4.318   0.845  0.4023  0.8512  0.1536
17232TIP3    H273188   6.041   4.410   0.829  0.4495  0.6058 -1.9507
17233TIP3   OH273189   0.318   4.351   4.432 -0.1395  0.0993 -0.2704
17233TIP3    H173190   0.368   4.271   4.450 -1.2007 -0.3046  1.1141
17233TIP3    H273191   0.257   4.326   4.362  2.0393  0.8250 -2.5578
17234TIP3   OH273192   5.482   1.843   2.772 -0.2803 -0.1813  0.0193
17234TIP3    H173193   5.477   1.827   2.867  0.2704 -1.5465 -0.1575
17234TIP3    H273194   5.411   1.789   2.736  0.3515 -0.7212 -0.4423
17235TIP3   OH273195   6.030   3.144   4.741  0.7459  0.0106  0.6850
17235TIP3    H173196   5.982   3.071   4.702  0.2951  0.5301  0.2547
17235TIP3    H273197   5.991   3.157   4.827 -0.7383  1.2101 -0.1235
17236TIP3   OH273198   3.459   4.492  12.813  0.1120 -0.4815 -0.3240
17236TIP3    H173199   3.487   4.557  12.877 -2.3193 -1.9962  2.4842
17236TIP3    H273200   3.401   4.541  12.754  2.5243  0.9640 -1.7176
17237TIP3   OH273201   4.234   4.744   3.966  0.2569  0.5442  0.3223
17237TIP3    H173202   4.286   4.736   4.047  0.7116 -0.1068 -0.0156
17237TIP3    H273203   4.260   4.667   3.915 -1.8914 -0.4202  0.6081
17238TIP3   OH273204   4.198   2.915   4.359 -0.4617 -0.9872  0.0353
17238TIP3    H173205   4.202   2.841   4.298  0.7773 -1.4362  0.6321
17238TIP3    H273206   4.202   2.993   4.303  1.0679 -1.3984 -0.4574
17239TIP3   OH273207   6.779   3.083  15.183 -0.1074  0.4181 -0.1667
17239TIP3    H173208   6.835   3.054  15.111 -1.4845  0.6069 -1.3642
17239TIP3    H273209   6.783   3.012  15.247 -0.1951 -0.5608 -1.2149
17240TIP3   OH273210   1.542   2.322  12.293  0.3112  0.3425 -0.1368
17240TIP3    H173211   1.622   2.292  12.250 -0.3441  0.4480 -1.4813
17240TIP3    H273212   1.545   2.282  12.380  1.3238 -0.4709 -0.5207
17241TIP3   OH273213   4.142   3.415  16.516 -0.3566  0.4819 -0.1395
17241TIP3    H173214   4.165   3.477  16.585 -0.8757  1.7383 -1.0568
17241TIP3    H273215   4.224   3.372  16.493  0.1999  1.5111 -0.1264
17242TIP3   OH273216   4.157   3.447   4.290  0.2129  0.6711 -0.1186
17242TIP3    H173217   4.088   3.513   4.295  1.4586  1.9859  0.7916
17242TIP3    H273218   4.191   3.441   4.380  0.9594 -0.3084 -0.4443
17243TIP3   OH273219   3.718   5.769   2.507 -0.0736  0.7038 -0.2123
17243TIP3    H173220   3.678   5.856   2.509  0.5980  1.0550  2.5704
17243TIP3    H273221   3.737   5.750   2.599 -0.3276 -2.4824 -0.7356
17244TIP3   OH273222   2.778   6.844   1.544 -0.4452  0.4424  0.2770
17244TIP3    H173223   2.724   6.782   1.593 -1.6547  2.2883  1.4056
17244TIP3    H273224   2.791   6.802   1.459  0.3704 -2.1375  1.5865
17245TIP3   OH273225   4.875   0.572  16.227  0.3365  0.1700 -0.2324
17245TIP3    H173226   4.964   0.552  16.200  0.0385 -2.0536  0.2323
17245TIP3    H273227   4.840   0.488  16.259 -1.9311  0.9582 -0.4609
17246TIP3   OH273228   1.820   0.299  16.398  0.3103  0.5817  0.0014
17246TIP3    H173229   1.741   0.275  16.446  0.1826  4.1425  1.9346
17246TIP3    H273230   1.892   0.261  16.449 -0.0242  0.6717  0.5519
17247TIP3   OH273231   3.468   3.484  16.831 -0.0533 -0.3142  0.3618
17247TIP3    H173232   3.432   3.396  16.823  1.4277 -0.8423 -0.9421
17247TIP3    H273233   3.551   3.472  16.878  1.4760 -0.0732 -2.0643
17248TIP3   OH273234   2.343   3.402  16.201 -0.1101 -0.4550 -0.0509
17248TIP3    H173235   2.306   3.394  16.289 -0.4788  1.2885 -0.0159
17248TIP3    H273236   2.352   3.496  16.187  3.3062 -0.6898 -0.4942
17249TIP3   OH273237   5.409   5.274   3.868 -0.0776  0.1932  0.0303
17249TIP3    H173238   5.432   5.340   3.803  0.2827  0.4483  0.4111
17249TIP3    H273239   5.321   5.245   3.843  0.2261 -0.0258 -0.8167
17250TIP3   OH273240   3.942   5.395  11.599 -0.2890  0.1450 -0.5318
17250TIP3    H173241   3.982   5.481  11.586  0.9353 -0.6517 -2.3424
17250TIP3    H273242   4.011   5.332  11.577 -1.2345 -1.3164  0.5018
17251TIP3   OH273243   1.363   6.014   3.535  0.0679 -0.0164  0.0993
17251TIP3    H173244   1.393   6.053   3.452  0.4047  0.9980  0.6838
17251TIP3    H273245   1.363   5.920   3.518  0.1866  0.1684 -1.0369
17252TIP3   OH273246   5.656   4.740   3.687  0.3138 -0.1861  0.3007
17252TIP3    H173247   5.664   4.679   3.614  0.6673 -0.5934  0.6730
17252TIP3    H273248   5.590   4.803   3.659 -0.4136 -1.0188  0.1028
17253TIP3   OH273249   2.240   4.400   0.986 -0.0355  0.2547 -0.3383
17253TIP3    H173250   2.296   4.391   0.909 -0.5541  0.5906 -0.7586
17253TIP3    H273251   2.151   4.401   0.951 -0.3723 -1.1871  0.3831
17254TIP3   OH273252   4.538   6.547  12.049 -0.0940  0.3590  0.3231
17254TIP3    H173253   4.571   6.534  12.137  1.3669  2.4942  0.1757
17254TIP3    H273254   4.443   6.556  12.059 -0.6564 -4.1118  0.9873
17255TIP3   OH273255   5.295   4.115   0.687  0.2345  0.2996  0.1886
17255TIP3    H173256   5.259   4.090   0.773  0.4865 -1.2029 -0.1080
17255TIP3    H273257   5.389   4.101   0.697  0.2433 -0.0634 -0.3791
17256TIP3   OH273258   4.930   0.931  13.351 -0.2481 -0.0682  0.0416
17256TIP3    H173259   4.910   0.999  13.415 -1.3840  0.3738 -0.7664
17256TIP3    H273260   4.952   0.854  13.404 -1.7114  0.1262  0.9844
17257TIP3   OH273261   6.267   4.306   5.009 -0.2968  0.5157  0.3615
17257TIP3    H173262   6.304   4.250   4.941  0.3104  1.6113 -0.2246
17257TIP3    H273263   6.176   4.320   4.983 -1.4548 -2.6603  2.1022
17258TIP3   OH273264   2.081   0.812   4.832 -0.3412 -0.0363  0.2288
17258TIP3    H173265   2.098   0.760   4.754 -1.0343  0.1415 -0.0531
17258TIP3    H273266   1.991   0.842   4.821 -0.4048  0.0941  1.0388
17259TIP3   OH273267   2.174   2.528  16.275  0.5327  0.4835 -0.2097
17259TIP3    H173268   2.124   2.607  16.296 -0.1338  0.0837 -0.2276
17259TIP3    H273269   2.178   2.481  16.358 -1.5901 -0.8198 -0.7513
17260TIP3   OH273270   2.315   2.173  16.585  1.0714  0.0951  0.3425
17260TIP3    H173271   2.398   2.149  16.542  0.6739 -0.8043  0.0538
17260TIP3    H273272   2.250   2.167  16.515  0.8023  1.0878  0.5049
17261TIP3   OH273273   4.051   2.728  13.263 -0.2027 -0.3424 -0.1134
17261TIP3    H173274   4.004   2.648  13.286  0.1892 -1.0700 -1.7225
17261TIP3    H273275   4.094   2.708  13.180  1.6139  0.8501  0.4730
17262TIP3   OH273276   4.752   1.225   6.001  0.2744 -0.4413 -0.5710
17262TIP3    H173277   4.832   1.274   6.024 -0.6193  0.1419  1.5138
17262TIP3    H273278   4.704   1.284   5.942  0.6054 -0.0948 -0.4980
17263TIP3   OH273279   6.691   0.397   3.572  0.0755 -0.6729  0.0384
17263TIP3    H173280   6.690   0.493   3.575 -2.3068 -0.6699  1.1349
17263TIP3    H273281   6.751   0.371   3.641  1.5391 -0.0105 -0.9326
17264TIP3   OH273282   2.452   4.387  15.986  0.1366 -0.2386 -0.0218
17264TIP3    H173283   2.506   4.313  15.959  0.1360 -0.4482  0.5524
17264TIP3    H273284   2.498   4.427  16.059  0.4654  0.7326 -0.7299
17265TIP3   OH273285   2.154   5.627   4.340 -0.1766  0.5662  0.0207
17265TIP3    H173286   2.064   5.639   4.371  0.1258 -0.9440  1.6523
17265TIP3    H273287   2.208   5.645   4.417  0.7353 -1.4191 -0.0840
17266TIP3   OH273288   1.942   5.958  10.998 -0.1150  0.1028  0.1896
17266TIP3    H173289   2.017   5.998  11.043  1.2723 -0.3648 -1.5895
17266TIP3    H273290   1.972   5.871  10.973 -1.9213 -0.8060  1.0060
17267TIP3   OH273291   6.487   5.642   4.055  0.6028 -0.1716  0.1597
17267TIP3    H173292   6.488   5.701   3.980 -0.7338  0.2762  0.4660
17267TIP3    H273293   6.537   5.566   4.026 -1.7271 -1.0228 -2.0488
17268TIP3   OH273294   3.496   1.763  12.011  0.1991 -0.3359 -0.0464
17268TIP3    H173295   3.449   1.830  11.962  0.1228  0.0686  0.5664
17268TIP3    H273296   3.556   1.812  12.068  0.6541 -0.8138 -0.1074
17269TIP3   OH273297   6.670   6.783  11.796  0.0207 -0.7446 -0.2657
17269TIP3    H173298   6.703   6.792  11.885 -0.8068 -1.8257  0.1694
17269TIP3    H273299   6.659   6.873  11.765 -0.4911 -0.3463  1.0252
17270TIP3   OH273300   6.594   0.122   4.867 -0.3268  0.0124 -0.7488
17270TIP3    H173301   6.629   0.038   4.838  0.0256  0.5500 -1.9380
17270TIP3    H273302   6.540   0.101   4.943 -0.4389 -1.3215 -1.1786
17271TIP3   OH273303   1.425   4.101   1.769  0.4142 -0.5482  0.2598
17271TIP3    H173304   1.492   4.052   1.721 -0.9701 -1.3568 -0.9333
17271TIP3    H273305   1.376   4.034   1.816  0.3265  0.0162  0.9805
17272TIP3   OH273306   0.461   4.465   5.124  0.3386  0.3376 -0.0737
17272TIP3    H173307   0.430   4.485   5.213 -1.1076 -0.1677 -0.4539
17272TIP3    H273308   0.474   4.551   5.083  0.9679  0.5741  0.5830
17273TIP3   OH273309   4.823   4.971  12.763 -0.1443  0.1290 -0.6339
17273TIP3    H173310   4.756   4.907  12.786  0.7436 -0.4926  0.3533
17273TIP3    H273311   4.776   5.054  12.755 -1.0901 -0.3754 -0.4334
17274TIP3   OH273312   3.207   4.385   3.527  0.0576 -0.3041 -0.1889
17274TIP3    H173313   3.225   4.466   3.576  1.3754  0.0848 -1.2612
17274TIP3    H273314   3.127   4.351   3.566 -1.1427  2.0780 -0.3803
17275TIP3   OH273315   0.773   0.888   3.014 -0.0354  0.0140 -0.0047
17275TIP3    H173316   0.678   0.895   3.025 -0.2133  0.3309 -1.5660
17275TIP3    H273317   0.806   0.975   3.037 -0.3123  0.4180 -1.0736
17276TIP3   OH273318   4.185   4.483  11.867  0.3600  0.0331  0.1781
17276TIP3    H173319   4.269   4.498  11.824 -0.5338  1.6399 -1.1719
17276TIP3    H273320   4.139   4.421  11.810 -0.0705  0.6599 -0.1879
17277TIP3   OH273321   3.098   6.183   5.609  0.2739 -0.3639  0.0375
17277TIP3    H173322   3.166   6.239   5.571  0.9150 -0.9762  0.2611
17277TIP3    H273323   3.140   6.145   5.686 -0.8248  0.4390  1.0635
17278TIP3   OH273324   3.560   1.431  11.244 -0.2763 -0.2913 -0.6263
17278TIP3    H173325   3.653   1.433  11.264 -0.6620 -2.0552  1.6760
17278TIP3    H273326   3.552   1.370  11.171  0.1838 -2.2144  0.8482
17279TIP3   OH273327   5.200   6.143  11.599  0.2439 -0.1570 -0.3873
17279TIP3    H173328   5.231   6.221  11.646 -0.6778  0.9786 -1.6107
17279TIP3    H273329   5.234   6.153  11.511 -0.8634 -0.5454 -0.8773
17280TIP3   OH273330   1.217   4.137  16.025  0.2302 -0.8624  0.2310
17280TIP3    H173331   1.211   4.169  16.115  1.1762 -1.3871  0.4850
17280TIP3    H273332   1.162   4.059  16.024 -0.7645 -0.1848  0.0256
17281TIP3   OH273333   4.155   5.273  14.031 -0.3334  0.0597  0.4782
17281TIP3    H173334   4.157   5.178  14.016 -0.0237  0.1061  0.2262
17281TIP3    H273335   4.066   5.291  14.059 -0.5215 -0.2365  0.0696
17282TIP3   OH273336   5.742   1.698  15.055 -0.2431  0.0505  0.0795
17282TIP3    H173337   5.759   1.779  15.008  0.3879 -0.8694 -1.3307
17282TIP3    H273338   5.780   1.712  15.142 -1.0865  1.6323  0.2294
17283TIP3   OH273339   1.320   0.679   0.985  0.0566 -0.1265 -0.1908
17283TIP3    H173340   1.373   0.753   0.954 -1.0056  0.9126  0.4041
17283TIP3    H273341   1.313   0.622   0.908  1.6741 -0.1073 -0.3987
17284TIP3   OH273342   5.751   4.789   6.197 -0.1875  0.5354 -0.5638
17284TIP3    H173343   5.799   4.869   6.173 -0.2170  1.5357  2.2892
17284TIP3    H273344   5.663   4.803   6.162  0.5455  0.3244 -2.6841
17285TIP3   OH273345   0.422   3.134   3.280 -0.2136  0.3628 -0.0730
17285TIP3    H173346   0.327   3.144   3.272 -0.1580  0.6308 -0.4279
17285TIP3    H273347   0.451   3.111   3.192 -0.0114 -0.2458  0.1505
17286TIP3   OH273348   4.627   5.598  16.407 -0.4940  0.2131  0.0286
17286TIP3    H173349   4.635   5.673  16.466 -2.3017 -1.4272  2.5502
17286TIP3    H273350   4.710   5.552  16.416 -0.3908  0.4882  0.5582
17287TIP3   OH273351   5.436   4.260   2.316  0.3136  0.9366  0.2095
17287TIP3    H173352   5.474   4.184   2.271  1.9384  0.8988  1.5640
17287TIP3    H273353   5.451   4.333   2.256  0.2175  0.4778 -0.3854
17288TIP3   OH273354   0.394   4.918  10.923 -0.5091  0.1306 -0.0108
17288TIP3    H173355   0.306   4.890  10.899  0.0095 -1.7375  0.0897
17288TIP3    H273356   0.405   4.889  11.013 -0.1644  1.3279  0.3442
17289TIP3   OH273357   5.302   0.435  10.843  0.4150  0.3024  0.0547
17289TIP3    H173358   5.347   0.496  10.902  1.0363 -0.5916  0.5336
17289TIP3    H273359   5.218   0.418  10.887  1.5091 -1.5909  1.5638
17290TIP3   OH273360   3.614   1.157   2.066  0.4421  0.6193  0.4229
17290TIP3    H173361   3.686   1.099   2.092  1.3076  1.2230 -0.5445
17290TIP3    H273362   3.555   1.157   2.141  1.2431 -0.2252  1.0752
17291TIP3   OH273363   5.627   2.047   3.316  0.2651 -0.4735  0.0174
17291TIP3    H173364   5.556   1.984   3.303  0.5871 -0.3717 -2.9347
17291TIP3    H273365   5.596   2.127   3.272  1.7800 -0.1039 -0.4390
17292TIP3   OH273366   6.683   2.137   1.527  0.3492  0.0569  0.4632
17292TIP3    H173367   6.625   2.212   1.534 -1.1385 -1.0685  0.5976
17292TIP3    H273368   6.724   2.131   1.613  0.0987  0.4180  0.6107
17293TIP3   OH273369   3.471   3.904  14.460  0.9735  0.2177 -0.6108
17293TIP3    H173370   3.461   3.848  14.383  0.3420  0.2100 -0.5286
17293TIP3    H273371   3.561   3.934  14.456  1.7023 -1.7042 -0.0546
17294TIP3   OH273372   6.612   1.480  15.997 -0.3974  0.5661 -0.4536
17294TIP3    H173373   6.525   1.498  16.034 -0.7524 -0.1048 -0.9454
17294TIP3    H273374   6.673   1.520  16.059 -0.8519 -2.1761  1.9903
17295TIP3   OH273375   3.205   2.352   4.411  0.1052 -0.0928 -0.2922
17295TIP3    H173376   3.239   2.413   4.477  1.1227  0.5118 -1.3481
17295TIP3    H273377   3.170   2.279   4.462 -0.9726  1.2569  1.0109
17296TIP3   OH273378   0.528   3.981   4.064  0.2195 -0.0111  0.3154
17296TIP3    H173379   0.555   3.915   4.128  1.7137  0.7047  0.4664
17296TIP3    H273380   0.592   3.973   3.993 -1.6005 -1.0121 -1.2938
17297TIP3   OH273381   5.857   2.373  13.015  0.4252  0.0514  0.0903
17297TIP3    H173382   5.772   2.359  13.057  1.2715  0.3877  2.0137
17297TIP3    H273383   5.894   2.285  13.005  0.7424  0.0281  1.2736
17298TIP3   OH273384   0.328   1.635  12.525  0.4455 -0.0070  0.4189
17298TIP3    H173385   0.309   1.655  12.617  0.9170 -0.0237  0.5217
17298TIP3    H273386   0.253   1.582  12.497 -0.4151  1.1988  0.3756
17299TIP3   OH273387   2.581   0.865  13.505  0.0401  0.6004 -0.0055
17299TIP3    H173388   2.594   0.881  13.411  0.3800 -1.3503 -0.3305
17299TIP3    H273389   2.619   0.779  13.520 -2.9839 -0.6790  1.1922
17300TIP3   OH273390   5.506   5.850   0.710  0.2534 -0.3411  0.2792
17300TIP3    H173391   5.428   5.901   0.691 -0.1645 -0.6838  1.0375
17300TIP3    H273392   5.501   5.774   0.652 -0.1770 -0.5614  0.6065
17301TIP3   OH273393   6.730   6.009  14.713 -0.1462 -0.2784  0.0997
17301TIP3    H173394   6.648   6.053  14.735  0.1492 -0.4749  1.7238
17301TIP3    H273395   6.714   5.971  14.626 -1.0097  1.4813 -0.5660
17302TIP3   OH273396   3.169   1.157  14.915 -0.2643 -0.2782 -0.0012
17302TIP3    H173397   3.185   1.216  14.841 -1.6467 -1.5720 -1.4151
17302TIP3    H273398   3.253   1.154  14.962  0.8991  0.0342 -1.9404
17303TIP3   OH273399   3.927   5.391   4.298 -0.6534 -0.2439 -0.0816
17303TIP3    H173400   3.930   5.375   4.203 -1.3531 -1.5356  0.0868
17303TIP3    H273401   3.980   5.470   4.311 -0.3841 -0.1593 -1.5223
17304TIP3   OH273402   6.681   6.671  12.646 -0.2041 -0.2615  0.0311
17304TIP3    H173403   6.766   6.670  12.690 -0.1781 -1.3901 -0.0161
17304TIP3    H273404   6.673   6.760  12.612  0.8738 -0.0804  0.2021
17305TIP3   OH273405   2.808   0.661  16.834 -0.4452 -0.2276  0.5195
17305TIP3    H173406   2.765   0.688  16.752 -0.9503  1.5437  1.3080
17305TIP3    H273407   2.854   0.580  16.812 -2.3332 -0.9746 -0.9567
17306TIP3   OH273408   6.313   3.329   0.995  0.1824  0.5144  0.1609
17306TIP3    H173409   6.377   3.308   1.064  1.3688 -0.3418 -1.1511
17306TIP3    H273410   6.367   3.353   0.919 -1.0942  1.1030 -0.5881
17307TIP3   OH273411   5.536   4.468  14.919 -0.5222  0.2387 -0.3431
17307TIP3    H173412   5.556   4.452  14.827 -0.2855  1.7484 -0.5839
17307TIP3    H273413   5.442   4.489  14.920 -0.4925  0.3678 -0.2623
17308TIP3   OH273414   3.557   6.795   3.667  0.1405  0.5722 -0.2761
17308TIP3    H173415   3.469   6.822   3.694 -0.1582  0.3640 -1.0434
17308TIP3    H273416   3.581   6.858   3.599  2.3293  3.3963  2.7421
17309TIP3   OH273417   3.257   4.033  15.298  0.3884 -0.0046  0.0915
17309TIP3    H173418   3.228   4.116  15.336  1.6884  0.4804  0.0972
17309TIP3    H273419   3.305   4.059  15.219  1.0722 -0.7230  0.2599
17310TIP3   OH273420   5.614   1.595  12.400 -0.2667 -0.0717  0.4538
17310TIP3    H173421   5.642   1.581  12.309  1.2599 -1.5594  1.0981
17310TIP3    H273422   5.671   1.665  12.432  0.2088 -0.5457  0.6677
17311TIP3   OH273423   0.072   2.610  14.890 -0.1757 -0.8346  0.2955
17311TIP3    H173424   0.157   2.653  14.904  0.6353 -2.5187  0.8059
17311TIP3    H273425   0.010   2.663  14.940  0.4049  0.8390 -0.6339
17312TIP3   OH273426   0.591   5.300   2.199 -0.8183 -0.0621  0.2287
17312TIP3    H173427   0.613   5.348   2.278 -1.9904  0.4771  0.2412
17312TIP3    H273428   0.672   5.255   2.175  0.5886  2.5708 -0.2643
17313TIP3   OH273429   5.649   2.143  16.602 -0.2699 -0.0873 -0.6979
17313TIP3    H173430   5.584   2.113  16.665 -0.7822  0.1773 -1.0888
17313TIP3    H273431   5.653   2.238  16.616  1.6327 -0.3278  0.8134
17314TIP3   OH273432   4.588   2.440  14.398  0.3838  0.1923  0.1252
17314TIP3    H173433   4.575   2.457  14.305  1.6999 -1.5738 -0.4294
17314TIP3    H273434   4.500   2.421  14.432 -0.2573  1.8908 -0.4884
17315TIP3   OH273435   6.598   6.214   6.684 -0.2254  0.2312  0.4045
17315TIP3    H173436   6.610   6.130   6.728 -1.8246 -0.3444 -0.1685
17315TIP3    H273437   6.505   6.235   6.698 -0.5316  0.5384 -1.7651
17316TIP3   OH273438   6.342   4.572  15.514  0.5941  0.0541 -0.5663
17316TIP3    H173439   6.412   4.622  15.556  0.1769 -0.3273  0.6055
17316TIP3    H273440   6.373   4.560  15.424  2.0476 -0.1120 -0.0777
17317TIP3   OH273441   5.529   6.826   1.278 -0.4024  0.1004  0.3366
17317TIP3    H173442   5.492   6.741   1.304 -3.3997  0.9644 -0.6593
17317TIP3    H273443   5.459   6.889   1.295  0.4532  1.8809 -2.1314
17318TIP3   OH273444   3.350   6.779   3.863 -0.4479 -0.1837  0.2056
17318TIP3    H173445   3.323   6.734   3.783 -1.3090  0.8626 -0.1276
17318TIP3    H273446   3.281   6.845   3.877  1.1495  1.5589  0.2099
17319TIP3   OH273447   1.234   2.501  14.358 -0.0727 -0.4663 -0.0244
17319TIP3    H173448   1.306   2.563  14.371 -0.3688 -0.3602  1.2635
17319TIP3    H273449   1.230   2.488  14.264  2.1197 -1.0493 -0.0790
17320TIP3   OH273450   6.089   5.726   0.347 -0.3767 -0.1266  0.1431
17320TIP3    H173451   6.092   5.802   0.289  2.0968 -0.1811  0.1214
17320TIP3    H273452   5.996   5.719   0.372 -0.9876  1.7040 -1.3749
17321TIP3   OH273453   5.853   6.663   2.880  0.4233 -0.1856  0.2061
17321TIP3    H173454   5.878   6.693   2.967  1.4651  1.1340 -0.5066
17321TIP3    H273455   5.906   6.586   2.865  0.8888  0.0948  0.4032
17322TIP3   OH273456   4.710   4.240   4.289  0.4760 -0.3488 -0.0496
17322TIP3    H173457   4.721   4.333   4.309  1.0202 -0.6460  1.1056
17322TIP3    H273458   4.710   4.236   4.193  0.9177  0.7912 -0.1129
17323TIP3   OH273459   5.573   4.062   0.696  0.6472 -0.0971 -0.1078
17323TIP3    H173460   5.608   3.973   0.694 -0.2678 -0.4731 -0.4323
17323TIP3    H273461   5.563   4.085   0.603 -3.4871 -1.5259 -0.2349
17324TIP3   OH273462   3.721   5.909  16.840 -0.6876 -0.1402 -0.2227
17324TIP3    H173463   3.782   5.978  16.865 -0.8897  0.6206 -1.7188
17324TIP3    H273464   3.678   5.884  16.922  0.9948 -0.1058  0.7275
17325TIP3   OH273465   5.681   6.847  14.654 -0.2567  0.3353  0.5470
17325TIP3    H173466   5.621   6.781  14.688 -0.1170  0.5773  1.2854
17325TIP3    H273467   5.706   6.899  14.730 -1.3433  2.0563 -0.1989
17326TIP3   OH273468   5.664   2.060   1.952 -0.7084 -0.7044 -0.0647
17326TIP3    H173469   5.700   1.995   2.011 -0.3362 -0.3859  0.0633
17326TIP3    H273470   5.569   2.048   1.956 -0.6241 -1.5022 -0.3489
17327TIP3   OH273471   3.840   5.206  15.864 -0.1870 -0.4943  0.3752
17327TIP3    H173472   3.867   5.136  15.923  0.8757  0.9801  1.7242
17327TIP3    H273473   3.785   5.263  15.918  2.1964  1.8034  0.5742
17328TIP3   OH273474   5.301   0.602   2.988  0.0761 -0.2387  0.6008
17328TIP3    H173475   5.329   0.520   2.947 -0.3884  0.1326 -0.4951
17328TIP3    H273476   5.356   0.611   3.065  0.5933 -1.2421  0.3588
17329TIP3   OH273477   4.989   0.248  14.935  0.2204 -0.0598  0.1584
17329TIP3    H173478   4.935   0.277  15.009  0.7296 -1.7042  1.2173
17329TIP3    H273479   4.929   0.197  14.880  0.2642 -0.3114  0.3476
17330TIP3   OH273480   0.697   3.319  13.062 -0.5796  0.2444  0.5110
17330TIP3    H173481   0.604   3.334  13.040 -0.6047 -0.0929  0.3848
17330TIP3    H273482   0.696   3.283  13.150 -0.5773  0.1273  0.4637
17331TIP3   OH273483   4.411   0.370   2.482  0.2993 -0.3487  0.3897
17331TIP3    H173484   4.395   0.448   2.428  1.1960  0.4236  1.2128
17331TIP3    H273485   4.333   0.362   2.536  0.4488  0.3455  0.7231
17332TIP3   OH273486   5.808   3.782  10.717 -0.3046 -1.0868  0.3145
17332TIP3    H173487   5.752   3.760  10.791 -2.5561  1.7067 -0.3864
17332TIP3    H273488   5.778   3.723  10.647 -2.2275  0.0801  0.0720
17333TIP3   OH273489   6.582   6.083   2.390 -0.2900  0.4807 -0.0335
17333TIP3    H173490   6.635   6.155   2.426 -0.8989  1.4580 -1.0243
17333TIP3    H273491   6.500   6.125   2.365 -0.5803 -0.5344 -0.8209
17334TIP3   OH273492   4.693   0.010   1.308 -0.1456 -0.2982  0.2567
17334TIP3    H173493   4.647   0.032   1.389  1.6879  2.7348  0.6315
17334TIP3    H273494   4.678   0.084   1.250  0.2742 -1.4743 -1.4524
17335TIP3   OH273495   0.137   0.938   4.800 -0.6738 -0.2656  0.5080
17335TIP3    H173496   0.182   1.021   4.818 -1.2301  0.2382 -0.3777
17335TIP3    H273497   0.081   0.924   4.877 -0.0798 -0.1706  0.9669
17336TIP3   OH273498   6.410   2.853   0.515 -0.6368 -0.1862 -0.1020
17336TIP3    H173499   6.403   2.889   0.427  1.8651  1.2293  0.1882
17336TIP3    H273500   6.334   2.887   0.562 -1.6844 -0.4977 -1.5138
17337TIP3   OH273501   6.865   1.829  15.322  0.4465 -0.3757  0.3954
17337TIP3    H173502   6.784   1.780  15.338  0.5488 -0.7872 -0.2814
17337TIP3    H273503   6.889   1.865  15.407 -0.9610  0.5487  0.4385
17338TIP3   OH273504   1.899   1.414  14.306  0.1515 -0.0783 -0.4603
17338TIP3    H173505   1.900   1.509  14.312 -0.7714 -0.0742 -0.2257
17338TIP3    H273506   1.934   1.384  14.390  0.7873  0.0482 -0.6752
17339TIP3   OH273507   0.775   1.103   2.306  0.2048 -0.0619 -0.0354
17339TIP3    H173508   0.729   1.112   2.223  0.3669  0.7456 -0.0536
17339TIP3    H273509   0.710   1.128   2.372 -1.0601 -4.0060  0.4549
17340TIP3   OH273510   4.920   2.272   0.723 -0.0315  0.0613  0.3138
17340TIP3    H173511   4.981   2.199   0.728 -1.2087 -0.8832  1.9422
17340TIP3    H273512   4.976   2.348   0.706  1.5922 -0.8015  1.4542
17341TIP3   OH273513   1.230   1.806  15.396  0.5768  0.3481 -0.1207
17341TIP3    H173514   1.312   1.837  15.434  1.1984 -1.1358 -0.1753
17341TIP3    H273515   1.163   1.865  15.430  1.5470  1.0389  0.6337
17342TIP3   OH273516   0.530   3.903   5.816 -0.5912 -0.3384  0.0345
17342TIP3    H173517   0.551   3.943   5.901 -3.1498  1.0514  0.0978
17342TIP3    H273518   0.469   3.964   5.775 -1.8669 -2.4937 -1.4673
17343TIP3   OH273519   4.292   6.829   1.691  0.1147  0.4227 -0.4159
17343TIP3    H173520   4.312   6.862   1.778  0.5085 -1.5571  0.3050
17343TIP3    H273521   4.204   6.862   1.672  0.0100  0.8527  0.7483
17344TIP3   OH273522   5.652   3.366  11.370  0.2185 -0.1895 -0.1669
17344TIP3    H173523   5.653   3.303  11.298 -0.2257 -1.6849  1.0705
17344TIP3    H273524   5.611   3.444  11.334 -1.2941 -1.3943 -1.1642
17345TIP3   OH273525   0.765   0.226  14.297 -0.0337  0.5819 -0.1045
17345TIP3    H173526   0.761   0.196  14.207 -0.0166  0.9086 -0.2164
17345TIP3    H273527   0.722   0.312  14.296  1.6064  1.4402 -0.1690
17346TIP3   OH273528   1.156   4.238  11.307  0.1843 -0.0514  0.5732
17346TIP3    H173529   1.225   4.235  11.241 -0.4285  2.3683 -0.2910
17346TIP3    H273530   1.075   4.229  11.257 -0.2670  1.2259  1.0490
17347TIP3   OH273531   0.627   1.890   3.961 -0.0703  0.3472 -0.2034
17347TIP3    H173532   0.549   1.879   4.016 -0.5407  2.9646 -0.2133
17347TIP3    H273533   0.643   1.804   3.924 -0.3004 -1.3489  3.2353
17348TIP3   OH273534   5.659   6.519  12.319  0.1274  0.1127  0.3301
17348TIP3    H173535   5.677   6.521  12.413 -1.2948  3.0479  0.6676
17348TIP3    H273536   5.732   6.566  12.280 -0.3196  0.7615  0.2503
17349TIP3   OH273537   1.992   1.330  14.547  0.0178 -0.2157  0.3149
17349TIP3    H173538   1.970   1.238  14.534  0.5497 -0.5695  1.7238
17349TIP3    H273539   2.086   1.335  14.532 -0.2919  0.5333 -1.7763
17350TIP3   OH273540   6.002   2.156   0.123 -0.0966  0.0570  0.6654
17350TIP3    H173541   6.001   2.067   0.159 -1.0248 -0.7259 -1.1801
17350TIP3    H273542   5.942   2.152   0.049  1.8597  1.5310 -1.0974
17351TIP3   OH273543   4.602   4.344  12.969 -0.3658 -0.7284  0.1527
17351TIP3    H173544   4.608   4.423  13.022 -1.5381 -1.5888  1.6590
17351TIP3    H273545   4.672   4.353  12.905 -1.3394  2.2035 -0.6836
17352TIP3   OH273546   0.588   1.999  15.055 -0.0917 -0.0234 -0.2108
17352TIP3    H173547   0.626   2.083  15.079  0.7508 -0.4812  0.1142
17352TIP3    H273548   0.494   2.011  15.064  0.0685  0.5983  0.7727
17353TIP3   OH273549   0.780   5.163   2.458 -0.1254  0.7689  0.3243
17353TIP3    H173550   0.730   5.081   2.458 -2.1756  1.9351 -0.7560
17353TIP3    H273551   0.784   5.188   2.550 -2.2814  1.0018  0.4122
17354TIP3   OH273552   4.184   1.384   1.214 -0.3053  0.3424  0.6409
17354TIP3    H173553   4.244   1.363   1.285  0.8718 -0.8248 -0.6219
17354TIP3    H273554   4.130   1.306   1.204 -0.7228  0.6456  0.5100
17355TIP3   OH273555   6.497   0.129  11.680 -0.0010 -0.3526  0.2191
17355TIP3    H173556   6.554   0.168  11.747 -0.4706  1.5364 -0.4283
17355TIP3    H273557   6.547   0.137  11.599 -0.7350  0.3300 -0.1760
17356TIP3   OH273558   1.185   1.242   3.339 -0.5738  0.2534  0.5184
17356TIP3    H173559   1.102   1.283   3.316 -1.2268 -1.1343  0.3045
17356TIP3    H273560   1.248   1.315   3.340 -1.5536  1.1630 -0.4279
17357TIP3   OH273561   2.755   6.076  14.801  0.0373  0.4609 -0.0111
17357TIP3    H173562   2.707   6.149  14.840  0.9205  1.1543 -0.1927
17357TIP3    H273563   2.846   6.089  14.829  0.4621  0.2564 -1.2444
17358TIP3   OH273564   4.280   5.719   2.352  0.0221  0.3926  0.3017
17358TIP3    H173565   4.294   5.697   2.260  1.2075  0.6222  0.4099
17358TIP3    H273566   4.268   5.634   2.395  1.0657  0.1562  0.1658
17359TIP3   OH273567   5.313   6.326  13.308  0.2661 -0.5513  0.5583
17359TIP3    H173568   5.365   6.246  13.315  1.0212 -0.2492 -1.0577
17359TIP3    H273569   5.293   6.334  13.215 -0.6826  0.5956  0.8340
17360TIP3   OH273570   6.253   0.996   0.463 -0.4468 -0.1069  0.6356
17360TIP3    H173571   6.267   1.068   0.525 -1.5692 -0.3559  1.2060
17360TIP3    H273572   6.268   0.917   0.515  0.1409 -0.2991  0.1771
17361TIP3   OH273573   6.748   6.113  12.623 -0.0366 -0.5949 -0.0488
17361TIP3    H173574   6.826   6.163  12.649 -0.2319 -0.2915 -0.0419
17361TIP3    H273575   6.677   6.152  12.674 -0.3821 -0.1503 -0.8531
17362TIP3   OH273576   1.865   4.527   4.776  0.3425 -0.0918 -0.4347
17362TIP3    H173577   1.891   4.557   4.689  2.7516 -2.3516 -0.6459
17362TIP3    H273578   1.853   4.432   4.767  1.0363 -0.4615  1.7245
17363TIP3   OH273579   0.724   4.006   3.848  0.3842 -0.8823 -0.0227
17363TIP3    H173580   0.795   3.950   3.878  0.9390 -0.2618 -0.1580
17363TIP3    H273581   0.768   4.078   3.802 -0.2238  0.3163  1.1929
17364TIP3   OH273582   4.108   1.163  11.935 -0.0876 -0.2552 -0.1064
17364TIP3    H173583   4.129   1.070  11.931  0.2962 -0.1983  0.4590
17364TIP3    H273584   4.191   1.205  11.960 -0.6689  0.0623  1.3563
17365TIP3   OH273585   2.453   3.343  13.959 -0.1008  0.1370 -0.0464
17365TIP3    H173586   2.459   3.382  13.872 -1.1934  2.7281  0.9408
17365TIP3    H273587   2.383   3.278  13.952  1.2424 -1.2316 -1.5568
17366TIP3   OH273588   6.179   4.704  10.433 -0.0498  0.5833  0.4799
17366TIP3    H173589   6.227   4.622  10.427 -0.3354  0.5271 -1.8337
17366TIP3    H273590   6.244   4.767  10.464  0.2796 -0.3826  1.8787
17367TIP3   OH273591   1.319   6.175  13.793  0.3170  0.0331 -0.0152
17367TIP3    H173592   1.407   6.146  13.816  0.2582 -0.3501 -0.2644
17367TIP3    H273593   1.293   6.233  13.865  1.1626  0.9614 -0.4441
17368TIP3   OH273594   2.498   0.702   3.842  0.3035  0.8421 -0.0193
17368TIP3    H173595   2.443   0.665   3.911 -1.1860  1.7197 -0.7004
17368TIP3    H273596   2.582   0.718   3.885  0.1810 -0.8687  0.9464
17369TIP3   OH273597   0.472   2.724  11.846  0.1435 -0.0204  0.2020
17369TIP3    H173598   0.565   2.729  11.823 -0.4175 -1.2253 -2.8392
17369TIP3    H273599   0.438   2.811  11.826 -0.1136 -0.7448 -2.9953
17370TIP3   OH273600   5.127   3.239   6.258  0.0438 -0.0361  0.2473
17370TIP3    H173601   5.083   3.268   6.339  0.3978 -1.3023  0.9163
17370TIP3    H273602   5.221   3.244   6.279  0.1372 -0.3288 -0.1000
17371TIP3   OH273603   1.652   2.687  11.662 -0.1560  0.2109  0.3805
17371TIP3    H173604   1.699   2.677  11.745  0.3183 -0.9635 -0.0075
17371TIP3    H273605   1.696   2.761  11.619  0.4851 -0.0397  0.5932
17372TIP3   OH273606   5.283   5.039  11.494 -0.1552 -0.6345  0.0723
17372TIP3    H173607   5.342   4.971  11.527  0.6703 -0.9061 -1.8235
17372TIP3    H273608   5.332   5.081  11.423 -1.8341 -0.1481 -0.8566
17373TIP3   OH273609   5.422   2.737  16.501  0.0980  0.7942  0.2154
17373TIP3    H173610   5.471   2.789  16.566 -0.8580 -0.1292  1.7441
17373TIP3    H273611   5.331   2.765  16.512 -0.6912 -1.9942  2.0478
17374TIP3   OH273612   4.173   5.237   1.629  0.2692 -0.5216 -0.3521
17374TIP3    H173613   4.256   5.274   1.659  0.2821 -0.1840 -0.7965
17374TIP3    H273614   4.194   5.193   1.547 -0.0596 -0.1258 -0.6522
17375TIP3   OH273615   4.498   0.869   6.367 -0.2467  0.2462 -0.2027
17375TIP3    H173616   4.518   0.874   6.461 -1.3415  0.1828  0.0475
17375TIP3    H273617   4.496   0.775   6.348  0.9050  0.2777 -0.5051
17376TIP3   OH273618   1.352   6.502   3.567 -0.4956  0.7375  0.3235
17376TIP3    H173619   1.443   6.487   3.594 -0.9330  0.4276  1.7330
17376TIP3    H273620   1.356   6.576   3.508  0.8429 -0.1651 -0.7652
17377TIP3   OH273621   6.659   6.582  10.458 -0.3451  0.5204  0.0377
17377TIP3    H173622   6.603   6.504  10.463 -0.4713  0.6197  0.1749
17377TIP3    H273623   6.674   6.595  10.365 -2.3495  1.7774 -0.1800
17378TIP3   OH273624   2.206   4.299  15.667  0.0564  0.5902  0.2597
17378TIP3    H173625   2.268   4.367  15.639 -1.1725  1.6140 -0.0943
17378TIP3    H273626   2.155   4.341  15.736  0.6758 -0.7234  1.5708
17379TIP3   OH273627   6.763   5.665  12.904  0.0928 -0.0529  0.4133
17379TIP3    H173628   6.853   5.683  12.875 -0.7892  1.2985 -1.7471
17379TIP3    H273629   6.769   5.582  12.951  2.6004  0.4468  1.1185
17380TIP3   OH273630   2.537   6.219   0.665 -0.4808  0.3878 -0.4173
17380TIP3    H173631   2.442   6.214   0.661 -0.4901  0.6356 -0.5249
17380TIP3    H273632   2.563   6.141   0.713 -0.8438  1.0993  1.0061
17381TIP3   OH273633   4.927   3.749   3.588  0.7424  0.1455 -0.3933
17381TIP3    H173634   4.961   3.729   3.500  1.8698  1.1516 -0.2113
17381TIP3    H273635   4.935   3.844   3.595  1.0767  0.0312  0.9632
17382TIP3   OH273636   5.742   1.327  13.087  0.4685  0.5757 -0.1663
17382TIP3    H173637   5.764   1.372  13.005 -0.9096  0.5787 -0.5522
17382TIP3    H273638   5.655   1.291  13.073  0.7196 -0.5118  0.8637
17383TIP3   OH273639   5.180   1.499   3.900 -0.0601 -0.3731  0.1971
17383TIP3    H173640   5.116   1.567   3.879 -2.5060 -1.1626  4.2180
17383TIP3    H273641   5.147   1.420   3.855  0.9489  0.2308 -1.7288
17384TIP3   OH273642   3.790   4.210  11.438  0.1534 -0.3469  0.1729
17384TIP3    H173643   3.703   4.192  11.474 -0.1009  0.0194 -0.2461
17384TIP3    H273644   3.841   4.241  11.512 -0.8005  1.9297 -0.0442
17385TIP3   OH273645   0.588   3.441  15.876 -0.3983 -0.0070 -0.6663
17385TIP3    H173646   0.656   3.503  15.848  1.9972 -1.0309  2.3676
17385TIP3    H273647   0.546   3.484  15.950 -0.5121 -0.9065 -0.1971
17386TIP3   OH273648   2.062   2.214  12.964  0.4062  0.5022 -0.4816
17386TIP3    H173649   2.039   2.289  12.909  1.4358  1.4393  0.3046
17386TIP3    H273650   2.112   2.157  12.907  2.2155  1.8796 -0.3640
17387TIP3   OH273651   4.140   6.754   4.383  0.3508  0.5072  0.3790
17387TIP3    H173652   4.136   6.658   4.382 -0.5391  0.5332 -0.1610
17387TIP3    H273653   4.052   6.782   4.358  1.0278  1.4529 -1.1234
17388TIP3   OH273654   3.107   3.837  11.723  0.4515  0.3325 -0.4423
17388TIP3    H173655   3.022   3.869  11.692 -0.1369 -1.3084 -0.6410
17388TIP3    H273656   3.148   3.798  11.646  1.2063  0.7372 -0.2523
17389TIP3   OH273657   5.264   0.078   3.884  0.0935  0.6873 -0.2958
17389TIP3    H173658   5.209   0.003   3.861  0.5657  0.8248 -2.0693
17389TIP3    H273659   5.206   0.154   3.876  0.0960  0.6735 -0.4581
17390TIP3   OH273660   4.986   2.123  14.749  0.0518  0.4047 -0.3854
17390TIP3    H173661   4.968   2.030  14.734  1.5438 -0.1233  0.8654
17390TIP3    H273662   4.957   2.166  14.668 -0.6178 -1.1363 -1.0111
17391TIP3   OH273663   4.508   5.415  14.850 -0.1609  0.3628 -0.4761
17391TIP3    H173664   4.450   5.360  14.903  0.6329  0.1330  0.1645
17391TIP3    H273665   4.518   5.367  14.768 -0.7992  0.3608 -0.5608
17392TIP3   OH273666   4.139   0.267  13.523  0.1504 -0.0379  0.4249
17392TIP3    H173667   4.181   0.266  13.437  1.9583 -1.4242  1.2421
17392TIP3    H273668   4.153   0.356  13.555  2.3736 -0.3807  0.5588
17393TIP3   OH273669   4.859   0.631   4.484  0.5618 -0.0357 -0.3413
17393TIP3    H173670   4.796   0.692   4.524 -0.1942  0.5460 -2.3252
17393TIP3    H273671   4.936   0.685   4.465  0.4061 -0.0074 -0.8865
17394TIP3   OH273672   3.550   3.002   2.143  0.8673 -0.1231  0.5346
17394TIP3    H173673   3.600   3.044   2.213 -0.0709 -0.0691  1.1897
17394TIP3    H273674   3.468   2.977   2.184 -0.0508  0.6533 -0.7450
17395TIP3   OH273675   2.089   2.257   2.645  0.0269 -0.3337  0.3695
17395TIP3    H173676   2.049   2.237   2.560 -1.0873  0.3933  0.7065
17395TIP3    H273677   2.018   2.247   2.708  0.5832  0.1798  1.0914
17396TIP3   OH273678   0.322   1.535  13.438  0.2495  0.8044 -0.1672
17396TIP3    H173679   0.365   1.449  13.437  0.4012  0.8780 -1.4978
17396TIP3    H273680   0.278   1.538  13.523  0.9596 -0.2249  0.2718
17397TIP3   OH273681   5.234   3.306  14.243 -0.4998  0.5945 -0.2433
17397TIP3    H173682   5.264   3.254  14.168  0.6059  0.4544  0.2756
17397TIP3    H273683   5.175   3.371  14.205 -0.3559  0.2044 -1.1669
17398TIP3   OH273684   1.941   3.425  16.823  0.3205  0.1759 -0.9331
17398TIP3    H173685   1.992   3.448  16.745  1.6254 -0.8221 -0.4172
17398TIP3    H273686   1.986   3.349  16.860 -0.6404  0.2293  0.4464
17399TIP3   OH273687   5.744   5.032   5.305  0.1955  0.1720  0.1782
17399TIP3    H173688   5.812   5.087   5.343  1.2082 -1.6698  1.2005
17399TIP3    H273689   5.698   4.996   5.380  1.6129 -2.7951 -0.2026
17400TIP3   OH273690   4.955   2.655   6.798  0.2798  0.0019  0.5444
17400TIP3    H173691   4.889   2.677   6.732  0.2920 -0.0842  0.5034
17400TIP3    H273692   4.967   2.561   6.790  0.7903  0.0922  0.1955
17401TIP3   OH273693   4.002   5.535  14.759 -0.4421  0.1254 -0.7040
17401TIP3    H173694   3.946   5.606  14.792 -1.0351 -1.2752  1.4402
17401TIP3    H273695   3.942   5.477  14.713 -0.9640 -1.6434  2.0304
17402TIP3   OH273696   4.755   5.624   5.050 -0.2157  0.1952 -0.0486
17402TIP3    H173697   4.726   5.626   4.959  1.2391 -1.9187 -0.6517
17402TIP3    H273698   4.851   5.626   5.045 -0.1152  1.0516  1.5175
17403TIP3   OH273699   0.554   1.772  13.550 -0.4468  0.2324 -0.5139
17403TIP3    H173700   0.621   1.738  13.609 -1.5161  0.2030  0.7496
17403TIP3    H273701   0.493   1.818  13.608 -0.5651  1.8291 -1.8403
17404TIP3   OH273702   4.997   2.673  11.797 -0.6651 -0.6318  0.1976
17404TIP3    H173703   4.984   2.610  11.868  1.5669 -1.6226 -0.1594
17404TIP3    H273704   5.065   2.732  11.830 -0.3013 -0.5177 -0.7309
17405TIP3   OH273705   4.339   2.692   1.724 -0.0517 -0.7900 -0.6870
17405TIP3    H173706   4.260   2.746   1.726  0.6026  0.1752  0.5261
17405TIP3    H273707   4.310   2.609   1.686 -1.5428 -0.3029 -0.6865
17406TIP3   OH273708   5.393   2.385  15.358 -0.0572  0.1224  0.5442
17406TIP3    H173709   5.431   2.430  15.283  2.3361 -0.5082  1.2982
17406TIP3    H273710   5.319   2.336  15.322  1.5883 -0.9355 -1.6258
17407TIP3   OH273711   6.505   1.569   4.056 -1.0052 -0.1978  0.3184
17407TIP3    H173712   6.512   1.508   4.130 -1.5577  0.0743  0.5987
17407TIP3    H273713   6.595   1.595   4.038 -0.7478 -1.1504  0.1475
17408TIP3   OH273714   1.948   6.086   5.346 -0.8346  0.0476 -0.1399
17408TIP3    H173715   2.040   6.111   5.355 -0.6686 -1.3048  3.6001
17408TIP3    H273716   1.947   6.021   5.277  1.2339 -0.6346  0.4044
17409TIP3   OH273717   2.985   2.357  11.896  0.2277 -0.1624 -0.1221
17409TIP3    H173718   3.080   2.346  11.889  0.2770 -0.0171  0.2866
17409TIP3    H273719   2.954   2.274  11.933  0.1901 -0.2188 -0.2771
17410TIP3   OH273720   0.435   1.816  12.032 -0.1588 -0.0179 -0.3217
17410TIP3    H173721   0.504   1.787  12.091 -0.1244  0.8690  0.0842
17410TIP3    H273722   0.439   1.754  11.959  0.3869 -0.5831  0.1758
17411TIP3   OH273723   2.870   1.673  16.654 -0.5945 -0.2610  0.4477
17411TIP3    H173724   2.953   1.689  16.609  0.2169 -0.5959  1.7689
17411TIP3    H273725   2.806   1.724  16.605 -0.1102 -1.9826 -2.1909
17412TIP3   OH273726   5.814   6.370   5.974 -0.2387  0.4103  0.4608
17412TIP3    H173727   5.839   6.431   6.044  0.5820  1.4445 -0.6873
17412TIP3    H273728   5.737   6.409   5.934  1.2655  1.6510 -1.3667
17413TIP3   OH273729   0.452   1.805   4.181  0.5711 -0.2647  0.3114
17413TIP3    H173730   0.389   1.759   4.236 -0.1477  0.3028 -0.0269
17413TIP3    H273731   0.473   1.885   4.230 -0.0586  0.2346 -0.2104
17414TIP3   OH273732   2.585   5.464   0.148  0.0271  0.5603  0.1160
17414TIP3    H173733   2.592   5.393   0.085 -3.9325  0.5273 -0.5393
17414TIP3    H273734   2.650   5.443   0.216  2.5367 -0.8265 -2.5178
17415TIP3   OH273735   4.038   6.423  16.320  0.3535  0.1649  0.2922
17415TIP3    H173736   3.983   6.349  16.345 -0.9057  0.4691 -1.3434
17415TIP3    H273737   4.044   6.476  16.399  0.8713 -1.4089  1.3619
17416TIP3   OH273738   0.679   4.568  14.075 -0.0790 -0.3588 -0.4698
17416TIP3    H173739   0.714   4.527  14.154  0.7828 -1.5176 -1.4085
17416TIP3    H273740   0.615   4.632  14.107  0.5699 -0.4792  1.1656
17417TIP3   OH273741   6.304   0.263   1.391 -0.1595  0.3270  0.3834
17417TIP3    H173742   6.387   0.263   1.344  0.4883 -0.2047  1.4814
17417TIP3    H273743   6.265   0.178   1.373 -0.6195  0.6872 -0.3681
17418TIP3   OH273744   6.054   5.705  13.523 -0.1770 -0.5098  0.0886
17418TIP3    H173745   5.995   5.637  13.556 -1.0161 -0.7864 -1.8303
17418TIP3    H273746   6.035   5.710  13.429  1.1838  1.0919 -0.1567
17419TIP3   OH273747   5.446   4.884  11.319  0.1560  0.4817  0.9138
17419TIP3    H173748   5.369   4.854  11.270  0.2412  1.0084  0.4623
17419TIP3    H273749   5.429   4.853  11.409  1.2297 -2.8394  0.1207
17420TIP3   OH273750   2.301   4.583   0.593 -0.2691  0.0827  0.1633
17420TIP3    H173751   2.357   4.520   0.638 -0.2692 -0.0309  0.0051
17420TIP3    H273752   2.243   4.530   0.539  0.2019  0.2406 -0.5152
17421TIP3   OH273753   4.298   0.842  13.611  0.3110 -0.3052 -0.2132
17421TIP3    H173754   4.391   0.827  13.595  0.0123 -1.9053 -0.6354
17421TIP3    H273755   4.296   0.896  13.690  1.5768 -1.5053  0.6979
17422TIP3   OH273756   5.056   6.072   0.742  0.2115 -0.2185 -0.0622
17422TIP3    H173757   5.043   6.132   0.815 -1.0645 -0.2167 -0.2678
17422TIP3    H273758   4.980   6.085   0.685  2.0162  1.0700 -2.3640
17423TIP3   OH273759   2.705   5.287  10.340 -0.5444 -0.1896 -0.1528
17423TIP3    H173760   2.615   5.263  10.363  0.2714 -2.1605  1.3150
17423TIP3    H273761   2.742   5.207  10.303  0.9009  0.2952  0.2050
17424TIP3   OH273762   0.132   1.807   4.526 -0.1730  0.5828 -0.0216
17424TIP3    H173763   0.065   1.871   4.547 -0.2805  1.9086 -3.6744
17424TIP3    H273764   0.209   1.859   4.502  1.2616 -0.8225  1.2974
17425TIP3   OH273765   0.277   1.216   5.790 -0.1486  0.2514  0.3411
17425TIP3    H173766   0.264   1.311   5.789  2.5952  0.7348 -1.2154
17425TIP3    H273767   0.353   1.203   5.846  1.1862 -0.6487 -1.5633
17426TIP3   OH273768   4.183   0.814   0.408 -0.6587 -0.0696  0.2155
17426TIP3    H173769   4.106   0.852   0.450 -1.6789 -1.2295 -0.4972
17426TIP3    H273770   4.153   0.727   0.381 -0.4597  0.9331 -3.8348
17427TIP3   OH273771   6.416   5.947  12.711 -0.1708 -0.0960 -0.7558
17427TIP3    H173772   6.431   6.031  12.755  3.0882 -0.0641 -1.6756
17427TIP3    H273773   6.421   5.882  12.780 -2.6452  0.3858 -0.0434
17428TIP3   OH273774   5.487   6.649  14.204  0.1715  0.0271 -0.6441
17428TIP3    H173775   5.516   6.720  14.263 -1.2291 -0.8172  1.1617
17428TIP3    H273776   5.442   6.695  14.133  0.8031  1.0216 -0.4362
17429TIP3   OH273777   1.951   3.596  13.073  0.2946 -0.0788  0.0358
17429TIP3    H173778   1.969   3.686  13.100 -1.2856 -0.1069  1.3418
17429TIP3    H273779   2.007   3.582  12.997 -1.6916  3.0790 -2.2410
17430TIP3   OH273780   1.005   5.100   3.012 -0.3736  0.1702  0.5996
17430TIP3    H173781   1.005   5.098   3.108  0.4152  0.2970  0.6095
17430TIP3    H273782   1.087   5.144   2.989 -0.8326  0.6676 -0.1307
17431TIP3   OH273783   6.299   5.792   3.318  0.0359  0.3334  0.8851
17431TIP3    H173784   6.219   5.759   3.277  0.2909  1.4255 -0.5821
17431TIP3    H273785   6.270   5.827   3.402 -0.6020 -1.4600  1.4652
17432TIP3   OH273786   5.276   4.583  14.976 -0.3218 -0.3082  0.6452
17432TIP3    H173787   5.211   4.651  14.960 -1.9529 -2.0454 -0.5000
17432TIP3    H273788   5.265   4.560  15.069 -1.2597 -0.4754  0.5013
17433TIP3   OH273789   0.556   4.206  15.161  0.1964 -0.6002  0.1251
17433TIP3    H173790   0.601   4.280  15.201 -1.8446  0.9723 -0.3024
17433TIP3    H273791   0.493   4.178  15.227 -0.8955 -0.1495 -0.6856
17434TIP3   OH273792   5.499   4.960   0.810  0.2304  0.3294  0.2500
17434TIP3    H173793   5.569   4.981   0.872  1.8289 -1.1965 -0.9602
17434TIP3    H273794   5.420   4.958   0.864  1.5204 -0.6943  2.2167
17435TIP3   OH273795   3.801   1.980  16.225  0.1591  0.7299  0.1104
17435TIP3    H173796   3.793   2.031  16.144  2.1525  1.0459  0.0801
17435TIP3    H273797   3.763   1.895  16.202 -0.5399  1.2351 -0.7212
17436TIP3   OH273798   3.079   3.009  16.643  0.4897  0.3292 -0.6095
17436TIP3    H173799   3.147   2.993  16.578  0.3824 -0.2880 -0.5736
17436TIP3    H273800   3.122   2.994  16.727  0.4690  0.5288 -0.5632
17437TIP3   OH273801   6.452   2.737   3.814  0.3751 -0.0766  0.1275
17437TIP3    H173802   6.465   2.675   3.887  1.1526 -0.0526  0.0115
17437TIP3    H273803   6.392   2.691   3.755 -1.3036  0.4117  1.3806
17438TIP3   OH273804   4.974   5.390   0.293  0.1524  0.0041  0.3484
17438TIP3    H173805   4.899   5.335   0.316  1.1301 -1.2695  0.5856
17438TIP3    H273806   5.011   5.417   0.377 -0.6577  1.5706  0.2480
17439TIP3   OH273807   1.283   4.096   5.969 -0.7188 -0.3161  0.0476
17439TIP3    H173808   1.271   4.007   6.003  1.2381 -0.6063  0.0690
17439TIP3    H273809   1.219   4.149   6.017 -1.2980 -1.5513  0.6808
17440TIP3   OH273810   1.746   3.645   1.823 -0.0427  0.5454  0.6893
17440TIP3    H173811   1.674   3.582   1.824 -0.8696  1.4741  1.1050
17440TIP3    H273812   1.740   3.690   1.907  2.4492 -0.8866  1.7744
17441TIP3   OH273813   1.050   1.520  11.070  0.5605 -0.2557  0.5333
17441TIP3    H173814   1.008   1.447  11.024  0.2985  0.3601 -0.2337
17441TIP3    H273815   1.066   1.487  11.158  1.0964 -1.4850  0.0028
17442TIP3   OH273816   0.799   4.683  16.047  0.0876 -0.4243  0.0546
17442TIP3    H173817   0.776   4.593  16.072 -0.3503 -0.1270  0.7578
17442TIP3    H273818   0.715   4.724  16.028  0.1808  0.1549  0.8426
17443TIP3   OH273819   3.461   0.708  11.701  0.1562 -0.8620  0.2333
17443TIP3    H173820   3.391   0.764  11.735  0.3704  0.1243 -0.8534
17443TIP3    H273821   3.429   0.619  11.713 -0.6650 -0.4761  1.0423
17444TIP3   OH273822   2.728   2.041  12.762 -0.1807  0.2071 -0.4298
17444TIP3    H173823   2.752   2.122  12.718  0.3822  0.4139  0.2447
17444TIP3    H273824   2.719   1.977  12.692  3.9218 -0.3128 -0.6909
17445TIP3   OH273825   5.916   4.386  13.188 -0.3076  0.3410 -0.7004
17445TIP3    H173826   5.872   4.389  13.103 -0.2590  1.0704 -0.6998
17445TIP3    H273827   5.867   4.448  13.242 -0.3876 -0.1770 -0.1688
17446TIP3   OH273828   1.178   6.459  12.527  1.0374  0.4881 -0.0872
17446TIP3    H173829   1.241   6.435  12.460  0.1639  0.9695 -1.1115
17446TIP3    H273830   1.227   6.511  12.590  1.9943 -0.4463 -0.0347
17447TIP3   OH273831   3.056   6.688   0.113 -0.2802 -0.8593 -0.4905
17447TIP3    H173832   3.117   6.634   0.164  1.7930  0.1630 -1.7571
17447TIP3    H273833   2.973   6.640   0.117 -0.1783 -1.0836  3.3860
17448TIP3   OH273834   5.846   4.801   4.881  0.0647  0.3521 -0.0652
17448TIP3    H173835   5.817   4.711   4.893  2.8993 -0.5316  0.9689
17448TIP3    H273836   5.908   4.797   4.808 -1.8705  2.0724 -1.9453
17449TIP3   OH273837   3.735   3.891   3.822  0.1302  0.4549  0.0767
17449TIP3    H173838   3.682   3.821   3.783  0.4350  0.5931 -0.6043
17449TIP3    H273839   3.808   3.902   3.761 -0.7273  2.4468 -0.6783
17450TIP3   OH273840   6.755   5.442   5.325 -0.2425 -0.5538  0.2074
17450TIP3    H173841   6.743   5.349   5.344  1.0701 -0.4238  1.8650
17450TIP3    H273842   6.670   5.471   5.293 -1.7144 -1.5712  2.9152
17451TIP3   OH273843   2.158   6.185  10.871 -0.0555 -0.0993  0.3249
17451TIP3    H173844   2.211   6.263  10.887  0.6655 -0.3911 -0.5999
17451TIP3    H273845   2.131   6.193  10.780 -1.7571  0.1149  0.7975
17452TIP3   OH273846   4.621   5.945  12.384  0.6408 -0.0588  0.0901
17452TIP3    H173847   4.534   5.982  12.399  0.2014  0.0566 -2.3769
17452TIP3    H273848   4.608   5.851  12.384  0.0180 -0.0446 -2.4062
17453TIP3   OH273849   5.040   5.196  15.792  0.3306 -0.3138 -0.7618
17453TIP3    H173850   5.020   5.164  15.704 -1.2558  2.0817 -1.4019
17453TIP3    H273851   5.095   5.273  15.777  0.4376 -0.1652  0.3548
17454TIP3   OH273852   5.182   1.268  15.283 -1.1822  0.3758  0.0076
17454TIP3    H173853   5.184   1.180  15.244 -2.5456 -0.3845  1.5247
17454TIP3    H273854   5.089   1.291  15.285 -1.0456  0.8813  1.6652
17455TIP3   OH273855   0.066   4.477  13.277 -0.3521 -0.3114  0.0609
17455TIP3    H173856   0.150   4.438  13.300 -0.9649 -0.9156  1.3874
17455TIP3    H273857   0.011   4.403  13.251 -0.7938 -0.0486  0.2303
17456TIP3   OH273858   3.362   5.757  14.937 -0.6436  0.2420 -0.3279
17456TIP3    H173859   3.366   5.662  14.935 -0.7080  0.2203  0.3770
17456TIP3    H273860   3.452   5.786  14.927 -0.6791  0.1174 -1.0126
17457TIP3   OH273861   0.673   1.565  13.404  0.5195 -0.2519 -0.2653
17457TIP3    H173862   0.736   1.633  13.382 -0.6776  1.6563  1.7024
17457TIP3    H273863   0.593   1.613  13.426 -1.0634 -2.4582 -0.8784
17458TIP3   OH273864   3.611   2.047   5.104 -0.1355  0.1474  0.1157
17458TIP3    H173865   3.552   2.002   5.165 -0.5902  0.4451 -0.1049
17458TIP3    H273866   3.557   2.112   5.060  0.1716 -0.1011 -0.6551
17459TIP3   OH273867   5.971   6.660   4.118 -0.2114 -0.3181  0.2483
17459TIP3    H173868   5.893   6.714   4.132 -0.7449 -0.8173 -0.7086
17459TIP3    H273869   6.007   6.647   4.205 -0.2461  1.3140  0.5447
17460TIP3   OH273870   1.794   0.119  13.870  0.1842 -0.3759 -0.2759
17460TIP3    H173871   1.773   0.034  13.830 -0.9545 -0.8312  1.1958
17460TIP3    H273872   1.710   0.165  13.873  0.9295  1.1401 -1.7536
17461TIP3   OH273873   2.455   1.809  14.382  0.9130 -0.3158 -0.0866
17461TIP3    H173874   2.382   1.765  14.425 -0.2570 -0.0400 -1.6910
17461TIP3    H273875   2.466   1.762  14.299  0.0698  1.9122 -1.5444
17462TIP3   OH273876   3.590   0.404   4.422 -0.2318  0.5417  0.0426
17462TIP3    H173877   3.682   0.417   4.446 -0.5156 -0.1335  1.5766
17462TIP3    H273878   3.581   0.309   4.415 -0.8118  0.6082 -0.1366
17463TIP3   OH273879   6.191   4.893  11.999  0.1269 -0.1533  0.0904
17463TIP3    H173880   6.145   4.887  12.083  0.4097  0.4768  0.2982
17463TIP3    H273881   6.283   4.893  12.023  0.6007 -5.3055 -0.4819
17464TIP3   OH273882   1.266   5.504   6.242 -0.1363  0.8251 -0.2366
17464TIP3    H173883   1.348   5.555   6.240  1.1257 -1.0619  0.1626
17464TIP3    H273884   1.205   5.554   6.188  1.9562  1.2367 -2.3977
17465TIP3   OH273885   3.260   5.306   3.421  0.4089 -0.2642 -0.0323
17465TIP3    H173886   3.177   5.259   3.430  0.7675 -0.8511  0.3005
17465TIP3    H273887   3.255   5.348   3.335 -0.1823 -0.3893 -0.0640
17466TIP3   OH273888   6.106   5.228  13.291  0.0046 -0.3405  0.4834
17466TIP3    H173889   6.094   5.261  13.380 -0.5007 -1.5095  0.8663
17466TIP3    H273890   6.049   5.283  13.237  0.4285  0.4750  0.8438
17467TIP3   OH273891   6.281   5.108   2.124 -0.5442  0.2471  0.3816
17467TIP3    H173892   6.330   5.047   2.180  0.6318  0.8776  0.0773
17467TIP3    H273893   6.308   5.195   2.154 -0.4320  0.5991 -0.7072
17468TIP3   OH273894   6.374   3.340  12.047  0.3146  0.1278 -0.6289
17468TIP3    H173895   6.286   3.363  12.018  0.5124  0.1905 -1.1925
17468TIP3    H273896   6.409   3.286  11.977  0.1494 -1.2715  0.3217
17469TIP3   OH273897   4.391   6.605   2.866 -0.0916 -0.1971  0.4179
17469TIP3    H173898   4.347   6.547   2.804  0.8259 -0.6431  0.1813
17469TIP3    H273899   4.383   6.561   2.951 -1.3874  0.4348  0.6669
17470TIP3   OH273900   0.676   1.881  14.817 -0.4630  0.5593  0.0655
17470TIP3    H173901   0.734   1.947  14.779 -0.2221  0.0448 -0.4868
17470TIP3    H273902   0.649   1.917  14.901 -0.6127  1.5070 -0.3850
17471TIP3   OH273903   6.251   0.645  14.131  0.4307  0.2631 -0.0477
17471TIP3    H173904   6.185   0.700  14.173 -1.3575 -1.3163 -0.6372
17471TIP3    H273905   6.236   0.558  14.167  0.1020 -0.7460 -2.4648
17472TIP3   OH273906   0.959   0.994  16.276  0.2752 -0.3837 -0.5372
17472TIP3    H173907   1.042   1.022  16.314 -0.6461  0.5147  0.9188
17472TIP3    H273908   0.901   0.982  16.351 -1.3393  0.4501 -1.5859
17473TIP3   OH273909   6.040   0.002  15.641  0.0367  0.4741  0.5586
17473TIP3    H173910   6.080   0.051  15.568  3.3734 -2.0179  0.4666
17473TIP3    H273911   6.086   0.035  15.719  1.7199 -1.6977  0.5844
17474TIP3   OH273912   5.422   5.884  15.371 -0.6194  0.6865 -0.0774
17474TIP3    H173913   5.451   5.963  15.416  0.7221  0.3058 -0.2480
17474TIP3    H273914   5.327   5.880  15.389 -0.3316  1.1379  1.7822
17475TIP3   OH273915   0.943   5.847   3.095  0.4723 -0.4783  0.5816
17475TIP3    H173916   1.022   5.843   3.041 -0.2378 -2.3968 -0.3830
17475TIP3    H273917   0.933   5.940   3.116  2.5719 -0.1057  0.1388
17476TIP3   OH273918   0.104   0.337   1.938  0.5614  0.6498 -0.4040
17476TIP3    H173919   0.032   0.367   1.995  1.2237  0.8213  0.3585
17476TIP3    H273920   0.099   0.393   1.861  0.8744  1.7601  0.3645
17477TIP3   OH273921   6.682   0.938  13.297  0.5154  0.3650  0.4463
17477TIP3    H173922   6.611   0.874  13.308 -0.2464  1.2944  1.0694
17477TIP3    H273923   6.683   0.958  13.204 -0.7489  1.1181  0.5777
17478TIP3   OH273924   2.316   5.360  12.253 -0.2236 -0.3364  0.2967
17478TIP3    H173925   2.253   5.301  12.295  0.9431 -0.8144  1.4503
17478TIP3    H273926   2.304   5.345  12.159 -2.1251 -0.0677  0.4592
17479TIP3   OH273927   6.808   2.445   3.147  0.4111 -0.3346 -0.5351
17479TIP3    H173928   6.807   2.494   3.065  1.7908 -0.8075 -0.8483
17479TIP3    H273929   6.780   2.357   3.123 -0.3718 -0.1737 -0.2666
17480TIP3   OH273930   1.413   4.342   2.750  0.0637  0.3058 -0.3247
17480TIP3    H173931   1.420   4.394   2.670 -1.4635 -1.4202 -1.6772
17480TIP3    H273932   1.323   4.358   2.781 -0.9966 -2.4967 -1.6134
17481TIP3   OH273933   2.394   4.724  15.413  0.6162 -0.0692  0.0468
17481TIP3    H173934   2.470   4.772  15.445  0.4482  0.8944 -0.9136
17481TIP3    H273935   2.397   4.640  15.458  1.6194  0.3782  0.8521
17482TIP3   OH273936   0.832   3.151  16.814 -0.3043  0.5309 -0.2449
17482TIP3    H173937   0.787   3.088  16.870 -0.3170  0.4908 -0.3008
17482TIP3    H273938   0.910   3.176  16.863 -0.3919  0.6069 -0.1455
17483TIP3   OH273939   3.335   3.222   3.707  0.5976  0.1734  0.4040
17483TIP3    H173940   3.272   3.223   3.779  0.3713  1.7761  0.2119
17483TIP3    H273941   3.419   3.199   3.749 -0.2336 -3.3113  0.4682
17484TIP3   OH273942   3.560   1.210   3.873  0.2231 -0.6009  0.2507
17484TIP3    H173943   3.619   1.136   3.861  1.9759  0.7327  0.1435
17484TIP3    H273944   3.474   1.177   3.848  1.5086 -1.5644 -3.6720
17485TIP3   OH273945   3.374   0.513  11.115 -0.1471 -0.4178  0.2591
17485TIP3    H173946   3.394   0.463  11.036 -0.1909 -0.3673  0.2164
17485TIP3    H273947   3.334   0.594  11.083 -1.7345 -1.1073  0.3989
17486TIP3   OH273948   1.622   5.856  16.439 -0.2025 -0.0417 -0.4268
17486TIP3    H173949   1.574   5.936  16.418 -0.1643  0.1195  0.0770
17486TIP3    H273950   1.570   5.786  16.402  0.4179  0.2919 -2.0260
17487TIP3   OH273951   6.449   2.144  16.525 -0.3066 -0.2653  0.2576
17487TIP3    H173952   6.382   2.088  16.564  0.2526 -1.2617 -0.1595
17487TIP3    H273953   6.530   2.117  16.567  0.1535 -0.6600 -0.8287
17488TIP3   OH273954   6.480   4.992   0.676  0.1239 -0.1777  0.2236
17488TIP3    H173955   6.567   5.028   0.697 -0.1480  1.0287 -0.5723
17488TIP3    H273956   6.490   4.898   0.686  1.0605  0.0413  1.8078
17489TIP3   OH273957   5.881   4.875  12.163  0.0116 -0.1147 -0.2990
17489TIP3    H173958   5.801   4.909  12.123 -0.5878 -0.3127  0.6972
17489TIP3    H273959   5.896   4.791  12.119  0.4023  0.4955 -1.3842
17490TIP3   OH273960   3.048   4.780   4.531 -0.4991  0.0675  0.1506
17490TIP3    H173961   2.985   4.712   4.557 -0.9858 -0.2506 -1.6614
17490TIP3    H273962   2.995   4.842   4.480  0.0529  1.5308  1.3097
17491TIP3   OH273963   2.300   4.346  13.206  0.0716  0.1928  0.1188
17491TIP3    H173964   2.222   4.368  13.256  0.5245 -0.4522  1.1344
17491TIP3    H273965   2.372   4.350  13.269  0.4925 -1.7968 -0.1648
17492TIP3   OH273966   4.843   6.825   4.818 -0.0349 -0.0598 -0.0495
17492TIP3    H173967   4.785   6.802   4.745 -0.5449  0.7997  0.0819
17492TIP3    H273968   4.795   6.798   4.896 -0.5060  1.1361  0.0896
17493TIP3   OH273969   1.042   3.666  14.245  0.1207  0.1633 -0.4101
17493TIP3    H173970   1.118   3.610  14.227 -1.3537 -0.9963 -3.6457
17493TIP3    H273971   0.986   3.612  14.301  1.1731  0.7125  1.2854
17494TIP3   OH273972   6.886   1.201  13.377 -0.2250  0.7653  0.3919
17494TIP3    H173973   6.975   1.180  13.405  0.1466 -0.2901 -1.3930
17494TIP3    H273974   6.845   1.243  13.453  0.9724 -1.0225  2.1036
17495TIP3   OH273975   5.170   1.654   5.729 -0.2131  0.2475  0.0884
17495TIP3    H173976   5.204   1.582   5.676 -3.9624 -2.5345  1.1018
17495TIP3    H273977   5.115   1.704   5.669 -1.9123 -1.0153  0.5432
17496TIP3   OH273978   2.640   3.363   0.519 -0.3380 -0.1508  0.4976
17496TIP3    H173979   2.642   3.318   0.604 -1.9166 -1.8590 -0.3016
17496TIP3    H273980   2.616   3.294   0.456  0.2711  1.1818 -1.2715
17497TIP3   OH273981   2.114   0.783  14.311 -0.0810 -0.6576  0.1343
17497TIP3    H173982   2.037   0.726  14.312  0.6909 -1.7668 -0.7254
17497TIP3    H273983   2.189   0.723  14.319  0.8031  0.0985 -1.6649
17498TIP3   OH273984   0.380   4.552   5.906 -0.1117  0.3554 -0.3251
17498TIP3    H173985   0.461   4.546   5.857 -0.7658 -0.5090 -1.3288
17498TIP3    H273986   0.351   4.462   5.918  0.0957  0.5070  1.8197
17499TIP3   OH273987   3.478   5.317  16.570 -0.8570  0.4157  0.0525
17499TIP3    H173988   3.397   5.367  16.575  0.1800  2.0143  1.5368
17499TIP3    H273989   3.494   5.307  16.476 -2.3328  0.7741 -0.2548
17500TIP3   OH273990   2.519   4.516  16.958 -0.1209  0.0321  0.0094
17500TIP3    H173991   2.538   4.607  16.982 -2.4464  0.3746  0.7785
17500TIP3    H273992   2.576   4.464  17.015 -0.7636  0.9913  1.6088
17501TIP3   OH273993   6.784   0.457   5.932 -0.1895  0.4592 -0.2717
17501TIP3    H173994   6.860   0.498   5.975 -1.4622  0.8461  1.7593
17501TIP3    H273995   6.730   0.531   5.905 -0.4570  0.1605 -0.5588
17502TIP3   OH273996   4.823   1.027  13.086 -0.5020 -0.4672  0.7736
17502TIP3    H173997   4.878   1.016  13.164 -0.0480 -0.2375  0.4902
17502TIP3    H273998   4.791   0.939  13.067  0.5024 -0.7628  0.4095
17503TIP3   OH273999   0.201   4.766  15.293 -0.2990 -0.6733  0.3348
17503TIP3    H174000   0.278   4.807  15.255  0.0703 -2.2514 -0.7252
17503TIP3    H274001   0.234   4.717  15.368 -0.5955  0.2306  1.0649
17504TIP3   OH274002   6.706   3.401   5.256  0.0206  0.2848 -0.0989
17504TIP3    H174003   6.727   3.326   5.200  1.7420  0.6592  0.0161
17504TIP3    H274004   6.689   3.362   5.342  1.5900  0.0492  0.1287
17505TIP3   OH274005   4.476   2.099  13.325 -0.0461  0.0413  0.2467
17505TIP3    H174006   4.388   2.076  13.357  0.3660 -0.0558  1.3588
17505TIP3    H274007   4.535   2.052  13.384  0.7593 -0.7543 -1.1585
17506TIP3   OH274008   3.919   4.132   2.400  0.3573 -0.4875 -0.1635
17506TIP3    H174009   3.878   4.077   2.333 -2.0920  0.1018  0.7728
17506TIP3    H274010   3.867   4.212   2.401  2.9108  1.3194 -0.4289
17507TIP3   OH274011   4.208   6.316   5.572  0.1964 -0.8637 -0.5236
17507TIP3    H174012   4.282   6.256   5.573  0.5736 -0.4024  0.0949
17507TIP3    H274013   4.242   6.397   5.609 -0.9000 -1.0146  0.9556
17508TIP3   OH274014   0.953   5.211  11.591 -0.0032  0.0175 -0.3395
17508TIP3    H174015   0.940   5.197  11.497 -1.3136 -0.4204 -0.1068
17508TIP3    H274016   1.021   5.278  11.595 -0.3636  0.5004 -1.6116
17509TIP3   OH274017   5.667   6.087  12.754  0.0374 -0.3931 -0.0438
17509TIP3    H174018   5.746   6.057  12.708 -0.1823  0.4696 -1.0269
17509TIP3    H274019   5.622   6.006  12.778  1.2725 -0.9031  0.6547
17510TIP3   OH274020   4.872   0.080  13.784 -0.0334  0.4076 -0.0814
17510TIP3    H174021   4.903   0.004  13.834 -0.9998  1.0694  1.6132
17510TIP3    H274022   4.874   0.051  13.693  1.1624 -1.0877  0.3698
17511TIP3   OH274023   4.378   2.521   6.012  1.0297 -0.0651  0.2924
17511TIP3    H174024   4.406   2.563   5.930  1.5276 -1.9350 -0.5576
17511TIP3    H274025   4.335   2.591   6.061  1.4635  1.3217 -1.1980
17512TIP3   OH274026   5.119   3.035  10.166 -0.2595  0.2842  0.4368
17512TIP3    H174027   5.199   3.029  10.219 -1.5869  0.7055  2.5969
17512TIP3    H274028   5.055   3.078  10.223 -2.2369 -0.6146 -0.9861
17513TIP3   OH274029   2.015   0.427   1.035 -0.0356 -0.0679  0.1118
17513TIP3    H174030   1.968   0.488   0.977 -0.5710  0.6841  1.2852
17513TIP3    H274031   2.067   0.373   0.976  2.1082  2.8593 -0.9575
17514TIP3   OH274032   4.871   5.241   3.072  0.3258  0.2016 -0.1987
17514TIP3    H174033   4.820   5.183   3.015  1.1200  0.3903 -1.1421
17514TIP3    H274034   4.816   5.254   3.149 -0.8689  0.0731 -1.0034
17515TIP3   OH274035   3.828   6.518   2.290 -0.2244  0.6371 -0.1086
17515TIP3    H174036   3.825   6.614   2.285 -0.0685  0.5879 -1.8542
17515TIP3    H274037   3.741   6.494   2.323 -1.4074  1.3065 -2.4764
17516TIP3   OH274038   3.858   3.263  15.236  0.3259  0.0250  0.5122
17516TIP3    H174039   3.917   3.242  15.165  0.4616 -0.5225  0.7864
17516TIP3    H274040   3.892   3.345  15.272  1.1905 -0.5186  0.9599
17517TIP3   OH274041   4.486   2.464  10.451  0.1187 -0.0131 -0.0798
17517TIP3    H174042   4.423   2.435  10.386 -0.1834 -0.9175  0.5980
17517TIP3    H274043   4.437   2.465  10.533  0.8270 -0.1161  0.3511
17518TIP3   OH274044   4.505   2.539  15.605 -0.0039  0.3606 -0.0112
17518TIP3    H174045   4.427   2.584  15.638  0.6077  0.9087  0.7357
17518TIP3    H274046   4.547   2.505  15.684  0.3457 -0.2055 -0.4423
17519TIP3   OH274047   0.792   3.878   2.328 -0.2830 -0.2425 -0.4014
17519TIP3    H174048   0.726   3.865   2.396 -1.1717  1.9738 -0.7289
17519TIP3    H274049   0.751   3.844   2.248 -0.6134  0.1553 -0.4068
17520TIP3   OH274050   2.288   0.462  15.784 -0.5508  0.6256  0.0609
17520TIP3    H174051   2.351   0.533  15.796  0.2978 -0.1456  0.3140
17520TIP3    H274052   2.268   0.462  15.691 -2.1937  2.5230  0.3542
17521TIP3   OH274053   6.653   6.207  11.593 -0.5815 -0.5159  0.4987
17521TIP3    H174054   6.634   6.157  11.672  1.4520 -0.4877  1.0692
17521TIP3    H274055   6.651   6.143  11.522  0.0053 -1.0153  0.9289
17522TIP3   OH274056   3.222   1.762   4.213  0.2097  0.2955  0.3728
17522TIP3    H174057   3.314   1.737   4.213  0.0824 -0.2438  1.2401
17522TIP3    H274058   3.212   1.817   4.291  0.0938  1.5797 -0.5295
17523TIP3   OH274059   6.366   3.435  14.847 -0.7522  0.2224 -0.3334
17523TIP3    H174060   6.415   3.489  14.909 -0.9296  2.1548 -1.7781
17523TIP3    H274061   6.431   3.373  14.813  0.4845  1.9774 -1.3494
17524TIP3   OH274062   0.501   5.660   5.449 -0.1519 -0.0103 -0.0189
17524TIP3    H174063   0.537   5.728   5.392 -0.0942 -0.4485 -0.5011
17524TIP3    H274064   0.578   5.620   5.490 -0.2241  1.0194  1.2202
17525TIP3   OH274065   2.612   6.377   5.170 -0.2666  0.2999  0.0308
17525TIP3    H174066   2.638   6.426   5.093 -1.2784  2.5999  1.0615
17525TIP3    H274067   2.563   6.440   5.224  0.3151 -1.2059  2.5129
17526TIP3   OH274068   3.368   6.354   4.357 -0.1889 -0.1415 -0.0985
17526TIP3    H174069   3.444   6.412   4.345 -0.0700  0.0775  1.5327
17526TIP3    H274070   3.407   6.268   4.371 -0.0982  0.2789  2.6447
17527TIP3   OH274071   5.458   3.599  11.612 -0.1011 -0.5195 -0.6997
17527TIP3    H174072   5.450   3.555  11.527 -1.1017 -0.8627 -0.4369
17527TIP3    H274073   5.398   3.552  11.669  1.7754 -1.3700  0.6705
17528TIP3   OH274074   5.968   2.901  12.220  0.1173 -0.0410 -0.0387
17528TIP3    H174075   6.047   2.877  12.171 -0.8660  0.0200 -1.7347
17528TIP3    H274076   5.986   2.874  12.309  1.3941 -1.5798 -0.7187
17529TIP3   OH274077   4.300   3.817  11.632  0.5274 -0.0122 -0.1242
17529TIP3    H174078   4.225   3.833  11.690  0.9000 -0.5056  0.5020
17529TIP3    H274079   4.288   3.727  11.601  0.1982  0.3353 -1.0140
17530TIP3   OH274080   2.763   3.265   0.183  0.0928 -0.5046 -0.2034
17530TIP3    H174081   2.724   3.343   0.143  2.7953  1.1639  0.2203
17530TIP3    H274082   2.806   3.297   0.262 -1.6361 -3.0761  1.9725
17531TIP3   OH274083   2.649   6.367   5.871 -0.0151 -0.2857 -0.1372
17531TIP3    H174084   2.718   6.326   5.922  0.7667 -0.1845 -1.0910
17531TIP3    H274085   2.689   6.447   5.837  0.4518 -1.7222 -3.2345
17532TIP3   OH274086   1.867   5.157   4.144  0.2276  0.2335  0.1999
17532TIP3    H174087   1.871   5.124   4.055  0.9222 -2.5428  1.1480
17532TIP3    H274088   1.958   5.157   4.174  0.1439  2.2255  0.5961
17533TIP3   OH274089   0.466   5.639  11.310  0.1264  0.2754 -0.2208
17533TIP3    H174090   0.488   5.559  11.358 -1.0432  0.4222  0.6267
17533TIP3    H274091   0.547   5.666  11.267  0.1982 -2.2186 -1.8268
17534TIP3   OH274092   5.440   2.909  14.280  0.1648 -0.3860  0.2026
17534TIP3    H174093   5.535   2.913  14.276  0.1404 -0.1870 -0.1795
17534TIP3    H274094   5.417   2.962  14.357  0.2140  1.7983 -1.2083
17535TIP3   OH274095   2.835   6.461  11.525 -0.0844  0.3600  0.1085
17535TIP3    H174096   2.880   6.532  11.480  1.1601 -0.6459 -0.3120
17535TIP3    H274097   2.752   6.450  11.477  1.0136 -0.3986 -1.7245
17536TIP3   OH274098   3.581   1.904   2.465  0.0149  0.2046  0.7602
17536TIP3    H174099   3.615   1.823   2.503 -1.4557  0.1125  2.0051
17536TIP3    H274100   3.492   1.882   2.438  0.6278  0.5930 -1.7986
17537TIP3   OH274101   2.837   6.369   1.146  0.2126  0.4722  0.0723
17537TIP3    H174102   2.783   6.291   1.131 -0.4305  0.7574  0.8447
17537TIP3    H274103   2.814   6.427   1.073 -1.8256  1.2761  1.2782
17538TIP3   OH274104   3.108   6.278   3.415  0.1906  0.3002  0.2278
17538TIP3    H174105   3.058   6.199   3.434  0.4163  0.0325 -0.2832
17538TIP3    H274106   3.132   6.312   3.502  0.8531 -0.6893  0.4557
17539TIP3   OH274107   5.006   2.536  13.552 -0.1650 -0.3102  0.5767
17539TIP3    H174108   5.039   2.577  13.633 -4.2951  0.3639  2.1275
17539TIP3    H274109   4.978   2.610  13.498  0.8604 -0.8473 -0.7461
17540TIP3   OH274110   2.137   5.690   3.024 -0.1605  0.6182 -0.2844
17540TIP3    H174111   2.086   5.731   3.094  0.6058  1.0690  0.0240
17540TIP3    H274112   2.171   5.764   2.973  0.1970  0.3293 -0.4670
17541TIP3   OH274113   1.731   6.525  15.573  0.7144 -0.3724 -0.2757
17541TIP3    H174114   1.677   6.559  15.645  1.7534  0.4124  0.1504
17541TIP3    H274115   1.667   6.495  15.508 -0.2584  1.0963 -0.0495
17542TIP3   OH274116   2.175   5.826   4.593 -0.3511  0.1716  0.1568
17542TIP3    H174117   2.246   5.881   4.628  0.9077 -1.3339  0.1098
17542TIP3    H274118   2.118   5.887   4.546  0.8707  1.4568  0.2694
17543TIP3   OH274119   3.890   3.886  13.585 -1.0787 -0.2700 -0.0413
17543TIP3    H174120   3.941   3.919  13.659 -1.5080  0.1583  0.0675
17543TIP3    H274121   3.810   3.938  13.586 -0.6758  0.4306 -1.4086
17544TIP3   OH274122   5.398   6.530  15.458 -0.1815 -0.4444  0.5421
17544TIP3    H174123   5.437   6.568  15.537 -0.1517 -0.5218  0.5652
17544TIP3    H274124   5.458   6.555  15.388  0.2002 -1.0093  0.6543
17545TIP3   OH274125   6.198   2.766  12.803  0.0273  0.0467 -0.1531
17545TIP3    H174126   6.175   2.696  12.863 -0.1269  0.9551  0.8818
17545TIP3    H274127   6.166   2.736  12.718  1.3931 -1.8365 -0.0730
17546TIP3   OH274128   0.184   2.711  16.620  0.3485  0.4551  0.2682
17546TIP3    H174129   0.237   2.726  16.698 -0.2284 -1.1433  1.0119
17546TIP3    H274130   0.235   2.649  16.567 -0.1780 -0.0880  0.3823
17547TIP3   OH274131   0.399   1.021  15.433  0.1057  0.0047  0.1798
17547TIP3    H174132   0.486   1.035  15.394  0.5927 -0.2970  1.1206
17547TIP3    H274133   0.400   1.075  15.513 -1.9402  3.0175 -1.5981
17548TIP3   OH274134   4.702   0.264   2.956  0.4863 -0.4337 -0.3290
17548TIP3    H174135   4.683   0.278   2.863  1.4111 -0.7937 -0.5834
17548TIP3    H274136   4.795   0.286   2.965  0.3402 -0.1268  0.5755
17549TIP3   OH274137   2.398   1.044  11.990 -0.5112 -0.4560  0.2765
17549TIP3    H174138   2.343   0.971  11.961  1.1390 -1.1356 -1.2923
17549TIP3    H274139   2.422   1.090  11.909  0.0689  0.6708  1.0597
17550TIP3   OH274140   5.149   6.077   1.670 -0.1696 -0.4603  0.5693
17550TIP3    H174141   5.135   5.982   1.671  0.2510 -0.5523 -0.8848
17550TIP3    H274142   5.061   6.114   1.676 -0.5903 -0.9889 -1.6532
17551TIP3   OH274143   1.808   2.416   2.279 -0.0672  0.6984  0.1816
17551TIP3    H174144   1.826   2.497   2.231  1.6152 -0.3472 -1.0746
17551TIP3    H274145   1.803   2.349   2.211 -2.9505 -0.1066  1.0426
17552TIP3   OH274146   4.340   4.747   1.484 -0.3922 -0.1345 -0.5063
17552TIP3    H174147   4.427   4.780   1.464 -0.0170 -0.4903  0.4692
17552TIP3    H274148   4.348   4.652   1.477 -0.1632 -0.3017  1.4970
17553TIP3   OH274149   6.425   1.318   2.316 -0.3395  0.2507  0.3550
17553TIP3    H174150   6.474   1.358   2.388  2.1435 -0.1132 -1.0269
17553TIP3    H274151   6.387   1.392   2.268  1.0558  0.7583 -0.0123
17554TIP3   OH274152   5.675   5.147  12.126  0.1029 -0.2620 -0.6708
17554TIP3    H174153   5.729   5.222  12.152 -0.8458  0.2730 -0.1964
17554TIP3    H274154   5.596   5.155  12.180  1.0487 -3.0890  1.4006
17555TIP3   OH274155   2.111   2.361  12.226 -0.2321 -0.5681  0.6728
17555TIP3    H174156   2.100   2.372  12.132  0.7360  1.7717  0.7682
17555TIP3    H274157   2.030   2.396  12.264  1.0542  2.6792  0.7830
17556TIP3   OH274158   5.563   2.851  16.257 -0.0328  0.5325  0.2329
17556TIP3    H174159   5.503   2.841  16.331 -1.9937 -1.7746 -1.5053
17556TIP3    H274160   5.595   2.763  16.240 -0.7890  0.7176 -2.5461
17557TIP3   OH274161   0.635   5.992   1.453  0.1501 -1.0364 -0.1624
17557TIP3    H174162   0.596   6.079   1.444  0.7915 -0.9859 -4.1330
17557TIP3    H274163   0.704   6.004   1.520 -1.7043  0.6411  1.5834
17558TIP3   OH274164   3.019   5.362   4.341 -0.0875 -0.1036  0.0963
17558TIP3    H174165   2.985   5.347   4.253 -0.9115 -1.6370  0.6406
17558TIP3    H274166   3.008   5.456   4.356 -2.6486 -0.2642 -0.3700
17559TIP3   OH274167   5.495   5.234  11.466  0.4890  0.2643 -0.0257
17559TIP3    H174168   5.413   5.283  11.465 -1.0447 -2.0978 -1.9941
17559TIP3    H274169   5.513   5.219  11.559 -1.4898  0.5331  0.4404
17560TIP3   OH274170   3.247   1.654   2.569  0.0508  0.2070 -0.1687
17560TIP3    H174171   3.257   1.583   2.632  0.6059  1.4480  1.1990
17560TIP3    H274172   3.313   1.636   2.501  0.0120 -0.7041  0.0263
17561TIP3   OH274173   4.297   0.104   2.107  0.1523  0.5756  0.1123
17561TIP3    H174174   4.280   0.134   2.018  1.9098 -0.4055 -0.6160
17561TIP3    H274175   4.263   0.014   2.109  1.0908  0.2033  0.0453
17562TIP3   OH274176   3.480   4.555   3.815  0.1779 -0.7578 -0.0980
17562TIP3    H174177   3.561   4.605   3.828  0.0808 -0.4643 -0.6016
17562TIP3    H274178   3.510   4.465   3.802  0.3609 -0.8150  0.6954
17563TIP3   OH274179   5.169   6.511   0.848  0.2813 -0.0045  0.1212
17563TIP3    H174180   5.169   6.557   0.932  0.1289  0.0954  0.0669
17563TIP3    H274181   5.246   6.454   0.852  1.4491  1.4609 -0.4806
17564TIP3   OH274182   2.610   4.808   5.743  0.0744  0.5460 -0.6112
17564TIP3    H174183   2.689   4.816   5.689  1.2236  1.8371  1.1706
17564TIP3    H274184   2.540   4.842   5.687  1.0102  0.7081 -1.7235
17565TIP3   OH274185   4.071   1.184  16.130  0.1044  0.3021 -0.5134
17565TIP3    H174186   3.988   1.199  16.084  0.4750 -0.0635 -1.3124
17565TIP3    H274187   4.098   1.096  16.102  1.7489  1.1778 -1.8380
17566TIP3   OH274188   0.501   6.441  15.326 -0.4186 -0.3601  0.3644
17566TIP3    H174189   0.542   6.376  15.383  0.6303 -0.1815 -0.1464
17566TIP3    H274190   0.519   6.525  15.367  2.5388  0.0105 -1.3681
17567TIP3   OH274191   2.826   0.431  10.658 -0.2541 -0.0772 -0.1962
17567TIP3    H174192   2.903   0.398  10.612  0.5772  0.3886  0.8173
17567TIP3    H274193   2.808   0.366  10.725 -1.0736 -0.4389 -0.7515
17568TIP3   OH274194   6.294   4.549   4.827  0.1096 -0.0869  0.2418
17568TIP3    H174195   6.363   4.529   4.890  0.9642 -0.7210 -0.8506
17568TIP3    H274196   6.336   4.540   4.741 -1.3385 -0.5528 -0.4685
17569TIP3   OH274197   4.141   5.706   0.692 -0.3562 -0.0305  0.8021
17569TIP3    H174198   4.123   5.684   0.601 -1.0353  1.1749  0.6300
17569TIP3    H274199   4.174   5.796   0.689  0.6475 -0.3414  1.6570
17570TIP3   OH274200   6.370   3.148   4.727  0.0439  0.1680 -0.4190
17570TIP3    H174201   6.445   3.207   4.730 -0.2388  0.4892  1.0112
17570TIP3    H274202   6.312   3.180   4.797 -0.6424 -1.0915 -0.3958
17571TIP3   OH274203   4.080   1.330   6.344  1.1771  0.3866 -0.3063
17571TIP3    H174204   4.116   1.284   6.420 -1.0929 -1.2730 -0.1297
17571TIP3    H274205   4.022   1.396   6.381 -0.9635 -1.2807 -0.4708
17572TIP3   OH274206   0.695   4.461   3.321  0.2085  0.0560 -0.0913
17572TIP3    H174207   0.742   4.466   3.238  1.2661  1.3074  0.5365
17572TIP3    H274208   0.646   4.543   3.326 -1.7078 -1.0080 -0.4978
17573TIP3   OH274209   0.871   6.159  13.857 -0.1015 -0.2858 -0.2436
17573TIP3    H174210   0.786   6.120  13.876 -0.2157 -0.3393 -0.8423
17573TIP3    H274211   0.851   6.236  13.803  0.0656  1.0388  1.5190
17574TIP3   OH274212   2.581   6.221   4.782 -0.0332  0.2994 -0.3707
17574TIP3    H174213   2.653   6.170   4.745  1.0113  1.0763  0.5360
17574TIP3    H274214   2.623   6.294   4.827 -1.1907 -0.4304  2.1301
17575TIP3   OH274215   0.000   1.098   3.016  0.0739 -0.1076  0.3443
17575TIP3    H174216  -0.079   1.078   3.066 -0.2273 -0.4473 -0.2628
17575TIP3    H274217   0.064   1.032   3.046 -0.4646 -1.0748 -0.5608
17576TIP3   OH274218   1.477   0.927   3.681  0.0161 -0.5620 -0.0040
17576TIP3    H174219   1.472   0.879   3.599 -0.4775  0.7314 -0.7690
17576TIP3    H274220   1.443   1.014   3.660 -0.0387 -0.1713  1.5515
17577TIP3   OH274221   1.163   3.911  14.151  0.2833  0.4305 -0.2979
17577TIP3    H174222   1.096   3.946  14.210 -0.9677 -0.2975 -1.2113
17577TIP3    H274223   1.171   3.819  14.177  2.1794  0.8694  0.8743
17578TIP3   OH274224   3.250   2.474   5.299  0.1579  0.5750  0.1461
17578TIP3    H174225   3.224   2.500   5.210  0.3902 -3.6330 -1.3418
17578TIP3    H274226   3.170   2.486   5.351 -1.6210 -1.6230 -1.8612
17579TIP3   OH274227   5.981   2.505   0.838  0.4525 -0.1065  0.0270
17579TIP3    H174228   5.930   2.574   0.795  1.5895 -0.4642 -2.0308
17579TIP3    H274229   5.988   2.534   0.929 -2.3266  0.5321  0.1297
17580TIP3   OH274230   2.460   0.751   1.275  0.9971 -0.8457  0.1124
17580TIP3    H174231   2.369   0.780   1.272  1.8473  2.5098  2.2189
17580TIP3    H274232   2.479   0.723   1.186 -1.5210  0.1833 -0.8351
17581TIP3   OH274233   0.818   6.155   0.315  0.9446 -0.2839 -0.5357
17581TIP3    H174234   0.867   6.228   0.277 -0.2676  0.8766  0.0399
17581TIP3    H274235   0.836   6.081   0.257  1.1407  0.8008 -1.9129
17582TIP3   OH274236   0.630   1.180   0.546 -0.7687  0.8312 -0.0287
17582TIP3    H174237   0.702   1.118   0.560 -0.2797  1.8165  2.3755
17582TIP3    H274238   0.655   1.229   0.468  1.2900  1.2536  0.8373
17583TIP3   OH274239   4.540   5.200  13.955 -0.3539  0.3167 -0.4543
17583TIP3    H174240   4.447   5.188  13.974 -0.2719 -0.5431 -0.5545
17583TIP3    H274241   4.564   5.280  14.003 -1.8831  2.5299 -3.0863
17584TIP3   OH274242   3.934   1.991  12.198 -0.6008  0.0217 -0.4833
17584TIP3    H174243   4.020   2.031  12.208 -0.7197  0.2708 -0.4381
17584TIP3    H274244   3.947   1.921  12.134 -0.2078 -0.4431  0.1068
17585TIP3   OH274245   0.371   4.970  11.305 -0.2087  0.4529  0.6095
17585TIP3    H174246   0.340   4.910  11.373 -0.3078 -0.1198  0.0647
17585TIP3    H274247   0.466   4.973  11.317 -0.1584 -0.1424  0.3762
17586TIP3   OH274248   5.762   0.367   5.086 -0.2571  0.1025  0.6844
17586TIP3    H174249   5.856   0.380   5.100 -0.1479  0.5220 -0.3189
17586TIP3    H274250   5.743   0.281   5.125  1.0971 -1.2314 -1.3799
17587TIP3   OH274251   0.946   2.656  16.815 -0.6257 -0.2813  0.1535
17587TIP3    H174252   0.856   2.677  16.789 -0.7460 -0.5700  0.3343
17587TIP3    H274253   0.936   2.605  16.896 -0.3226 -0.8871 -0.1921
17588TIP3   OH274254   1.543   2.258  15.973  0.0650  0.4151 -0.5116
17588TIP3    H174255   1.476   2.208  16.020  0.7160 -1.3495 -1.3635
17588TIP3    H274256   1.615   2.266  16.036  0.4946 -0.9696 -0.7854
17589TIP3   OH274257   6.427   0.910  11.909  0.5070 -0.1836 -0.6942
17589TIP3    H174258   6.396   0.996  11.936  1.5363  0.2088 -0.7265
17589TIP3    H274259   6.473   0.925  11.826  2.1623 -0.4636  0.1347
17590TIP3   OH274260   5.752   0.662   1.271  0.5205  0.2490 -0.0735
17590TIP3    H174261   5.742   0.569   1.291  0.0912  0.2500 -0.2687
17590TIP3    H274262   5.846   0.678   1.278  0.6304 -0.2666 -0.3186
17591TIP3   OH274263   4.418   2.668  14.641 -0.5038  0.1137 -0.0178
17591TIP3    H174264   4.382   2.736  14.698  2.7708  1.8780  0.1829
17591TIP3    H274265   4.372   2.679  14.558 -0.0803  2.6510  0.0195
17592TIP3   OH274266   6.132   1.582  14.205  0.4943 -0.0870  0.1990
17592TIP3    H174267   6.058   1.535  14.244  1.2681 -1.8898 -0.3723
17592TIP3    H274268   6.197   1.514  14.189  3.3719  1.7713  2.9662
17593TIP3   OH274269   0.762   6.301   1.224 -0.1911 -0.2610  0.0134
17593TIP3    H174270   0.705   6.317   1.149 -1.0086 -3.2125 -0.1077
17593TIP3    H274271   0.824   6.235   1.193  0.3038 -0.5423  1.5437
17594TIP3   OH274272   4.625   5.770  11.509  0.5319 -0.1196  0.0343
17594TIP3    H174273   4.684   5.828  11.558  0.6796 -0.6599  0.5101
17594TIP3    H274274   4.546   5.822  11.496  0.8446  0.3597  0.0320
17595TIP3   OH274275   3.603   0.501   5.338  0.6119  0.0722  0.2052
17595TIP3    H174276   3.597   0.530   5.429  0.1355 -0.1478  0.2452
17595TIP3    H274277   3.683   0.448   5.335  0.7652  0.2851  0.4349
17596TIP3   OH274278   0.335   0.998   4.122 -0.0653  0.3004 -0.0818
17596TIP3    H174279   0.330   0.903   4.117 -0.4502  0.2724  0.6009
17596TIP3    H274280   0.281   1.020   4.198  1.0213  0.9702  0.5114
17597TIP3   OH274281   0.317   3.472  11.482  0.2743  0.3401  0.0512
17597TIP3    H174282   0.404   3.493  11.448  0.1778  0.5785 -0.0512
17597TIP3    H274283   0.264   3.548  11.460  0.6670  1.3834  2.4218
17598TIP3   OH274284   0.438   2.796  14.664 -0.4013  0.0570  0.7077
17598TIP3    H174285   0.510   2.847  14.700  0.7436 -0.3159 -0.9372
17598TIP3    H274286   0.459   2.706  14.687  0.4173 -0.2026 -0.8932
17599TIP3   OH274287   5.627   4.019  16.540 -0.2491 -0.0683 -0.2350
17599TIP3    H174288   5.614   4.071  16.619  1.0062 -0.6436  0.3845
17599TIP3    H274289   5.634   3.929  16.572  0.6976 -0.2608 -0.9589
17600TIP3   OH274290   5.750   3.842  15.107 -0.0560  0.0079 -0.9942
17600TIP3    H174291   5.659   3.870  15.104 -0.1893 -0.3273 -0.0959
17600TIP3    H274292   5.760   3.799  15.191  0.4052 -1.8165 -1.9283
17601TIP3   OH274293   3.442   3.146  12.079  0.0346  0.5205  0.6426
17601TIP3    H174294   3.461   3.217  12.018 -1.2950  0.7875  0.5142
17601TIP3    H274295   3.490   3.169  12.159 -1.3047  2.1871  1.0106
17602TIP3   OH274296   3.172   2.770   4.640 -0.2943 -0.2012  0.6642
17602TIP3    H174297   3.211   2.717   4.709  0.1488  0.4310  0.9138
17602TIP3    H274298   3.185   2.860   4.669 -0.6726  0.0569  0.0573
17603TIP3   OH274299   6.414   6.129  16.572 -0.1713  0.3921  0.1759
17603TIP3    H174300   6.495   6.178  16.561  0.3592 -0.1274  1.5183
17603TIP3    H274301   6.408   6.112  16.666 -1.3333 -0.4340 -0.0134
17604TIP3   OH274302   3.489   5.662   4.218 -0.3227  0.6794  0.1267
17604TIP3    H174303   3.478   5.578   4.262  1.2560  0.1989 -0.3159
17604TIP3    H274304   3.473   5.727   4.287  1.5513 -0.0471  1.3346
17605TIP3   OH274305   5.812   4.391  14.327 -0.3554  0.0977 -0.2303
17605TIP3    H174306   5.846   4.480  14.335 -1.3734  0.5404 -0.6711
17605TIP3    H274307   5.858   4.354  14.252  0.8750 -0.1455  0.6123
17606TIP3   OH274308   2.525   6.296  14.967  0.3635 -0.8447  0.2056
17606TIP3    H174309   2.486   6.267  14.884 -0.7518  0.1554  0.3445
17606TIP3    H274310   2.470   6.256  15.034 -0.9895  1.1623  0.4012
17607TIP3   OH274311   0.756   0.129   2.815  0.5573  0.5900  0.4997
17607TIP3    H174312   0.833   0.084   2.780  1.3645  2.9383 -1.0004
17607TIP3    H274313   0.705   0.153   2.738  0.0225  1.9245  1.2418
17608TIP3   OH274314   0.816   5.289  12.292 -0.3370  0.5156  0.0734
17608TIP3    H174315   0.788   5.254  12.208  2.4008  0.2362 -0.8291
17608TIP3    H274316   0.861   5.216  12.335  1.1291  1.5181  0.3144
17609TIP3   OH274317   5.304   6.037  16.656  0.2300 -0.0378 -0.8301
17609TIP3    H174318   5.222   6.028  16.607  0.5307  0.4408 -1.4322
17609TIP3    H274319   5.350   5.955  16.640  0.4154  0.1968 -1.5271
17610TIP3   OH274320   1.669   3.361  11.660 -0.0233 -0.4093 -0.0534
17610TIP3    H174321   1.738   3.419  11.694  0.5699 -1.5592  0.7870
17610TIP3    H274322   1.679   3.366  11.565  0.3458  0.4719  0.0188
17611TIP3   OH274323   6.486   0.665   2.452 -0.2536 -0.0156  0.1891
17611TIP3    H174324   6.423   0.598   2.423  0.1312 -0.4802  0.4145
17611TIP3    H274325   6.477   0.735   2.388 -1.2859  0.0943  0.4299
17612TIP3   OH274326   2.742   1.627  14.630 -0.0416  0.3767  0.0288
17612TIP3    H174327   2.758   1.533  14.619 -0.2370  0.4835 -1.4694
17612TIP3    H274328   2.773   1.647  14.718  1.4669 -0.7888 -0.1879
17613TIP3   OH274329   5.161   3.407   0.295 -0.3589  0.6096  0.2611
17613TIP3    H174330   5.176   3.315   0.319 -0.4199  0.4890 -0.1415
17613TIP3    H274331   5.248   3.443   0.281 -0.3472  0.4926  0.0097
17614TIP3   OH274332   5.346   6.819  14.023 -0.0721  0.5064  0.0116
17614TIP3    H174333   5.289   6.896  14.026 -0.9974 -0.2006  0.8285
17614TIP3    H274334   5.287   6.744  14.026  0.8855 -0.3774  5.0626
17615TIP3   OH274335   0.275   1.613   2.119  0.1069 -0.1362 -0.0365
17615TIP3    H174336   0.283   1.547   2.189 -1.3103  1.2304  1.5179
17615TIP3    H274337   0.237   1.565   2.045  1.7287 -1.6504  0.0376
17616TIP3   OH274338   6.717   6.847  15.738  0.4346 -0.2093 -0.1422
17616TIP3    H174339   6.680   6.821  15.653 -1.6293 -1.1438  0.9554
17616TIP3    H274340   6.743   6.764  15.778 -0.7321 -0.0532  1.0180
17617TIP3   OH274341   6.784   4.263  13.245 -0.0273  0.0674 -0.1570
17617TIP3    H174342   6.780   4.223  13.332 -6.0672 -2.2873 -1.0053
17617TIP3    H274343   6.788   4.189  13.185 -1.2209  1.2859 -1.8190
17618TIP3   OH274344   4.714   4.930   5.236 -0.9196 -0.2548  0.2469
17618TIP3    H174345   4.641   4.973   5.282 -0.1180  0.8482  0.5154
17618TIP3    H274346   4.789   4.986   5.253 -0.2133 -0.8357 -0.8839
17619TIP3   OH274347   6.337   5.992  10.905  0.0726 -1.0108  0.4945
17619TIP3    H174348   6.358   6.006  10.813 -0.1587 -0.9603  0.4492
17619TIP3    H274349   6.419   5.963  10.945  1.6577  3.6964  1.3399
17620TIP3   OH274350   4.345   4.060   4.090 -0.0160 -0.3331  0.2026
17620TIP3    H174351   4.365   4.080   4.181 -0.3298 -1.0461  0.4322
17620TIP3    H274352   4.293   4.135   4.060 -0.0016 -0.1462  0.6397
17621TIP3   OH274353   0.052   5.401  11.721  0.4519 -0.8893  0.3712
17621TIP3    H174354   0.048   5.318  11.769  0.6684  0.2558  2.4970
17621TIP3    H274355   0.046   5.468  11.789  0.7628  0.8542 -1.2425
17622TIP3   OH274356   5.956   4.842  10.493  0.4635  0.0468 -0.1666
17622TIP3    H174357   6.048   4.815  10.489  0.8136  1.0430  0.6861
17622TIP3    H274358   5.911   4.782  10.434  1.6616 -0.4557 -0.6070
17623TIP3   OH274359   5.645   4.516  14.654 -0.6205 -0.0549 -0.5813
17623TIP3    H174360   5.709   4.461  14.699  0.4590 -0.5216 -2.5756
17623TIP3    H274361   5.689   4.600  14.641 -0.1382 -0.5758 -2.5038
17624TIP3   OH274362   2.471   5.220   4.361 -0.3419  0.4254 -0.1730
17624TIP3    H174363   2.483   5.257   4.274  2.7635  0.3755  0.1205
17624TIP3    H274364   2.509   5.284   4.421  1.3504 -1.3026  0.7140
17625TIP3   OH274365   3.591   4.383   3.385 -0.0875  0.0871  0.1294
17625TIP3    H174366   3.660   4.391   3.452 -0.4889  0.3245  0.5202
17625TIP3    H274367   3.552   4.470   3.382 -0.7242 -0.1932  0.2941
17626TIP3   OH274368   4.046   5.669   4.344 -0.2791 -0.1517  0.0806
17626TIP3    H174369   4.093   5.722   4.407  0.1276  0.4749 -0.7275
17626TIP3    H274370   3.953   5.683   4.364 -0.1772  0.8798 -0.1315
17627TIP3   OH274371   6.030   1.666   4.745 -0.3257  0.0599 -0.2614
17627TIP3    H174372   6.042   1.753   4.784 -0.8926 -0.2364  0.5914
17627TIP3    H274373   5.990   1.614   4.814  1.8892 -1.4963 -0.0546
17628TIP3   OH274374   5.599   3.460   5.313  0.2855 -0.4130 -0.2775
17628TIP3    H174375   5.557   3.375   5.301 -0.9491  0.3311 -1.5536
17628TIP3    H274376   5.631   3.459   5.403  0.3017 -2.2162 -0.2688
17629TIP3   OH274377   3.630   6.418   2.447 -0.1567  0.5022 -0.4061
17629TIP3    H174378   3.619   6.361   2.524 -0.4923 -0.0024 -0.8208
17629TIP3    H274379   3.541   6.438   2.420 -0.0555 -0.3663 -1.4227
17630TIP3   OH274380   1.968   2.548  15.728 -0.1947 -0.2639 -0.4284
17630TIP3    H174381   1.998   2.463  15.759 -1.5867 -1.2943 -1.7340
17630TIP3    H274382   1.993   2.551  15.636 -1.1149  0.2468 -0.6854
17631TIP3   OH274383   0.186   3.065   3.101 -0.4792  0.5746 -0.0737
17631TIP3    H174384   0.197   3.057   3.007 -0.1672 -1.0703  0.0790
17631TIP3    H274385   0.093   3.084   3.113 -1.0223 -1.5348 -0.6316
17632TIP3   OH274386   3.237   0.309  15.815 -0.2939 -0.0391  0.0920
17632TIP3    H174387   3.142   0.307  15.808 -0.1880 -0.9719 -1.3091
17632TIP3    H274388   3.256   0.265  15.898 -1.0028 -1.8231 -0.6492
17633TIP3   OH274389   1.780   3.659  14.558  0.2344 -0.2780  0.2086
17633TIP3    H174390   1.726   3.734  14.584 -0.7268 -0.5292 -1.0186
17633TIP3    H274391   1.842   3.649  14.631 -2.1817 -0.8138  2.3380
17634TIP3   OH274392   6.407   3.794  12.814  0.7458 -0.3213  0.0270
17634TIP3    H174393   6.381   3.886  12.822  0.6403 -0.2744 -0.8187
17634TIP3    H274394   6.458   3.777  12.893 -1.2620 -0.2139  1.4191
17635TIP3   OH274395   2.770   1.704  11.376  0.2793  0.5177 -0.5540
17635TIP3    H174396   2.845   1.715  11.318 -0.1306 -0.1093 -1.2207
17635TIP3    H274397   2.698   1.748  11.331  0.1607  0.7835 -0.1025
17636TIP3   OH274398   1.030   2.821   5.238 -0.5300 -0.0771 -0.0725
17636TIP3    H174399   1.031   2.813   5.334  0.5969 -0.1381 -0.0769
17636TIP3    H274400   1.104   2.878   5.218 -1.0539  0.3359 -0.8877
17637TIP3   OH274401   6.511   2.965   6.429  0.5785  0.2819 -0.2917
17637TIP3    H174402   6.535   3.053   6.455  2.4631 -0.1366 -0.4642
17637TIP3    H274403   6.572   2.908   6.476 -0.5424 -0.9446 -0.2380
17638TIP3   OH274404   3.202   1.017  16.150  0.2597  0.2580  0.1580
17638TIP3    H174405   3.145   0.977  16.215 -0.5389 -2.9466 -2.2684
17638TIP3    H274406   3.290   0.986  16.173  0.1512  0.0965  0.3574
17639TIP3   OH274407   4.954   1.655   3.909 -0.3089  0.4578  0.5958
17639TIP3    H174408   4.913   1.719   3.967 -0.6368 -0.0449  0.9211
17639TIP3    H274409   4.881   1.618   3.859 -0.3823 -1.0069  1.7226
17640TIP3   OH274410   5.048   4.109  15.118 -0.3388 -0.7330  0.1641
17640TIP3    H174411   5.089   4.028  15.148 -0.3622 -0.7262  0.2137
17640TIP3    H274412   5.019   4.152  15.198  0.9856  0.0243  0.2633
17641TIP3   OH274413   3.549   2.141  14.422  0.3579 -0.5633  0.1439
17641TIP3    H174414   3.600   2.132  14.341 -1.1728 -1.0259 -0.8097
17641TIP3    H274415   3.571   2.228  14.455  0.1461  0.1005 -1.3929
17642TIP3   OH274416   1.519   3.866   1.185 -0.1011  0.3757  0.0636
17642TIP3    H174417   1.439   3.853   1.134  1.1634  0.2323 -1.9717
17642TIP3    H274418   1.568   3.785   1.174  0.7414  0.8083  0.5440
17643TIP3   OH274419   6.502   5.164   5.893 -0.4899  0.0924 -0.0131
17643TIP3    H174420   6.519   5.237   5.952  0.0773 -0.0456 -0.0058
17643TIP3    H274421   6.451   5.203   5.821 -1.0261  0.2929  0.4717
17644TIP3   OH274422   0.587   6.542  16.238 -0.1405  0.0943 -0.2835
17644TIP3    H174423   0.494   6.522  16.226 -0.2921  0.0983  0.7360
17644TIP3    H274424   0.622   6.551  16.150 -0.9107 -0.8200 -0.6968
17645TIP3   OH274425   0.153   5.707  12.790  0.3349 -0.2672  0.6664
17645TIP3    H174426   0.148   5.660  12.706  0.6032 -1.9938  1.5769
17645TIP3    H274427   0.185   5.794  12.766 -1.3133 -0.1113 -1.2217
17646TIP3   OH274428   0.097   6.600  14.939 -0.5261  0.1495 -0.3957
17646TIP3    H174429   0.147   6.571  15.015  0.2669  1.1548 -0.5236
17646TIP3    H274430   0.123   6.538  14.870 -0.6788 -0.3034 -0.0568
17647TIP3   OH274431   6.078   4.914   2.498 -0.5432 -0.2289 -0.1947
17647TIP3    H174432   6.003   4.973   2.502  0.3800  1.0401 -1.0936
17647TIP3    H274433   6.084   4.888   2.406 -0.5150 -1.1881  0.0651
17648TIP3   OH274434   6.463   4.689   0.679  0.2427 -0.6016  0.1174
17648TIP3    H174435   6.497   4.600   0.669 -2.1444 -1.8633  2.0763
17648TIP3    H274436   6.484   4.713   0.769 -0.7900  0.0364  0.2029
17649TIP3   OH274437   4.351   5.865   5.423 -0.1759 -0.1493 -0.1674
17649TIP3    H174438   4.272   5.868   5.371 -0.2521 -2.1284 -0.2632
17649TIP3    H274439   4.345   5.782   5.471  0.6527  0.8332  1.7671
17650TIP3   OH274440   1.333   5.803  10.483  0.3962  0.1464 -0.1606
17650TIP3    H174441   1.332   5.897  10.501  1.6383  0.0410  0.6335
17650TIP3    H274442   1.408   5.770  10.533  0.5860 -1.1068 -1.2129
17651TIP3   OH274443   5.529   2.943   3.166  0.2821 -0.0877  0.1857
17651TIP3    H174444   5.481   3.019   3.198  0.9790  0.6229 -0.4240
17651TIP3    H274445   5.562   2.969   3.081  2.3237 -0.2892  0.8580
17652TIP3   OH274446   3.974   4.012   5.058 -0.0639 -0.0883 -0.4573
17652TIP3    H174447   3.986   4.105   5.039  0.4305 -0.2414 -0.8997
17652TIP3    H274448   3.885   3.993   5.028 -1.5877  1.0398  2.8224
17653TIP3   OH274449   6.342   2.788  13.186  0.0316 -0.4994  0.0865
17653TIP3    H174450   6.371   2.745  13.267 -3.0352  1.4991  2.5228
17653TIP3    H274451   6.307   2.717  13.133  2.0667 -1.8725  0.4890
17654TIP3   OH274452   2.756   2.057   4.957 -0.3617  0.9010 -0.0009
17654TIP3    H174453   2.712   2.034   5.039  1.7091  0.0760  0.9350
17654TIP3    H274454   2.792   1.974   4.925  0.1207  1.4686 -0.9829
17655TIP3   OH274455   5.338   5.873   3.329  0.6180 -0.0178 -0.2666
17655TIP3    H174456   5.337   5.927   3.251 -0.4855  0.5108  0.1025
17655TIP3    H274457   5.272   5.806   3.313  1.2038 -0.6148 -0.2566
17656TIP3   OH274458   2.542   3.606  14.055  0.0156 -0.1326 -0.2046
17656TIP3    H174459   2.606   3.603  13.984  3.7778 -0.7050  2.8538
17656TIP3    H274460   2.497   3.522  14.052  1.1123 -0.7025 -1.0894
17657TIP3   OH274461   3.316   2.949   3.736  0.1157 -0.6878  0.2418
17657TIP3    H174462   3.375   2.933   3.809 -0.4786 -0.2368  0.8358
17657TIP3    H274463   3.322   3.044   3.720  0.9892 -0.9179 -0.9561
17658TIP3   OH274464   4.523   3.350   5.626 -0.0665  0.0019  0.5955
17658TIP3    H174465   4.602   3.379   5.672  0.3332  0.3107 -0.2635
17658TIP3    H274466   4.485   3.284   5.684  0.3678  0.4468  1.4106
17659TIP3   OH274467   1.568   4.954   4.277  0.1963 -0.1007  0.0358
17659TIP3    H174468   1.556   4.940   4.184 -2.2967  1.0846  0.0995
17659TIP3    H274469   1.655   4.918   4.296  0.1554 -1.7144 -2.4218
17660TIP3   OH274470   2.998   0.416  14.793 -0.5215 -0.3907 -0.1779
17660TIP3    H174471   3.043   0.337  14.823 -0.2680  0.4508  1.8419
17660TIP3    H274472   3.052   0.449  14.722  0.1751 -1.2240 -0.0491
17661TIP3   OH274473   2.355   0.609  11.736  0.8785  0.4461 -0.2877
17661TIP3    H174474   2.430   0.578  11.686  0.9065  0.3610 -0.1910
17661TIP3    H274475   2.292   0.637  11.669  0.0498 -1.6492 -0.4342
17662TIP3   OH274476   0.495   2.007   2.509  0.3833  0.6495  1.0135
17662TIP3    H174477   0.499   1.924   2.556  0.1642 -0.0379 -0.1255
17662TIP3    H274478   0.411   2.046   2.535 -0.4872 -0.4751  0.0357
17663TIP3   OH274479   1.082   0.579  15.593 -0.6264  0.3971 -0.2584
17663TIP3    H174480   1.075   0.651  15.530 -0.7372 -0.2248 -0.9833
17663TIP3    H274481   1.017   0.515  15.563 -0.7787  0.1472  0.5809
17664TIP3   OH274482   4.786   1.656   0.051  0.6324 -0.3734 -0.5329
17664TIP3    H174483   4.730   1.731   0.035  1.4972  0.6630  1.0746
17664TIP3    H274484   4.875   1.692   0.047  1.0485 -1.2413  0.5756
17665TIP3   OH274485   1.791   5.706  14.559 -0.1852  0.5166  0.3633
17665TIP3    H174486   1.881   5.724  14.587  0.0197  1.5465 -0.8638
17665TIP3    H274487   1.759   5.640  14.621  1.2058  0.5784  1.1832
17666TIP3   OH274488   6.340   5.657  16.717 -0.0156  0.0447  0.0812
17666TIP3    H174489   6.423   5.644  16.671 -0.4661 -0.7669 -0.5335
17666TIP3    H274490   6.303   5.569  16.724  0.0093  0.1477  1.9775
17667TIP3   OH274491   5.964   3.922  13.775 -0.3294  0.4030  0.1483
17667TIP3    H174492   6.017   3.938  13.697  0.7065  1.2116  0.9809
17667TIP3    H274493   5.878   3.896  13.741 -0.0448  1.1822 -1.2551
17668TIP3   OH274494   6.017   5.881   4.411 -0.3110 -0.6716  0.5750
17668TIP3    H174495   6.060   5.827   4.345  0.2250 -0.0136  0.3784
17668TIP3    H274496   6.048   5.847   4.495  1.2098  0.2746  0.4265
17669TIP3   OH274497   6.450   4.973  13.516 -0.5239 -0.2241 -0.2839
17669TIP3    H174498   6.430   5.014  13.432  1.3875  4.4316  1.2014
17669TIP3    H274499   6.539   4.940  13.506  0.1098  1.2865  0.1228
17670TIP3   OH274500   4.115   1.518  16.757  0.0786  0.0671 -0.1198
17670TIP3    H174501   4.037   1.524  16.702  0.5307  1.5555 -0.6687
17670TIP3    H274502   4.111   1.596  16.812  0.1940 -0.8510  1.2256
17671TIP3   OH274503   3.240   0.732  16.320 -0.3770 -0.1389 -0.0257
17671TIP3    H174504   3.193   0.702  16.398  2.4721 -2.9944  0.8282
17671TIP3    H274505   3.324   0.762  16.353  1.1281 -1.9161 -1.9610
17672TIP3   OH274506   2.154   2.340  15.800  0.0085 -0.2594 -0.0852
17672TIP3    H174507   2.188   2.355  15.712  1.7838  2.8424  0.9828
17672TIP3    H274508   2.204   2.264  15.832  0.7892 -0.1857 -1.0728
17673TIP3   OH274509   4.774   2.874  12.462 -0.4808  0.2027  0.4223
17673TIP3    H174510   4.845   2.935  12.486 -0.2413  0.7784 -1.5667
17673TIP3    H274511   4.809   2.787  12.482  1.2082  0.4052 -1.3766
17674TIP3   OH274512   1.477   5.179  15.728  0.0165  0.2647  0.3977
17674TIP3    H174513   1.433   5.095  15.726 -0.7426  0.6678 -0.4634
17674TIP3    H274514   1.571   5.158  15.729 -0.1219 -0.5842 -1.4336
17675TIP3   OH274515   3.874   5.861   1.164 -0.2529  0.5618  0.6595
17675TIP3    H174516   3.878   5.842   1.070  0.1871  0.1654  0.7552
17675TIP3    H274517   3.782   5.850   1.186 -0.2585  0.0231  0.3994
17676TIP3   OH274518   1.461   6.486  11.772  0.0254 -0.2160  0.5278
17676TIP3    H174519   1.469   6.437  11.690 -1.3502  0.1412  0.1484
17676TIP3    H274520   1.498   6.427  11.839 -0.7072 -1.3751 -0.0529
17677TIP3   OH274521   2.058   3.895   3.846 -0.1014 -0.1952  0.4353
17677TIP3    H174522   2.025   3.904   3.935 -0.7753  0.1352  0.1557
17677TIP3    H274523   2.049   3.802   3.825  0.4770 -0.3525  0.8683
17678TIP3   OH274524   1.783   1.465  11.908  0.4208  0.5650 -0.2544
17678TIP3    H174525   1.768   1.559  11.918  1.4138  0.8689 -1.2952
17678TIP3    H274526   1.750   1.444  11.821 -0.2685 -0.1714  0.1718
17679TIP3   OH274527   4.662   3.072   0.271  0.2014  0.2503  0.3268
17679TIP3    H174528   4.691   3.155   0.233 -1.3973  0.5554 -0.2714
17679TIP3    H274529   4.742   3.034   0.307  1.9149 -0.1942 -3.5177
17680TIP3   OH274530   1.825   5.973  10.584 -0.4854 -0.3562  0.1148
17680TIP3    H174531   1.899   6.033  10.573  0.3563 -1.2381  0.7618
17680TIP3    H274532   1.860   5.887  10.562 -1.8682 -0.5436 -1.4897
17681TIP3   OH274533   3.127   4.014   3.401  0.3333  0.1814 -0.1439
17681TIP3    H174534   3.084   4.052   3.478  0.9848 -1.9190  1.3446
17681TIP3    H274535   3.207   4.065   3.391  0.7761 -0.1857  1.2808
17682TIP3   OH274536   4.142   3.592  16.729 -0.3459  0.3357  0.1226
17682TIP3    H174537   4.119   3.673  16.683 -0.6176  0.0886 -0.1810
17682TIP3    H274538   4.142   3.616  16.821  1.0537  1.0562 -0.0297
17683TIP3   OH274539   5.774   1.093  13.898 -0.1026 -0.1772 -0.0434
17683TIP3    H174540   5.784   1.055  13.811  0.6782  1.7082 -0.8234
17683TIP3    H274541   5.863   1.097  13.933 -0.0127  1.7171 -0.3729
17684TIP3   OH274542   1.223   5.172   0.752 -0.4783 -0.0141  0.1172
17684TIP3    H174543   1.284   5.133   0.690 -0.1077  0.3926  0.2198
17684TIP3    H274544   1.235   5.266   0.741 -2.4519  0.1326 -1.2067
17685TIP3   OH274545   2.302   6.423  15.721 -0.4703 -0.8143 -0.2631
17685TIP3    H174546   2.264   6.462  15.800  0.0704  0.1096 -0.4461
17685TIP3    H274547   2.262   6.471  15.649  1.5950  0.7937 -0.4482
17686TIP3   OH274548   5.088   0.145   1.486  0.0608 -0.3475  0.0154
17686TIP3    H174549   5.065   0.229   1.526  0.4423 -0.3427  0.2227
17686TIP3    H274550   5.014   0.088   1.506  0.0630 -0.2276  0.3696
17687TIP3   OH274551   5.600   1.708  14.044 -0.2627  0.1239  0.3737
17687TIP3    H174552   5.586   1.698  14.138  2.0739 -0.8043  0.6829
17687TIP3    H274553   5.695   1.704  14.033 -0.5234 -0.8518 -2.1358
17688TIP3   OH274554   2.380   3.816   3.934  0.1654  0.4760 -0.3005
17688TIP3    H174555   2.408   3.905   3.956 -3.5144  0.8603  4.2095
17688TIP3    H274556   2.434   3.759   3.989 -0.6646  0.3658  0.4156
17689TIP3   OH274557   0.163   6.324   5.491 -0.8064 -0.5735 -0.0109
17689TIP3    H174558   0.177   6.377   5.569 -0.3109  3.6152 -2.6637
17689TIP3    H274559   0.249   6.285   5.473 -0.4742 -0.1235  0.5603
17690TIP3   OH274560   4.049   4.732  16.870  0.1234  0.1585 -0.1988
17690TIP3    H174561   4.124   4.689  16.828  0.8917  1.7545 -0.5515
17690TIP3    H274562   4.068   4.826  16.861 -0.1763  0.6002  2.8192
17691TIP3   OH274563   2.276   1.489  14.235 -0.1370  0.1112  0.2215
17691TIP3    H174564   2.246   1.403  14.206  0.2577 -0.2998  0.9846
17691TIP3    H274565   2.225   1.552  14.183 -0.0616 -0.5785 -0.7102
17692TIP3   OH274566   3.932   4.691  11.678  0.3021 -0.0643  0.0278
17692TIP3    H174567   3.955   4.672  11.586 -0.9619  0.8989 -0.5113
17692TIP3    H274568   3.860   4.631  11.697 -1.4319  1.7371 -0.5970
17693TIP3   OH274569   6.308   2.353   5.166 -0.1990  0.1554 -0.3586
17693TIP3    H174570   6.400   2.378   5.175 -0.0097 -0.2771 -0.9901
17693TIP3    H274571   6.260   2.435   5.169  0.1979  0.3775  0.0814
17694TIP3   OH274572   3.604   5.619  16.042  1.2853  0.1786  0.8566
17694TIP3    H174573   3.646   5.594  16.125  2.8833 -1.7325 -0.4397
17694TIP3    H274574   3.675   5.650  15.987  0.4624  0.1273 -0.2708
17695TIP3   OH274575   5.392   1.552  12.800  0.3420 -0.0989 -0.2258
17695TIP3    H174576   5.394   1.628  12.858  1.2602 -1.8551  2.2531
17695TIP3    H274577   5.476   1.555  12.754  0.4170  0.3569 -0.0661
17696TIP3   OH274578   1.582   6.321  13.671 -0.1580  0.5240 -0.0442
17696TIP3    H174579   1.645   6.334  13.742  2.1164 -2.5610 -1.2424
17696TIP3    H274580   1.547   6.233  13.686 -2.3418  1.2113 -0.8184
17697TIP3   OH274581   0.299   1.480   1.079 -0.4334 -0.3548 -0.0533
17697TIP3    H174582   0.361   1.445   1.015  0.0813  1.8123 -0.8510
17697TIP3    H274583   0.354   1.524   1.144 -1.0585 -0.1735  0.3644
17698TIP3   OH274584   1.933   5.474  15.513 -0.1870  0.0176  0.1046
17698TIP3    H174585   1.993   5.545  15.487  1.1681 -0.8365  0.7774
17698TIP3    H274586   1.895   5.504  15.595  1.3612 -0.5331  1.0657
17699TIP3   OH274587   2.776   2.547   5.338 -1.0940  0.0920 -0.0818
17699TIP3    H174588   2.704   2.485   5.324  0.4172 -1.5777 -0.7810
17699TIP3    H274589   2.801   2.574   5.250 -0.3252  0.0066  0.1076
17700TIP3   OH274590   2.810   2.753   5.505 -0.3631 -0.4257 -1.0022
17700TIP3    H174591   2.848   2.707   5.580  0.4073  0.0874 -1.0656
17700TIP3    H274592   2.793   2.684   5.441 -0.7466 -0.8291 -0.4784
17701TIP3   OH274593   3.287   4.184   1.000 -0.4536  0.5946 -0.6052
17701TIP3    H174594   3.251   4.266   0.964 -1.0052  0.8378  0.4454
17701TIP3    H274595   3.372   4.210   1.036 -0.5346  0.6655 -0.4621
17702TIP3   OH274596   4.449   4.081   3.615 -0.0837 -0.0378  0.1830
17702TIP3    H174597   4.383   4.043   3.672  0.8988 -1.8416  0.1896
17702TIP3    H274598   4.487   4.152   3.666 -0.2567 -0.6564  1.1895
17703TIP3   OH274599   0.524   0.224  14.447  0.0680  0.3001  0.5326
17703TIP3    H174600   0.608   0.184  14.469  0.3541  0.8319  0.4237
17703TIP3    H274601   0.497   0.271  14.526  0.1263  0.5512  0.4068
17704TIP3   OH274602   1.587   4.168  16.299  0.2728  0.0149 -0.0793
17704TIP3    H174603   1.660   4.228  16.287 -1.0428  1.4306 -1.5967
17704TIP3    H274604   1.518   4.222  16.340 -0.5924 -0.7243 -0.5227
17705TIP3   OH274605   2.450   5.594   4.233 -0.1396 -0.1269  0.3078
17705TIP3    H174606   2.409   5.651   4.169  1.1194 -1.0943 -1.4591
17705TIP3    H274607   2.413   5.507   4.215  0.8452 -0.5577  0.3006
17706TIP3   OH274608   4.987   2.326   4.953  0.4588 -0.4665 -0.4379
17706TIP3    H174609   4.932   2.248   4.960 -0.4189  0.2170  0.4411
17706TIP3    H274610   5.064   2.306   5.006  0.3098 -0.7872 -0.3408
17707TIP3   OH274611   4.422   5.701   3.943 -0.0266  0.3537  0.2809
17707TIP3    H174612   4.357   5.675   4.008 -1.9263  0.4895 -1.4632
17707TIP3    H274613   4.445   5.791   3.967 -1.0279  0.5545  0.5372
17708TIP3   OH274614   6.034   6.749   3.112 -0.4212  0.1783  0.0556
17708TIP3    H174615   5.980   6.776   3.186 -2.0216 -0.2793 -0.8941
17708TIP3    H274616   6.023   6.654   3.108  1.0028 -0.0103  0.2376
17709TIP3   OH274617   4.427   6.835  12.853 -0.5257  0.4287  0.0108
17709TIP3    H174618   4.402   6.826  12.762 -1.7860  0.7201  0.3117
17709TIP3    H274619   4.506   6.889  12.851 -0.7509  0.7408 -0.8734
17710TIP3   OH274620   6.809   4.002   5.352 -0.1273 -0.0103 -0.2969
17710TIP3    H174621   6.864   3.924   5.357 -0.2568 -0.1451 -0.8884
17710TIP3    H274622   6.824   4.037   5.264  0.4603  1.0384  0.2053
17711TIP3   OH274623   1.345   2.294   1.378 -0.3125  0.0865 -0.5372
17711TIP3    H174624   1.264   2.275   1.425 -0.4932 -0.5634 -1.1085
17711TIP3    H274625   1.414   2.257   1.434 -0.3445  1.1380  0.2316
17712TIP3   OH274626   2.547   4.631   4.027 -0.3577 -0.1388  0.1338
17712TIP3    H174627   2.541   4.622   4.122  0.9948 -2.8703  0.0631
17712TIP3    H274628   2.641   4.637   4.010 -0.4062 -2.0482 -1.1043
17713TIP3   OH274629   6.410   6.563  11.843 -0.0380 -0.2396 -0.4561
17713TIP3    H174630   6.399   6.480  11.797  0.0627  0.4109 -1.7035
17713TIP3    H274631   6.376   6.629  11.782  1.3972  0.7958 -0.1963
17714TIP3   OH274632   6.861   5.724   5.165  0.0067  0.2805 -0.5879
17714TIP3    H174633   6.907   5.807   5.156 -0.7532  0.9068  0.9233
17714TIP3    H274634   6.770   5.743   5.141 -0.9062  0.7654  2.6916
17715TIP3   OH274635   3.006   4.130  12.198 -0.4041 -1.0740  0.0730
17715TIP3    H174636   2.997   4.170  12.285  0.3066  1.2663 -0.8559
17715TIP3    H274637   3.014   4.036  12.216  0.0614 -0.6334  2.5573
17716TIP3   OH274638   5.008   4.438   0.949  0.2133  0.2701 -0.2275
17716TIP3    H174639   5.034   4.530   0.953 -0.6473  0.5900 -1.3737
17716TIP3    H274640   5.008   4.418   0.855 -0.6268 -0.5979 -0.0508
17717TIP3   OH274641   1.949   3.477   6.193 -0.0393  0.0462 -0.1056
17717TIP3    H174642   1.925   3.494   6.102  2.6053  1.3195 -0.6636
17717TIP3    H274643   1.954   3.563   6.234  1.0315 -0.3151  0.5930
17718TIP3   OH274644   2.802   6.837  12.794  0.5386  0.4219  0.2342
17718TIP3    H174645   2.859   6.770  12.756  0.5981  0.1626  0.7669
17718TIP3    H274646   2.728   6.843  12.733 -0.1125 -1.0716  0.8230
17719TIP3   OH274647   6.830   3.879  10.513  0.1827  0.1773  0.0689
17719TIP3    H174648   6.908   3.905  10.561  0.8036  1.1735 -1.4146
17719TIP3    H274649   6.769   3.952  10.524  0.5877  0.7274 -1.1833
17720TIP3   OH274650   2.557   3.998   4.025  0.3504  0.3007  0.6731
17720TIP3    H174651   2.591   3.953   4.102  1.7635 -0.1111 -0.1322
17720TIP3    H274652   2.541   4.088   4.053  1.3660  0.2901  1.3154
17721TIP3   OH274653   2.178   2.591  11.775 -0.0690 -0.1269  0.2154
17721TIP3    H174654   2.258   2.565  11.821 -1.3719 -2.1779  1.4961
17721TIP3    H274655   2.208   2.616  11.687  2.0065 -0.4425  0.7737
17722TIP3   OH274656   2.158   3.629   3.989 -0.4806  0.1935  0.0729
17722TIP3    H174657   2.245   3.636   4.030 -0.6031  3.6752  0.0190
17722TIP3    H274658   2.169   3.668   3.903 -1.7146 -1.2027 -0.7687
17723TIP3   OH274659   1.506   5.118  12.138  0.1813  0.3759 -0.2474
17723TIP3    H174660   1.597   5.088  12.137  0.5760  1.5180 -0.9713
17723TIP3    H274661   1.484   5.129  12.045 -1.4003 -1.8412 -0.2025
17724TIP3   OH274662   0.696   6.473   3.398  0.3445  0.2233  1.0989
17724TIP3    H174663   0.689   6.546   3.337  1.0564 -0.7439 -0.1792
17724TIP3    H274664   0.791   6.458   3.405  0.1709 -1.0374  0.7884
17725TIP3   OH274665   4.390   2.483  11.330 -0.1636  0.0471  0.2428
17725TIP3    H174666   4.423   2.573  11.341 -0.4469  0.0285  1.3760
17725TIP3    H274667   4.457   2.428  11.371 -0.9019 -0.0929  1.3098
17726TIP3   OH274668   3.755   4.105  14.223  0.2895 -0.2746 -0.1802
17726TIP3    H174669   3.838   4.152  14.226  0.5033 -0.6735  1.1863
17726TIP3    H274670   3.693   4.167  14.183  1.2526 -0.0162 -1.3084
17727TIP3   OH274671   2.660   0.382   4.004 -0.3740 -0.3987 -0.2124
17727TIP3    H174672   2.645   0.310   4.064  0.5179  0.0588  0.5854
17727TIP3    H274673   2.600   0.451   4.034  0.4089  0.0035  0.4915
17728TIP3   OH274674   5.382   5.433  11.062  0.1622 -0.5707 -0.6305
17728TIP3    H174675   5.295   5.450  11.100 -0.5695  0.0705 -2.4743
17728TIP3    H274676   5.443   5.474  11.123 -1.0235  1.3286 -0.6528
17729TIP3   OH274677   3.621   5.625  13.803 -0.5680  0.3791  0.3125
17729TIP3    H174678   3.659   5.619  13.890 -1.0660 -1.2234  0.4588
17729TIP3    H274679   3.696   5.631  13.744 -0.1758 -0.0302  0.7646
17730TIP3   OH274680   3.835   4.284  15.849  0.1008 -0.5045 -0.3401
17730TIP3    H174681   3.907   4.239  15.805  2.6738  0.7084  2.2369
17730TIP3    H274682   3.825   4.365  15.799 -0.5284 -1.3091 -1.5671
17731TIP3   OH274683   4.835   4.719  16.889  0.2555 -0.4431  0.1204
17731TIP3    H174684   4.797   4.725  16.977  0.4803 -2.5181  0.4205
17731TIP3    H274685   4.928   4.704  16.904  0.4622  0.1778 -0.5092
17732TIP3   OH274686   2.420   2.488  11.816  0.8434 -0.3406  0.0270
17732TIP3    H174687   2.460   2.508  11.732  0.5183  1.9921  0.3501
17732TIP3    H274688   2.409   2.393  11.816  3.4671 -0.7484 -1.3588
17733TIP3   OH274689   0.186   5.606   0.812  0.6966 -0.0620 -0.0052
17733TIP3    H174690   0.109   5.561   0.849  0.4314  1.0258  0.8341
17733TIP3    H274691   0.175   5.598   0.718 -0.2382 -0.2806  0.1111
17734TIP3   OH274692   0.869   0.786   1.367 -0.0750 -0.0821  0.2926
17734TIP3    H174693   0.917   0.869   1.364 -1.7076  0.9202  0.1281
17734TIP3    H274694   0.795   0.804   1.425 -1.6711 -0.7058 -1.4349
17735TIP3   OH274695   0.409   2.515   3.088  0.7840 -0.0789  0.0347
17735TIP3    H174696   0.487   2.536   3.139 -0.6322 -0.2085  2.3989
17735TIP3    H274697   0.362   2.450   3.141 -2.1670  1.8146 -0.0207
17736TIP3   OH274698   5.994   3.551   0.486  0.0329 -0.0883 -0.5470
17736TIP3    H174699   5.955   3.602   0.415 -0.1500 -0.7649 -0.9347
17736TIP3    H274700   5.944   3.469   0.487 -1.0188  0.5137  1.3585
17737TIP3   OH274701   5.681   3.250  12.894 -0.7836  0.1225  0.6610
17737TIP3    H174702   5.710   3.202  12.972  0.4248  1.5758  1.1502
17737TIP3    H274703   5.760   3.263  12.842 -1.2047  0.9404  0.2001
17738TIP3   OH274704   0.072   6.246  13.618  0.7600 -0.6120  0.2749
17738TIP3    H174705   0.012   6.179  13.650  0.1254 -1.1231 -1.7988
17738TIP3    H274706   0.140   6.197  13.572  0.4806  0.1198 -0.9680
17739TIP3   OH274707   2.670   3.374   4.211  0.3761  0.0506 -0.2585
17739TIP3    H174708   2.606   3.367   4.139  0.0575 -1.4342  0.1226
17739TIP3    H274709   2.755   3.375   4.167  0.2066 -1.3028 -0.6842
17740TIP3   OH274710   4.630   0.263  14.828 -0.2618  0.3133 -0.0486
17740TIP3    H174711   4.610   0.319  14.903 -2.3626  0.0378 -0.3542
17740TIP3    H274712   4.598   0.311  14.752  0.8125  0.0799 -0.6792
17741TIP3   OH274713   0.962   1.595  16.616  0.5354 -0.3018 -0.6254
17741TIP3    H174714   0.942   1.510  16.654 -0.9027  0.7103  1.0057
17741TIP3    H274715   1.008   1.642  16.685 -0.2919  0.8564 -0.8381
17742TIP3   OH274716   5.024   3.342   4.191 -0.0757 -0.5490  0.3973
17742TIP3    H174717   4.940   3.305   4.215  0.2230 -1.6795 -0.2108
17742TIP3    H274718   5.064   3.276   4.135  0.5854  0.6089 -0.5546
17743TIP3   OH274719   4.605   1.422  15.440  0.4604  0.3779  0.1002
17743TIP3    H174720   4.521   1.464  15.423 -1.8801 -3.4733  0.7720
17743TIP3    H274721   4.635   1.393  15.353  0.0377  0.0948  0.0420
17744TIP3   OH274722   6.529   0.168   4.287 -0.2988 -0.1020  0.3078
17744TIP3    H174723   6.519   0.242   4.228  0.8833 -0.5833 -0.5444
17744TIP3    H274724   6.534   0.092   4.230  1.9345 -0.4840  0.8878
17745TIP3   OH274725   2.449   2.833  10.675  0.3318  0.3236 -0.3696
17745TIP3    H174726   2.387   2.896  10.710 -0.7355 -0.0228 -1.5690
17745TIP3    H274727   2.529   2.847  10.726 -0.6869  0.8424  1.1391
17746TIP3   OH274728   3.736   1.377   5.689  0.3021 -0.6472  0.8142
17746TIP3    H174729   3.661   1.322   5.709 -0.0073 -1.3228 -1.8358
17746TIP3    H274730   3.721   1.407   5.599  2.1276  1.0339  0.9918
17747TIP3   OH274731   2.535   0.769   0.213  0.6624  0.0444 -0.2331
17747TIP3    H174732   2.584   0.789   0.133  1.5563 -1.9680 -0.2437
17747TIP3    H274733   2.590   0.804   0.284  0.6042  0.4873 -0.4007
17748TIP3   OH274734   3.853   6.315   4.327  0.0232 -0.4197 -0.2056
17748TIP3    H174735   3.868   6.221   4.323  0.9696 -0.3107  0.4688
17748TIP3    H274736   3.932   6.354   4.290 -0.1009  0.1154  0.0717
17749TIP3   OH274737   2.184   1.782   5.732 -0.3691  0.1004  0.5814
17749TIP3    H174738   2.212   1.734   5.811  0.9897  1.4331  0.9483
17749TIP3    H274739   2.162   1.869   5.764 -0.6303  0.4010 -0.4059
17750TIP3   OH274740   5.502   6.069   2.704  0.0846  0.0090  0.5792
17750TIP3    H174741   5.478   5.980   2.730 -2.7353  0.2549 -0.8691
17750TIP3    H274742   5.485   6.122   2.782 -0.9061 -0.3402  0.6096
17751TIP3   OH274743   3.804   0.357  15.743  0.2404 -0.3154  0.5665
17751TIP3    H174744   3.740   0.414  15.786 -0.5629 -1.3445  0.7671
17751TIP3    H274745   3.823   0.402  15.660 -0.6142  0.0974  0.5780
17752TIP3   OH274746   6.603   2.154   2.898  0.2576 -0.2165 -0.3466
17752TIP3    H174747   6.548   2.143   2.821  1.9614 -3.3970 -1.3018
17752TIP3    H274748   6.692   2.153   2.864  1.0935 -2.3853  1.6311
17753TIP3   OH274749   4.537   6.781   3.316  0.2632 -0.3357 -0.4845
17753TIP3    H174750   4.604   6.713   3.306 -0.3800 -0.8340 -1.5815
17753TIP3    H274751   4.562   6.850   3.254  1.1359  0.6463  0.9091
17754TIP3   OH274752   0.344   0.973   2.823  0.5620  0.5568 -0.0327
17754TIP3    H174753   0.379   1.058   2.850  1.1316  0.3052  0.0493
17754TIP3    H274754   0.379   0.911   2.888 -1.4570  0.5176  1.0887
17755TIP3   OH274755   1.833   1.308   5.126 -0.0737 -0.5774 -0.4650
17755TIP3    H174756   1.824   1.274   5.037  2.7902 -0.6064 -0.8447
17755TIP3    H274757   1.883   1.241   5.172 -2.0508 -0.8544  1.4080
17756TIP3   OH274758   0.734   3.022   2.548 -0.0929  0.1363 -0.1952
17756TIP3    H174759   0.741   2.935   2.509  0.1583 -0.3472  0.8723
17756TIP3    H274760   0.816   3.066   2.523  0.8086 -0.7382  1.0835
17757TIP3   OH274761   0.340   1.743  12.828 -0.0948 -0.1092  0.5244
17757TIP3    H174762   0.270   1.783  12.777  2.1439  1.8171 -1.2623
17757TIP3    H274763   0.295   1.678  12.883 -3.3752  1.7134  0.2896
17758TIP3   OH274764   0.344   6.069   3.123  0.0598  0.2966 -0.3409
17758TIP3    H174765   0.314   6.157   3.101  0.4680  1.1810  2.2558
17758TIP3    H274766   0.316   6.015   3.050 -2.2397  2.1760 -0.9676
17759TIP3   OH274767   3.170   3.229  12.381  0.1715 -0.5015  0.3582
17759TIP3    H174768   3.254   3.277  12.382 -0.2346  0.2260  0.5901
17759TIP3    H274769   3.110   3.286  12.429 -0.8000 -0.4071 -0.9278
17760TIP3   OH274770   2.672   2.751   3.233  0.3002  0.0747 -0.1903
17760TIP3    H174771   2.587   2.729   3.273 -0.7453  1.8397 -1.3009
17760TIP3    H274772   2.654   2.754   3.139  1.8844 -0.5642 -0.5518
17761TIP3   OH274773   1.585   2.286   5.499 -0.2505 -0.4089 -0.0389
17761TIP3    H174774   1.615   2.300   5.589  0.8529  0.3718 -0.5028
17761TIP3    H274775   1.551   2.196   5.499 -0.5777 -0.3065  1.2240
17762TIP3   OH274776   1.201   0.363  12.011  0.3671 -0.4187  0.2331
17762TIP3    H174777   1.189   0.432  12.076 -3.4005  0.0312 -0.6885
17762TIP3    H274778   1.281   0.387  11.965  1.0856  1.3165  2.2017
17763TIP3   OH274779   2.381   5.964   2.547  0.1758  0.5967  0.1674
17763TIP3    H174780   2.359   5.876   2.577  0.4724  0.8973  1.2930
17763TIP3    H274781   2.304   5.992   2.497  0.1916 -0.3952 -0.4565
17764TIP3   OH274782   4.736   1.586  13.661  0.3790 -0.7522  0.0925
17764TIP3    H174783   4.713   1.504  13.705 -0.1595 -2.4821 -3.1255
17764TIP3    H274784   4.695   1.580  13.575  2.5269  1.7245 -1.2539
17765TIP3   OH274785   0.187   4.470  14.118 -0.1689 -0.0573  0.4618
17765TIP3    H174786   0.268   4.454  14.069  0.4452  1.8203  0.8082
17765TIP3    H274787   0.118   4.463  14.052  0.6313  2.2168 -0.7026
17766TIP3   OH274788   4.278   6.623   3.708 -0.1029  0.1301 -0.2330
17766TIP3    H174789   4.283   6.709   3.666  0.4511 -0.8814 -2.3820
17766TIP3    H274790   4.189   6.619   3.742 -0.7080  0.9394 -1.5923
17767TIP3   OH274791   1.976   4.351   2.651  0.0225  0.2615 -0.6756
17767TIP3    H174792   1.996   4.260   2.628  1.1062  0.2287  0.2657
17767TIP3    H274793   1.899   4.373   2.599  1.1743 -0.3929 -2.8117
17768TIP3   OH274794   2.522   0.183   0.657  0.6749  0.5044 -0.2113
17768TIP3    H174795   2.568   0.231   0.588  0.3253 -0.0716 -0.8728
17768TIP3    H274796   2.592   0.144   0.710  1.0473 -1.5489 -2.0424
17769TIP3   OH274797   6.835   3.666   1.162  0.8307 -0.4867  0.8179
17769TIP3    H174798   6.800   3.755   1.162 -1.2765 -1.2495  0.4059
17769TIP3    H274799   6.849   3.645   1.254 -0.3976 -0.3296  1.0622
17770TIP3   OH274800   1.230   5.175   1.059  0.2912  0.0171  0.1981
17770TIP3    H174801   1.227   5.189   0.964  0.9824 -0.9654  0.0156
17770TIP3    H274802   1.314   5.213   1.085 -0.4772  1.4622  0.6380
17771TIP3   OH274803   1.352   6.780   4.776  0.0950  0.5377 -0.3489
17771TIP3    H174804   1.324   6.729   4.700  1.1375 -2.4533  1.1203
17771TIP3    H274805   1.275   6.781   4.834 -0.2509  1.5759 -0.8135
17772TIP3   OH274806   4.020   2.955  12.037 -0.5635  0.3733 -0.5784
17772TIP3    H174807   3.947   2.926  11.982 -0.4181  1.3885 -1.3555
17772TIP3    H274808   3.993   3.041  12.069 -0.7720 -0.3197  1.2375
17773TIP3   OH274809   3.882   6.829  16.058  0.0599 -0.0287  0.3475
17773TIP3    H174810   3.857   6.743  16.090 -0.2006  0.0969  0.4922
17773TIP3    H274811   3.894   6.882  16.137 -1.5688  0.5545  0.2597
17774TIP3   OH274812   1.129   5.708   4.385  0.4040 -0.1345 -0.1462
17774TIP3    H174813   1.136   5.690   4.479 -0.4423 -0.1761 -0.0861
17774TIP3    H274814   1.044   5.751   4.375  0.1746 -0.7612 -0.9780
17775TIP3   OH274815   6.735   1.551   4.884 -0.0803  0.3452 -0.0127
17775TIP3    H174816   6.763   1.509   4.803  0.1572  0.0359  0.2288
17775TIP3    H274817   6.732   1.480   4.948  0.0870  0.6554  0.3375
17776TIP3   OH274818   2.772   6.845   2.020 -0.0851 -0.0443  0.4344
17776TIP3    H174819   2.785   6.764   1.971 -1.2038 -1.0706  1.7559
17776TIP3    H274820   2.807   6.826   2.108  1.5223  1.6151  0.2179
17777TIP3   OH274821   5.681   2.472   5.352  0.3700 -0.1466  0.4488
17777TIP3    H174822   5.629   2.476   5.272  0.6002 -0.0071  0.3052
17777TIP3    H274823   5.708   2.380   5.358  0.7943 -0.0500  0.0815
17778TIP3   OH274824   2.667   5.493   4.719 -0.0372  0.0769 -1.0987
17778TIP3    H174825   2.758   5.469   4.734 -0.2344  0.2610  0.7061
17778TIP3    H274826   2.658   5.497   4.624  1.5103 -1.1497 -1.3425
17779TIP3   OH274827   0.116   5.045  16.023  0.0314 -0.6363  0.3438
17779TIP3    H174828   0.165   5.062  16.103  0.4256  0.3655 -0.1008
17779TIP3    H274829   0.183   5.042  15.954 -0.3615 -0.9127 -0.0332
17780TIP3   OH274830   5.024   1.285  11.856  0.0964 -0.0886  0.2547
17780TIP3    H174831   5.000   1.342  11.929  2.5867  1.3525  0.0606
17780TIP3    H274832   5.063   1.208  11.898  0.9827  0.4733  0.4900
17781TIP3   OH274833   2.067   2.774  12.813 -0.2662 -0.3231  0.1844
17781TIP3    H174834   1.983   2.727  12.809 -0.8652  0.6755  0.7288
17781TIP3    H274835   2.074   2.818  12.729  0.6072 -1.8547 -0.5899
17782TIP3   OH274836   5.784   3.625   2.956  0.3288 -0.7117 -0.1627
17782TIP3    H174837   5.747   3.713   2.958  0.4877 -0.6132 -1.1342
17782TIP3    H274838   5.735   3.577   3.023  0.4914  0.2056  0.6231
17783TIP3   OH274839   6.143   0.399  14.249  0.4907  0.4099  0.2109
17783TIP3    H174840   6.068   0.438  14.205 -0.9810  0.0843  2.2892
17783TIP3    H274841   6.146   0.309  14.216  0.9606  0.8512 -1.0180
17784TIP3   OH274842   2.136   0.948  10.989 -0.2835  0.2310  0.3614
17784TIP3    H174843   2.179   1.017  11.041  2.1574 -0.7929 -0.1869
17784TIP3    H274844   2.186   0.944  10.908 -1.2025 -1.3116 -0.1753
17785TIP3   OH274845   4.985   1.534   5.281 -0.3964 -0.2508  0.2288
17785TIP3    H174846   4.903   1.536   5.329  0.2713  1.0927  1.3992
17785TIP3    H274847   4.967   1.584   5.201 -0.7957 -0.2090  0.3418
17786TIP3   OH274848   0.960   6.037   1.194 -0.1658  0.4446 -0.0007
17786TIP3    H174849   1.003   5.998   1.118 -1.0107  0.6273 -0.5988
17786TIP3    H274850   0.872   5.997   1.194  0.1317 -0.2547  1.4420
17787TIP3   OH274851   0.209   4.484  12.934  0.1581 -0.1946  0.2489
17787TIP3    H174852   0.290   4.459  12.889  0.4359  1.2376 -0.0932
17787TIP3    H274853   0.144   4.421  12.902  0.5251  0.2825 -1.6028
17788TIP3   OH274854   3.499   3.033   3.057  0.6397  0.3493 -0.1363
17788TIP3    H174855   3.448   3.040   3.138  0.5586 -0.1965 -0.1333
17788TIP3    H274856   3.586   3.064   3.082  0.2609  1.5103 -0.2029
17789TIP3   OH274857   5.634   2.417  16.620 -0.1101  0.5734  0.1085
17789TIP3    H174858   5.700   2.484  16.639 -0.2042  1.3015 -1.8499
17789TIP3    H274859   5.559   2.441  16.675  0.0801  1.7197 -0.1115
17790TIP3   OH274860   4.163   5.297  15.540  0.4826  0.1107  0.7144
17790TIP3    H174861   4.085   5.241  15.541 -1.3124  2.4410  1.8631
17790TIP3    H274862   4.161   5.341  15.455  0.2883  0.4640  0.8970
17791TIP3   OH274863   4.888   4.965   1.150  0.0716  0.1170 -0.1568
17791TIP3    H174864   4.869   4.888   1.203 -0.7893 -0.2443 -0.9660
17791TIP3    H274865   4.841   5.036   1.192  2.3152  0.6636  1.6731
17792TIP3   OH274866   1.048   4.644   0.586 -0.0119 -0.3549 -0.4707
17792TIP3    H174867   1.070   4.737   0.581  1.0842 -0.6652 -2.0260
17792TIP3    H274868   0.972   4.634   0.529  0.7484 -0.6293 -1.4667
17793TIP3   OH274869   3.040   1.225  14.203  0.3076 -0.3262  0.0105
17793TIP3    H174870   3.020   1.255  14.292 -1.2834 -0.1687 -0.3701
17793TIP3    H274871   3.063   1.132  14.214  0.7388 -0.1536  0.6500
17794TIP3   OH274872   6.069   5.675  15.858  0.6464 -0.3392 -0.4747
17794TIP3    H174873   6.118   5.757  15.862  0.5739 -0.2799 -0.7817
17794TIP3    H274874   6.123   5.616  15.805  0.3675 -0.2585 -0.8538
17795TIP3   OH274875   1.072   6.160  12.102  0.8427  0.1792 -0.0637
17795TIP3    H174876   1.002   6.138  12.040 -0.8624 -1.4484  2.2432
17795TIP3    H274877   1.047   6.246  12.136  0.6878  0.1816 -0.1825
17796TIP3   OH274878   0.617   6.688  16.489  0.0310 -0.7045  0.1968
17796TIP3    H174879   0.659   6.772  16.469 -1.1521  0.1835  1.2600
17796TIP3    H274880   0.617   6.641  16.405  1.5355 -0.0373 -0.2142
17797TIP3   OH274881   6.065   6.712   6.275 -0.1876 -0.0724  0.0719
17797TIP3    H174882   6.141   6.753   6.233  0.0490 -1.3576 -0.8057
17797TIP3    H274883   6.027   6.782   6.328  1.6222  0.5944  0.5633
17798TIP3   OH274884   2.461   5.152   4.998  0.6893 -0.1382 -0.2098
17798TIP3    H174885   2.386   5.094   4.990 -0.5808  1.2384  1.0794
17798TIP3    H274886   2.525   5.103   5.050 -0.8095 -0.0342  1.8522
17799TIP3   OH274887   5.621   3.302   3.753  0.0295 -0.1929  0.2675
17799TIP3    H174888   5.548   3.277   3.809 -0.7360 -2.4906 -1.5960
17799TIP3    H274889   5.678   3.225   3.752  2.0251  1.2110  0.9081
17800TIP3   OH274890   1.544   6.653  16.659 -0.4946 -0.0992 -0.0169
17800TIP3    H174891   1.581   6.741  16.663  3.0569 -1.2928 -1.8895
17800TIP3    H274892   1.531   6.628  16.750 -0.6552  1.9724  0.5730
17801TIP3   OH274893   0.221   5.740  15.109  0.6922  0.6247 -0.1396
17801TIP3    H174894   0.194   5.669  15.166 -1.9496  1.1185 -0.6405
17801TIP3    H274895   0.284   5.700  15.049  1.3457 -0.5863  1.3027
17802TIP3   OH274896   5.726   5.829  16.791 -0.1513  0.2146  0.5585
17802TIP3    H174897   5.752   5.825  16.883  0.8341 -4.3021  0.2871
17802TIP3    H274898   5.631   5.814  16.792 -0.4555  1.9424  0.8315
17803TIP3   OH274899   6.813   1.001  12.688 -0.3922  0.6107  0.3452
17803TIP3    H174900   6.762   0.929  12.726 -0.1235  0.1589 -0.1279
17803TIP3    H274901   6.903   0.968  12.686 -0.1341  1.2673  0.8460
17804TIP3   OH274902   3.919   2.214   4.391 -0.2533  0.3851  0.3545
17804TIP3    H174903   4.014   2.204   4.384 -0.3982 -0.2664 -0.9762
17804TIP3    H274904   3.890   2.133   4.433 -0.2708  0.3261  0.2302
17805TIP3   OH274905   3.450   4.828  14.904  0.4129 -0.6100 -0.4353
17805TIP3    H174906   3.360   4.825  14.934  1.1695  1.0504  2.3491
17805TIP3    H274907   3.498   4.773  14.966  1.7413  1.1851  0.2116
17806TIP3   OH274908   3.063   6.393  11.338  0.0075  0.3396  0.0956
17806TIP3    H174909   3.156   6.398  11.361 -0.0482 -1.6958  0.9647
17806TIP3    H274910   3.018   6.387  11.423 -0.7939 -0.1314 -0.3525
17807TIP3   OH274911   4.040   5.592  12.491  0.2523 -0.0036 -0.2284
17807TIP3    H174912   4.108   5.627  12.433  0.5850 -0.0236  0.1451
17807TIP3    H274913   4.018   5.665  12.548 -0.4113  0.1567 -0.6793
17808TIP3   OH274914   1.825   0.585  13.320 -0.0782  0.4350 -0.0227
17808TIP3    H174915   1.795   0.636  13.245 -0.7621 -0.9897 -0.7445
17808TIP3    H274916   1.896   0.638  13.358 -0.4930  1.7189 -0.9646
17809TIP3   OH274917   1.838   6.631  11.771 -0.1133 -0.7608 -0.2006
17809TIP3    H174918   1.899   6.566  11.734 -1.2600 -2.0299  0.0520
17809TIP3    H274919   1.807   6.590  11.852 -0.5164  0.3334  0.2126
17810TIP3   OH274920   1.254   3.338   3.847 -0.1070  0.7149 -0.0282
17810TIP3    H174921   1.275   3.246   3.859 -0.4844  0.2982 -2.2229
17810TIP3    H274922   1.329   3.385   3.883  2.0199 -0.5653 -2.5192
17811TIP3   OH274923   1.395   5.824   0.782 -0.4447  0.1759 -0.3306
17811TIP3    H174924   1.307   5.860   0.784  0.0871  1.5686 -0.5888
17811TIP3    H274925   1.452   5.900   0.773  0.7807 -0.7014 -0.3256
17812TIP3   OH274926   5.684   4.820   5.644 -0.6270  0.2186  0.1972
17812TIP3    H174927   5.660   4.910   5.667 -1.9204 -0.5158  1.9993
17812TIP3    H274928   5.760   4.829   5.587 -1.4170  2.4888 -0.6332
17813TIP3   OH274929   4.316   3.576   4.107  0.0773 -0.4726  0.1429
17813TIP3    H174930   4.253   3.541   4.170 -0.0978 -0.3748  0.0224
17813TIP3    H274931   4.393   3.519   4.115  0.1284 -0.3441  0.5828
17814TIP3   OH274932   0.150   0.465  10.721 -0.3061 -0.0383 -0.3417
17814TIP3    H174933   0.166   0.430  10.809  0.6022 -0.5960 -0.7134
17814TIP3    H274934   0.236   0.464  10.679 -0.9086 -0.8852 -1.6291
17815TIP3   OH274935   6.734   3.595   6.568  0.4819 -0.2865  0.3806
17815TIP3    H174936   6.805   3.539   6.599  1.4735  1.4489  1.3652
17815TIP3    H274937   6.669   3.534   6.533  1.7212 -2.0045  0.9581
17816TIP3   OH274938   2.016   5.056   1.807  0.0001 -0.2440  0.0628
17816TIP3    H174939   2.073   4.981   1.792  0.2811 -0.1426  0.6108
17816TIP3    H274940   1.969   5.034   1.888 -0.7202 -0.3148 -0.3625
17817TIP3   OH274941   2.137   5.167  14.106  0.0070  0.3490  0.3305
17817TIP3    H174942   2.182   5.205  14.031 -0.9237  0.2295 -0.3015
17817TIP3    H274943   2.202   5.168  14.176  0.6172  1.2533 -0.2333
17818TIP3   OH274944   4.928   0.416  10.502 -0.7159  0.7611 -0.2716
17818TIP3    H174945   4.939   0.351  10.433 -1.5056 -0.2903  0.5522
17818TIP3    H274946   4.836   0.441  10.497 -1.1458 -0.3415  1.2129
17819TIP3   OH274947   6.805   6.391  15.056  0.4248 -0.7162 -0.0316
17819TIP3    H174948   6.797   6.298  15.037  0.1930 -0.5252 -0.9201
17819TIP3    H274949   6.891   6.416  15.022  1.2339 -0.9390  1.7266
17820TIP3   OH274950   1.050   4.136   0.908  0.0960  0.4896  0.2801
17820TIP3    H174951   0.972   4.174   0.869  0.6184  1.8401  0.5005
17820TIP3    H274952   1.113   4.131   0.836  0.6460  1.8312  0.6325
17821TIP3   OH274953   5.779   2.918   5.400 -0.2935 -0.0096 -0.2073
17821TIP3    H174954   5.734   2.840   5.432  0.4078 -0.1961  0.3553
17821TIP3    H274955   5.717   2.959   5.340 -0.7046 -0.9482 -0.4395
17822TIP3   OH274956   4.967   5.749  15.812  0.2054  0.2567 -0.4300
17822TIP3    H174957   4.905   5.676  15.812  0.0443  0.3884 -0.6403
17822TIP3    H274958   4.934   5.808  15.743  0.8237  0.1084 -0.8631
17823TIP3   OH274959   6.055   0.993   2.680 -0.2515 -0.0081 -0.8255
17823TIP3    H174960   6.035   0.924   2.743 -0.0550  0.7328  0.0684
17823TIP3    H274961   6.093   0.947   2.605 -0.3116 -0.8873 -0.3285
17824TIP3   OH274962   4.279   0.518  14.216 -0.2782 -0.1167 -0.1617
17824TIP3    H174963   4.308   0.532  14.126 -0.2302  1.7487  0.1050
17824TIP3    H274964   4.220   0.591  14.233 -0.8195 -0.8246  1.1100
17825TIP3   OH274965   0.401   0.230  16.178  0.7867  0.0404  0.7597
17825TIP3    H174966   0.482   0.213  16.130  0.4954  1.7751 -0.4349
17825TIP3    H274967   0.375   0.319  16.151  0.2650  0.8797  3.6642
17826TIP3   OH274968   3.775   3.513   3.227 -0.2203  0.4378 -0.0237
17826TIP3    H174969   3.762   3.591   3.174  1.9866  1.0220  0.2182
17826TIP3    H274970   3.808   3.545   3.311  0.5133 -0.7158  0.1655
17827TIP3   OH274971   2.865   0.110   4.818 -0.0426  0.6730 -0.0561
17827TIP3    H174972   2.958   0.132   4.826  0.4160 -0.3301 -2.0728
17827TIP3    H274973   2.827   0.186   4.773  0.0570  0.5219 -0.3948
17828TIP3   OH274974   1.703   4.161   4.287  0.4463  0.3540  0.6993
17828TIP3    H174975   1.747   4.101   4.348 -1.2805 -1.0638  0.6292
17828TIP3    H274976   1.706   4.116   4.203  1.6056  1.6843  0.0038
17829TIP3   OH274977   1.642   6.036   4.256  0.1222  0.0082 -0.2779
17829TIP3    H174978   1.569   5.981   4.227 -0.1439 -0.5545  1.3323
17829TIP3    H274979   1.621   6.123   4.222  0.2035 -0.7111 -2.2730
17830TIP3   OH274980   3.235   1.244  15.981  0.2423  0.3642  0.3085
17830TIP3    H174981   3.204   1.181  16.046 -0.5241  0.3236 -0.0934
17830TIP3    H274982   3.296   1.195  15.926 -0.0228  0.0877  0.2626
17831TIP3   OH274983   6.102   5.387  14.992  0.1001 -0.4962 -0.0631
17831TIP3    H174984   6.177   5.407  15.048  0.9699 -1.2102 -0.9401
17831TIP3    H274985   6.045   5.463  15.001  0.2358 -0.5756  1.7439
17832TIP3   OH274986   0.532   5.461  16.283 -0.1977 -0.6968 -0.1821
17832TIP3    H174987   0.557   5.375  16.318 -1.8297 -1.3122 -0.4688
17832TIP3    H274988   0.497   5.508  16.358  0.8498 -0.1771  0.0111
17833TIP3   OH274989   1.092   3.440   2.901 -0.3140  0.2409 -0.8130
17833TIP3    H174990   1.142   3.375   2.852 -1.0690  0.6428 -2.1656
17833TIP3    H274991   1.158   3.492   2.946  0.3487 -0.8332 -0.4903
17834TIP3   OH274992   6.490   1.620   3.155 -0.2390 -0.0585  0.5518
17834TIP3    H174993   6.572   1.652   3.117  0.7586 -0.9067  1.8520
17834TIP3    H274994   6.446   1.698   3.186  0.7482  0.3192  1.0621
17835TIP3   OH274995   5.743   3.785  14.839 -0.8120  0.4337  0.4816
17835TIP3    H174996   5.743   3.835  14.921  0.1312 -0.9742  1.3733
17835TIP3    H274997   5.836   3.777  14.816 -1.0832  1.3463 -1.0962
17836TIP3   OH274998   6.663   6.528   0.065  0.2384  0.6679 -0.1174
17836TIP3    H174999   6.692   6.527  -0.026 -1.6741 -1.6141 -0.7884
17836TIP3    H275000   6.698   6.446   0.102 -0.0630  0.9643  0.8448
17837TIP3   OH275001   1.499   1.521   3.085  0.5383 -0.3905 -0.3516
17837TIP3    H175002   1.438   1.480   3.147 -0.7569 -0.9174 -1.9201
17837TIP3    H275003   1.532   1.598   3.131  0.7791 -1.5621  1.5560
17838TIP3   OH275004   2.739   2.819   0.647  0.0961  0.4609  0.0834
17838TIP3    H175005   2.807   2.760   0.678  1.0389  1.2624 -0.4150
17838TIP3    H275006   2.686   2.766   0.587 -0.7913 -0.6507  1.7796
17839TIP3   OH275007   0.607   0.421   5.674  0.4079  0.1864  0.0908
17839TIP3    H175008   0.647   0.469   5.747 -0.2966  2.1175 -0.7310
17839TIP3    H275009   0.528   0.383   5.712  1.3461 -0.9749  0.9340
17840TIP3   OH275010   2.100   6.498  14.487 -0.3671 -0.4026 -0.3348
17840TIP3    H175011   2.088   6.407  14.513 -0.5006 -0.7588 -1.5575
17840TIP3    H275012   2.052   6.506  14.404  0.2374  0.5878 -0.6152
17841TIP3   OH275013   0.753   3.931  16.753  0.1706 -0.2499 -0.2821
17841TIP3    H175014   0.807   3.957  16.679 -2.0147  2.0318 -1.2526
17841TIP3    H275015   0.678   3.885  16.713  0.2060 -1.2974  0.7889
17842TIP3   OH275016   6.026   5.213   2.080 -0.0533 -0.1439 -0.4331
17842TIP3    H175017   6.053   5.282   2.019 -2.3804  1.3949  0.1190
17842TIP3    H275018   6.104   5.159   2.093  0.7759 -0.0123 -4.0199
17843TIP3   OH275019   1.376   5.290  10.985 -0.3445  0.0890  0.2932
17843TIP3    H175020   1.396   5.201  11.013  0.1482  0.1660  0.1978
17843TIP3    H275021   1.459   5.324  10.952 -1.0705 -0.3080 -2.1042
17844TIP3   OH275022   3.768   1.600   0.368  0.1475  0.1500  0.6010
17844TIP3    H175023   3.864   1.600   0.365  0.2681 -0.4402  2.8004
17844TIP3    H275024   3.743   1.527   0.312  0.9037  0.8179 -0.6726
17845TIP3   OH275025   1.770   2.590  10.644 -0.0860 -0.5021  0.3476
17845TIP3    H175026   1.704   2.526  10.669  1.3318 -2.0999  0.1232
17845TIP3    H275027   1.720   2.660  10.601 -1.5408 -2.0143 -0.5083
17846TIP3   OH275028   1.103   5.275   5.124  0.2432  0.4331  0.1798
17846TIP3    H175029   1.053   5.235   5.195 -0.0563 -0.4943 -0.5327
17846TIP3    H275030   1.073   5.365   5.121  0.9418  0.7649  1.8384
17847TIP3   OH275031   4.546   6.445  11.216  0.2247  0.3639 -0.0390
17847TIP3    H175032   4.471   6.398  11.251  1.3700 -2.8509 -1.4517
17847TIP3    H275033   4.588   6.484  11.292 -0.6492 -1.2532  1.3367
17848TIP3   OH275034   0.262   6.498  16.200 -0.3826  0.5599  0.2075
17848TIP3    H175035   0.313   6.418  16.211 -0.0597  0.8634  0.9459
17848TIP3    H275036   0.180   6.481  16.246  0.0429  0.9708  1.1479
17849TIP3   OH275037   1.632   2.014   0.803 -0.1009 -0.7516 -0.3597
17849TIP3    H175038   1.669   1.930   0.775 -0.4953 -1.3114  0.7378
17849TIP3    H275039   1.539   1.996   0.815 -0.2403 -0.0781 -0.4027
17850TIP3   OH275040   4.584   0.043  13.828 -0.3715  0.2107 -0.3076
17850TIP3    H175041   4.647   0.004  13.768  0.1835  0.7289 -0.0685
17850TIP3    H275042   4.503   0.048  13.777 -0.5197 -1.4059 -0.2880
17851TIP3   OH275043   4.540   3.883   4.163 -0.6557 -0.1067 -0.2423
17851TIP3    H175044   4.575   3.929   4.239 -0.8213 -0.7444  0.2230
17851TIP3    H275045   4.473   3.942   4.129 -0.2020  0.4301 -0.2301
17852TIP3   OH275046   6.019   1.685  16.428 -0.2864  0.2238  0.2628
17852TIP3    H175047   5.934   1.711  16.462 -1.7279 -3.0623 -0.4832
17852TIP3    H275048   6.081   1.706  16.498 -1.8851  1.4601  1.3624
17853TIP3   OH275049   0.679   3.570   0.785  0.4760  0.7227 -0.1278
17853TIP3    H175050   0.715   3.654   0.756  0.9179  1.2972  1.9645
17853TIP3    H275051   0.627   3.591   0.862 -2.0263 -0.5184 -1.3677
17854TIP3   OH275052   3.986   3.955   2.589  0.4794  0.6588  0.1567
17854TIP3    H175053   3.962   4.035   2.543  0.0134  0.6833  0.4364
17854TIP3    H275054   3.962   3.884   2.529 -1.6927  0.6144  1.0131
17855TIP3   OH275055   1.882   6.269  12.671  0.3907 -0.1383 -0.1339
17855TIP3    H175056   1.819   6.222  12.726 -0.9972  0.1210 -1.4059
17855TIP3    H275057   1.832   6.345  12.638  1.9116  1.0389  0.1593
17856TIP3   OH275058   3.083   4.548  14.618 -0.2787  0.3581  0.5816
17856TIP3    H175059   3.004   4.502  14.646 -1.0046  0.3348 -1.3288
17856TIP3    H275060   3.051   4.630  14.580  0.4784 -0.0618 -1.0678
17857TIP3   OH275061   1.524   6.022   1.744  0.1207  0.4798  0.0121
17857TIP3    H175062   1.463   5.953   1.718  0.3837  0.6031 -0.9642
17857TIP3    H275063   1.611   5.980   1.740  0.3902  1.1400 -1.6548
17858TIP3   OH275064   2.547   2.312   0.410 -0.2022 -0.3215  0.4830
17858TIP3    H175065   2.512   2.225   0.392  0.2494 -0.2604 -0.7605
17858TIP3    H275066   2.566   2.312   0.504  0.2856 -1.7336  0.3988
17859TIP3   OH275067   1.753   4.134   0.958 -0.2333 -0.7140 -0.5433
17859TIP3    H175068   1.775   4.227   0.971 -0.1519 -0.8006 -0.0718
17859TIP3    H275069   1.691   4.135   0.884 -0.3937 -0.2663 -0.4093
17860TIP3   OH275070   5.400   4.324  14.074  0.2006 -0.0654 -0.0749
17860TIP3    H175071   5.438   4.350  13.991  0.6961  0.9904  0.4693
17860TIP3    H275072   5.475   4.293  14.126 -0.2172 -1.5575 -0.3014
17861TIP3   OH275073   6.361   1.569   2.206  0.4063 -1.1214  0.4206
17861TIP3    H175074   6.446   1.574   2.162  0.7864 -1.1616  1.1536
17861TIP3    H275075   6.306   1.631   2.158  1.4904  0.6698  1.3816
17862TIP3   OH275076   6.660   2.447  16.338 -0.0196 -0.1396 -0.3622
17862TIP3    H175077   6.677   2.369  16.285  0.1025  0.1496 -0.7618
17862TIP3    H275078   6.734   2.452  16.398 -0.7007 -1.0690  0.5752
17863TIP3   OH275079   1.981   4.595   5.488  0.0897  0.2257 -0.0901
17863TIP3    H175080   2.071   4.599   5.520 -0.1571 -0.8883  0.8260
17863TIP3    H275081   1.964   4.501   5.478 -0.7713  0.4488 -0.8613
17864TIP3   OH275082   2.902   1.280   6.157  0.1215 -0.8720  0.3248
17864TIP3    H175083   2.838   1.351   6.165 -0.3252 -1.0777 -1.2363
17864TIP3    H275084   2.876   1.233   6.078  1.1909 -2.0005  0.6219
17865TIP3   OH275085   2.156   6.839   4.055  0.4796  0.7119 -0.3868
17865TIP3    H175086   2.227   6.898   4.028  2.2843 -0.8921  0.5320
17865TIP3    H275087   2.165   6.834   4.151 -0.8595  0.4359 -0.2603
17866TIP3   OH275088   5.718   0.306  16.868 -0.1228  0.1104  0.3636
17866TIP3    H175089   5.785   0.264  16.816 -0.0663 -0.5361  0.9431
17866TIP3    H275090   5.655   0.339  16.804 -0.4786 -1.3824 -0.0949
17867TIP3   OH275091   6.610   5.008   4.585  0.0217  0.0287 -0.0228
17867TIP3    H175092   6.632   5.071   4.654  1.8963  0.3177 -0.8195
17867TIP3    H275093   6.659   5.039   4.509  0.7784 -2.2451 -0.5140
17868TIP3   OH275094   2.896   1.502   0.208 -0.2200 -0.2208  0.6986
17868TIP3    H175095   2.916   1.535   0.120  1.1949 -0.1631  1.0247
17868TIP3    H275096   2.890   1.580   0.263 -0.6778 -0.2849  0.7476
17869TIP3   OH275097   4.975   6.285   5.162  0.0660  0.3131  0.3241
17869TIP3    H175098   5.024   6.329   5.231  0.3481 -0.3705  0.5749
17869TIP3    H275099   5.008   6.321   5.080 -1.9834  2.9528  0.5356
17870TIP3   OH275100   0.640   4.870  14.270  0.0886  0.5143 -0.7209
17870TIP3    H175101   0.589   4.947  14.294  0.9090  0.0449  3.2413
17870TIP3    H275102   0.589   4.796  14.303  0.7609 -0.4004 -1.6630
17871TIP3   OH275103   4.628   2.319   5.149 -0.4711  0.1000 -0.4465
17871TIP3    H175104   4.677   2.264   5.088  0.4207  0.6504 -0.2294
17871TIP3    H275105   4.650   2.284   5.235 -1.4251 -0.4249 -0.3960
17872TIP3   OH275106   2.276   0.178   0.515 -0.1063 -0.4364  0.0189
17872TIP3    H175107   2.354   0.195   0.568  0.4478 -1.3781 -0.4734
17872TIP3    H275108   2.294   0.220   0.431  0.0981 -1.1197 -0.2768
17873TIP3   OH275109   5.749   2.532  12.430 -0.3882 -0.0182 -0.1233
17873TIP3    H175110   5.836   2.494  12.438 -0.3276  0.2249  0.3966
17873TIP3    H275111   5.697   2.487  12.496 -0.9187 -0.8666 -1.0820
17874TIP3   OH275112   1.572   2.062  15.340 -0.4711  0.2811  0.8459
17874TIP3    H175113   1.648   2.048  15.284 -1.2012 -0.9452  0.1049
17874TIP3    H275114   1.510   2.111  15.286  0.0689  1.9802  1.7154
17875TIP3   OH275115   1.408   4.620  16.784 -0.0084  0.1573 -0.2474
17875TIP3    H175116   1.429   4.700  16.736  0.7795 -0.4343 -0.9340
17875TIP3    H275117   1.314   4.624  16.799 -0.4501 -0.0281 -2.6227
17876TIP3   OH275118   6.302   5.213   5.358  0.1103  0.0213 -0.5653
17876TIP3    H175119   6.333   5.166   5.281 -1.6597 -1.3785 -0.4822
17876TIP3    H275120   6.274   5.299   5.325 -0.2890 -0.4285 -1.4183
17877TIP3   OH275121   1.282   0.876   2.529  0.6552  0.1679  0.6729
17877TIP3    H175122   1.194   0.911   2.539  1.1347  1.9391 -0.6622
17877TIP3    H275123   1.286   0.848   2.437  1.3935 -0.1401  0.7911
17878TIP3   OH275124   0.675   5.787   1.830 -0.0829  0.2843 -0.4041
17878TIP3    H175125   0.585   5.796   1.798  0.4081  0.3828 -1.8260
17878TIP3    H275126   0.702   5.699   1.801  0.2552  0.2268  0.0796
17879TIP3   OH275127   6.152   2.290   4.788  0.2780 -0.2338 -0.0647
17879TIP3    H175128   6.068   2.251   4.763  0.1426 -0.1354  0.2273
17879TIP3    H275129   6.131   2.379   4.814  0.8234  0.6218 -2.3481
17880TIP3   OH275130   3.590   3.993   4.059  1.0587 -0.0922 -0.2719
17880TIP3    H175131   3.632   3.935   3.996  0.5182 -0.9417  0.1438
17880TIP3    H275132   3.522   4.038   4.008  0.9656 -0.3908 -0.4127
17881TIP3   OH275133   2.828   3.258  13.227  0.7487  0.1571  0.6045
17881TIP3    H175134   2.787   3.305  13.155  1.2871 -0.1995  0.0556
17881TIP3    H275135   2.801   3.167  13.216  1.7337 -0.1033  0.1787
17882TIP3   OH275136   4.350   3.504   1.741  0.2102 -0.2148 -0.1849
17882TIP3    H175137   4.437   3.534   1.713  0.0539 -0.0182 -0.4646
17882TIP3    H275138   4.321   3.446   1.671  0.6319 -1.2784  0.4845
17883TIP3   OH275139   1.093   0.016  14.451 -0.0897 -0.2292  0.6508
17883TIP3    H175140   1.072   0.003  14.359  0.8472 -0.4131  0.4446
17883TIP3    H275141   1.174  -0.034  14.464 -0.5603 -0.7519  1.7409
17884TIP3   OH275142   6.774   1.886   2.334  0.2304 -0.1856  0.1804
17884TIP3    H175143   6.846   1.924   2.284 -1.7283 -0.9469 -3.5160
17884TIP3    H275144   6.697   1.934   2.306 -1.0162 -0.3436  2.9706
17885TIP3   OH275145   5.743   6.531  12.029 -0.3919  0.1252 -0.2955
17885TIP3    H175146   5.772   6.538  11.938 -1.2896  0.8061 -0.5409
17885TIP3    H275147   5.696   6.447  12.033  0.2424 -0.2335 -0.2812
17886TIP3   OH275148   2.734   3.683  15.138 -0.1962  0.3481  0.1938
17886TIP3    H175149   2.652   3.713  15.098  0.7607  2.6343 -0.2277
17886TIP3    H275150   2.719   3.590  15.156 -1.9015 -0.0000 -2.3849
17887TIP3   OH275151   5.465   3.776   1.296  0.8307  0.0534 -0.6635
17887TIP3    H175152   5.391   3.823   1.257  1.6273  0.6882 -1.4411
17887TIP3    H275153   5.535   3.841   1.301  1.3271 -0.5256  0.1257
17888TIP3   OH275154   2.205   1.817  11.358  0.7804  0.5546  0.5008
17888TIP3    H175155   2.209   1.742  11.417  2.3865 -0.2865 -0.5938
17888TIP3    H275156   2.221   1.892  11.415  3.4042 -0.3260  1.0805
17889TIP3   OH275157   0.995   3.694   1.242 -0.6458  0.3663  0.6939
17889TIP3    H175158   1.006   3.738   1.157 -0.3187 -0.0521  0.5109
17889TIP3    H275159   0.902   3.674   1.247 -0.5060 -0.5845 -0.0830
17890TIP3   OH275160   3.962   3.858   6.324 -0.1345  0.6009 -0.2293
17890TIP3    H175161   4.025   3.903   6.269 -0.4259  0.9755 -0.2587
17890TIP3    H275162   3.929   3.786   6.270 -0.8452  1.3078 -0.7564
17891TIP3   OH275163   3.722   3.119   5.892  0.0974  0.5597  0.0096
17891TIP3    H175164   3.720   3.071   5.975  1.0792  0.3706 -0.0547
17891TIP3    H275165   3.704   3.053   5.825 -2.6140  1.0540  0.1527
17892TIP3   OH275166   1.163   6.861  13.126  0.0829 -0.6770  0.1156
17892TIP3    H175167   1.149   6.888  13.217  0.0191 -0.9542  0.1868
17892TIP3    H275168   1.174   6.944  13.078  2.7683 -0.5573  0.7727
17893TIP3   OH275169   4.564   4.432  14.507  0.0429  0.0786  0.5684
17893TIP3    H175170   4.542   4.368  14.575  0.2322 -1.4609 -0.7510
17893TIP3    H275171   4.553   4.384  14.425 -1.3510  2.2267 -0.5930
17894TIP3   OH275172   0.922   1.745  16.020  0.2265  0.1818 -0.1831
17894TIP3    H175173   0.925   1.792  16.104  4.2043  1.4416 -0.8131
17894TIP3    H275174   0.911   1.814  15.955 -0.3975 -0.5356 -0.8530
17895TIP3   OH275175   0.245   4.746   2.852 -0.2589  0.0727 -1.1718
17895TIP3    H175176   0.296   4.680   2.805 -0.1482  1.4420 -3.0779
17895TIP3    H275177   0.310   4.798   2.898 -0.3324 -0.9861  0.1798
17896TIP3   OH275178   3.135   3.203  14.220  0.0783  0.0626 -0.3035
17896TIP3    H175179   3.081   3.261  14.165  1.3517  0.9298 -0.6963
17896TIP3    H275180   3.104   3.218  14.309 -0.9028 -0.1001 -0.6129
17897TIP3   OH275181   3.990   5.500  16.629  0.0049 -0.2825  0.0172
17897TIP3    H175182   4.052   5.475  16.698 -0.1943 -1.1818 -0.1186
17897TIP3    H275183   3.916   5.539  16.676 -0.6562 -1.9661  0.4294
17898TIP3   OH275184   2.690   5.019   0.720 -0.1834 -0.5385 -0.0529
17898TIP3    H175185   2.602   5.025   0.681 -0.0267 -0.5743 -0.4212
17898TIP3    H275186   2.738   5.092   0.679  0.5373 -1.7103 -1.3747
17899TIP3   OH275187   4.021   1.140  14.931  0.7535 -0.0502  0.1741
17899TIP3    H175188   3.937   1.127  14.975  0.7537  0.3311  0.2904
17899TIP3    H275189   4.006   1.213  14.871  1.0095  0.0414  0.2192
17900TIP3   OH275190   0.512   3.038   3.034  0.0226 -0.1149  0.0222
17900TIP3    H175191   0.467   2.963   2.996  0.3098  0.2877 -1.1843
17900TIP3    H275192   0.565   3.001   3.105 -0.2161 -0.9751 -0.2340
17901TIP3   OH275193   4.965   6.485  15.878  0.6871  0.0168 -0.0528
17901TIP3    H175194   5.033   6.546  15.847 -0.3065  0.3187 -1.7694
17901TIP3    H275195   4.897   6.542  15.913  1.0590 -0.2625  1.1562
17902TIP3   OH275196   3.401   4.349   2.314 -0.0728  0.5415  0.1160
17902TIP3    H175197   3.346   4.401   2.255 -0.5827  0.2728  0.3535
17902TIP3    H275198   3.478   4.405   2.329 -0.3562  0.9931 -0.0754
17903TIP3   OH275199   6.395   1.788  15.565  0.3559  0.4747  0.4492
17903TIP3    H175200   6.305   1.803  15.537  0.3271 -0.1801  0.1654
17903TIP3    H275201   6.445   1.861  15.530  0.1180  0.2676 -0.3265
17904TIP3   OH275202   1.327   1.396  14.288  0.2179  0.2284 -0.5614
17904TIP3    H175203   1.307   1.411  14.380  0.8255  1.5026 -0.6135
17904TIP3    H275204   1.414   1.434  14.276  1.2767 -2.1674 -1.0954
17905TIP3   OH275205   3.625   6.232  12.059 -0.0509  0.1214 -0.1635
17905TIP3    H175206   3.557   6.295  12.082 -1.6444 -1.3466 -0.6004
17905TIP3    H275207   3.600   6.201  11.972  0.2227 -1.6524  0.3503
17906TIP3   OH275208   1.477   4.634  14.178  0.3466  0.1432 -0.2656
17906TIP3    H175209   1.491   4.579  14.101  1.6094 -1.2665  0.9188
17906TIP3    H275210   1.562   4.675  14.194  0.2248  0.0565  0.6463
17907TIP3   OH275211   2.255   3.426  16.698  0.8465  0.1107 -0.3118
17907TIP3    H175212   2.197   3.429  16.622  0.5164 -0.5595 -0.0944
17907TIP3    H275213   2.211   3.479  16.764  0.4882 -0.3735 -0.1571
17908TIP3   OH275214   3.779   6.286  13.733 -0.4133  0.0460 -0.0504
17908TIP3    H175215   3.746   6.221  13.671 -1.0898 -0.8606  1.2064
17908TIP3    H275216   3.853   6.326  13.689  0.9877 -2.6271 -0.3399
17909TIP3   OH275217   4.353   6.045  11.805  0.4611  0.2383  0.2455
17909TIP3    H175218   4.345   6.016  11.714  0.6841 -1.0233  0.6125
17909TIP3    H275219   4.445   6.068  11.814  0.8250 -1.2284  0.5789
17910TIP3   OH275220   4.990   3.865   6.224  0.3621  0.3486 -1.0369
17910TIP3    H175221   5.042   3.805   6.278 -0.6162 -0.4386 -0.9361
17910TIP3    H275222   4.900   3.853   6.255 -0.0197  0.9429 -1.8815
17911TIP3   OH275223   4.080   1.071  13.943 -0.2631  0.3924  0.2676
17911TIP3    H175224   4.152   1.082  13.881 -0.6317 -2.6487 -0.8660
17911TIP3    H275225   4.113   1.009  14.007 -1.7034 -0.7470 -0.0403
17912TIP3   OH275226   1.892   2.777   5.218  0.4110 -0.3668 -0.3612
17912TIP3    H175227   1.894   2.692   5.261  1.2444  0.3534  1.0845
17912TIP3    H275228   1.890   2.841   5.289 -2.3907  0.8505 -1.3746
17913TIP3   OH275229   6.265   3.702   3.343  0.0192 -0.2972 -0.0878
17913TIP3    H175230   6.328   3.744   3.401  0.1628  0.2529 -0.6304
17913TIP3    H275231   6.198   3.665   3.401  0.3273 -0.0271  0.4366
17914TIP3   OH275232   6.636   0.803  12.420 -0.3586  0.0608  0.2085
17914TIP3    H175233   6.693   0.726  12.429 -0.1908  0.1577 -0.0161
17914TIP3    H275234   6.620   0.810  12.326  1.2470  1.4592 -0.0161
17915TIP3   OH275235   0.714   0.684   1.140 -0.4267 -0.1497 -0.3650
17915TIP3    H175236   0.753   0.688   1.053  0.7836 -0.6678  0.1327
17915TIP3    H275237   0.777   0.727   1.197 -0.5755 -0.9970  0.4611
17916TIP3   OH275238   5.008   1.065   6.241  0.1068  0.2503  0.9324
17916TIP3    H175239   5.041   0.996   6.299  0.8361  0.3138  0.6088
17916TIP3    H275240   5.086   1.097   6.195 -0.6852 -1.3219 -1.7380
17917TIP3   OH275241   4.313   1.390   5.617 -0.4584 -0.0058  0.4849
17917TIP3    H175242   4.284   1.472   5.657 -0.6074 -0.1442  0.6578
17917TIP3    H275243   4.397   1.413   5.576 -0.1048  0.0444  1.2080
17918TIP3   OH275244   0.950   6.079  11.394  0.2934  0.0996  0.1896
17918TIP3    H175245   1.010   6.116  11.459  2.4710 -0.8055 -1.1967
17918TIP3    H275246   0.907   6.007  11.441  2.3834 -1.0332  0.5392
17919TIP3   OH275247   6.031   2.846   2.959 -0.1002 -0.1246  0.1092
17919TIP3    H175248   5.942   2.829   2.929 -0.3471  2.0015 -0.5478
17919TIP3    H275249   6.085   2.837   2.881  0.4087 -2.0162  0.6233
17920TIP3   OH275250   0.891   0.017  14.864  0.1828  0.1297  0.0570
17920TIP3    H175251   0.915   0.052  14.950 -0.4100  0.1217  0.2278
17920TIP3    H275252   0.831  -0.054  14.883  2.1751 -1.7289 -0.2340
17921TIP3   OH275253   5.413   3.917  12.848  0.2165  0.1554 -0.1944
17921TIP3    H175254   5.409   3.956  12.936  0.5625 -0.8649  0.2909
17921TIP3    H275255   5.369   3.832  12.857 -0.4355  0.3672 -1.2086
17922TIP3   OH275256   5.417   2.556  12.205  0.5120  0.2655 -0.2011
17922TIP3    H175257   5.504   2.525  12.180  0.1684  0.9758 -2.4515
17922TIP3    H275258   5.401   2.632  12.149 -1.3350  0.4965  0.5678
17923TIP3   OH275259   6.569   2.561   2.648 -0.1507  0.1482  0.0568
17923TIP3    H175260   6.504   2.520   2.705 -2.8316  0.2365 -2.6711
17923TIP3    H275261   6.633   2.492   2.630 -2.1480 -1.5498 -0.9259
17924TIP3   OH275262   6.627   3.590  10.289 -0.1644  0.4151 -0.5265
17924TIP3    H175263   6.630   3.663  10.227 -1.1216 -0.4812 -1.6765
17924TIP3    H275264   6.627   3.512  10.234 -2.6023 -0.4099  0.4958
17925TIP3   OH275265   6.493   6.410   1.841 -0.9949  0.1177 -0.4206
17925TIP3    H175266   6.450   6.359   1.910 -0.2118 -1.0391 -0.7631
17925TIP3    H275267   6.533   6.345   1.784 -0.1306  1.1107 -0.9847
17926TIP3   OH275268   6.866   2.126  15.654 -0.1285 -0.3443 -0.0751
17926TIP3    H175269   6.897   2.163  15.572  0.3936 -1.2823 -0.3239
17926TIP3    H275270   6.915   2.044  15.663 -1.4300 -1.1091  0.3042
17927TIP3   OH275271   4.564   0.338  11.781 -0.1758 -0.1790  0.0859
17927TIP3    H175272   4.584   0.425  11.747 -3.3840  1.0540  1.0047
17927TIP3    H275273   4.527   0.290  11.707 -2.0144  0.6370  0.4175
17928TIP3   OH275274   3.151   4.630   5.460  0.3418  0.0906  0.2266
17928TIP3    H175275   3.101   4.550   5.477  0.6019 -0.7470 -2.5624
17928TIP3    H275276   3.241   4.607   5.484  0.2024  0.0244  0.7089
17929TIP3   OH275277   5.459   4.307  13.803  0.9070 -0.0714  0.2170
17929TIP3    H175278   5.485   4.345  13.719  0.1981  1.9141  0.8425
17929TIP3    H275279   5.364   4.300  13.798  0.9784 -1.3075  0.3287
17930TIP3   OH275280   1.026   6.104   2.602 -0.2754  0.2707 -0.0163
17930TIP3    H175281   0.985   6.190   2.587  1.6320  1.6390  2.0055
17930TIP3    H275282   1.045   6.103   2.696 -0.8182 -2.7017  0.1625
17931TIP3   OH275283   5.077   0.373  11.001 -0.0679 -0.0513  0.2615
17931TIP3    H175284   5.019   0.429  11.053  1.0704 -1.1017  2.8494
17931TIP3    H275285   5.028   0.293  10.986 -0.3978  0.2519 -0.2908
17932TIP3   OH275286   2.458   4.809  13.164 -0.8956 -0.1382  0.3961
17932TIP3    H175287   2.499   4.771  13.086 -2.1316  0.8875 -0.8060
17932TIP3    H275288   2.457   4.903  13.147 -1.3090  0.0978  1.6162
17933TIP3   OH275289   3.800   5.967  12.184  0.1434  0.3183  0.0535
17933TIP3    H175290   3.878   6.007  12.146 -0.0646  0.2120 -0.4905
17933TIP3    H275291   3.763   5.914  12.113 -0.1263 -0.0583  0.4708
17934TIP3   OH275292   6.030   3.519  15.370 -0.1011  0.2843  0.3016
17934TIP3    H175293   6.042   3.571  15.290  0.9220 -1.3009 -0.6496
17934TIP3    H275294   5.995   3.435  15.338 -1.3668  0.2362  1.7321
17935TIP3   OH275295   5.790   5.600  15.457 -0.3937 -0.2671 -0.3348
17935TIP3    H175296   5.715   5.607  15.398 -0.4580 -0.4410 -0.2723
17935TIP3    H275297   5.839   5.524  15.426  0.4793  0.6036 -1.2043
17936TIP3   OH275298   6.107   6.789  11.714  0.5154  0.2048 -0.0567
17936TIP3    H175299   6.166   6.805  11.640  0.1440 -0.2221 -0.4507
17936TIP3    H275300   6.090   6.695  11.711  0.9147  0.0877  0.8919
17937TIP3   OH275301   0.437   4.215   4.994 -0.6767 -0.5056 -0.2928
17937TIP3    H175302   0.474   4.215   4.906  0.6805  0.2730  0.2352
17937TIP3    H275303   0.440   4.307   5.020 -1.7465 -0.6303  0.2930
17938TIP3   OH275304   2.506   0.026   1.896 -0.2685  0.2327 -0.4859
17938TIP3    H175305   2.514   0.106   1.844 -1.3461  1.0098  0.5068
17938TIP3    H275306   2.588   0.020   1.945  0.3584  0.0018 -1.5249
17939TIP3   OH275307   2.841   5.654   3.370  0.1987 -0.2884  0.1541
17939TIP3    H175308   2.808   5.593   3.304  1.2399 -0.1827 -0.5002
17939TIP3    H275309   2.768   5.667   3.430 -0.6706 -0.6659 -0.7873
17940TIP3   OH275310   2.284   4.511  16.561 -0.1306 -0.1762 -0.0017
17940TIP3    H175311   2.188   4.520  16.562 -0.2643 -1.2400 -0.9574
17940TIP3    H275312   2.299   4.420  16.538  1.1316 -0.3275  1.2847
17941TIP3   OH275313   4.938   6.734   2.408  0.0194 -0.1710 -0.5909
17941TIP3    H175314   4.999   6.797   2.371 -0.4922  0.0370 -1.0899
17941TIP3    H275315   4.865   6.732   2.346  0.4468 -1.9562 -1.0889
17942TIP3   OH275316   1.925   5.435   2.866 -0.0746 -0.4662  0.7105
17942TIP3    H175317   1.963   5.453   2.952  0.6916  0.3158  0.2205
17942TIP3    H275318   1.888   5.518   2.838  0.4369 -0.4965 -0.0810
17943TIP3   OH275319   3.261   3.989   3.952 -0.1152 -0.6826 -0.2704
17943TIP3    H175320   3.265   4.083   3.968 -1.2593 -0.3344 -1.8592
17943TIP3    H275321   3.225   3.953   4.033 -1.1412  0.4359 -0.1999
17944TIP3   OH275322   1.854   2.435  13.043 -0.2327  0.1140 -0.0388
17944TIP3    H175323   1.897   2.451  12.959  2.9607 -0.2070  1.3885
17944TIP3    H275324   1.873   2.343  13.063  2.3477  1.0740  2.6081
17945TIP3   OH275325   5.445   6.276  12.532 -0.2182 -0.0453  0.0475
17945TIP3    H175326   5.365   6.328  12.543  0.2399  0.7081 -0.1661
17945TIP3    H275327   5.441   6.211  12.602 -2.0270 -1.3455 -1.1627
17946TIP3   OH275328   3.982   4.853  13.294 -0.2888 -0.0008 -0.2677
17946TIP3    H175329   3.987   4.770  13.246 -0.3493  0.7114 -1.5491
17946TIP3    H275330   3.977   4.920  13.226 -2.0661  0.9706  0.7436
17947TIP3   OH275331   0.176   2.279  16.505 -0.4516  0.1676 -0.0538
17947TIP3    H175332   0.158   2.372  16.493 -0.3028 -0.0183 -1.9204
17947TIP3    H275333   0.254   2.261  16.453  1.7564 -0.3170  3.1239
17948TIP3   OH275334   4.020   4.224  12.084 -0.0102  0.5503  0.0676
17948TIP3    H175335   4.106   4.256  12.060  0.7655  1.5724  3.6228
17948TIP3    H275336   3.981   4.195  12.002  3.4315  0.6409 -1.7621
17949TIP3   OH275337   5.279   5.944   0.360  0.2490 -0.2264 -0.3920
17949TIP3    H175338   5.236   5.989   0.433  0.5386 -1.8170  0.8180
17949TIP3    H275339   5.208   5.912   0.306 -0.1675 -2.1802  1.1907
17950TIP3   OH275340   4.572   1.321   2.977 -0.5694  0.5521 -0.4226
17950TIP3    H175341   4.564   1.403   2.927 -0.8763 -1.0118 -3.1531
17950TIP3    H275342   4.662   1.323   3.010  0.0393  1.2197 -1.9927
17951TIP3   OH275343   1.314   1.181  11.924 -0.5096 -0.3762 -0.1873
17951TIP3    H175344   1.364   1.133  11.990 -1.0504 -0.0558  0.4821
17951TIP3    H275345   1.223   1.169  11.950 -0.7210 -0.0693 -0.7621
17952TIP3   OH275346   4.148   3.531   3.880 -0.0707 -0.1611 -0.8589
17952TIP3    H175347   4.217   3.558   3.941 -0.3399  0.3622 -0.7721
17952TIP3    H275348   4.069   3.573   3.914 -0.0878  0.7768 -1.9864
17953TIP3   OH275349   0.036   6.879  14.224  0.2205 -0.8396  0.7145
17953TIP3    H175350   0.048   6.815  14.293 -2.2277 -2.9988 -0.7025
17953TIP3    H275351  -0.056   6.905  14.230  0.8036  1.6283  0.3909
17954TIP3   OH275352   4.428   5.092   3.579  0.0565  0.1515  0.1616
17954TIP3    H175353   4.439   5.111   3.486  3.3814 -0.7263  0.2482
17954TIP3    H275354   4.438   5.177   3.622 -0.7224  0.4436 -0.2142
17955TIP3   OH275355   4.478   2.931   2.917 -0.3820 -0.2115 -0.3720
17955TIP3    H175356   4.417   2.979   2.860  0.0039  0.6300 -0.0979
17955TIP3    H275357   4.509   2.858   2.863  0.1404  0.6847 -1.3484
17956TIP3   OH275358   4.981   3.147  14.878  0.2367 -0.0253  0.1935
17956TIP3    H175359   4.926   3.098  14.939 -0.5678 -0.3788 -0.7905
17956TIP3    H275360   4.918   3.191  14.820  0.9787  0.8004 -0.0011
17957TIP3   OH275361   2.164   6.777  13.083  0.3130 -0.1345 -0.1590
17957TIP3    H175362   2.193   6.694  13.046  1.3942  0.3388 -0.4154
17957TIP3    H275363   2.227   6.841  13.050 -0.4340  0.7746  0.1284
17958TIP3   OH275364   3.405   4.347  15.590  0.0565 -0.6917  0.1739
17958TIP3    H175365   3.326   4.312  15.633 -0.1433  0.3239  0.6648
17958TIP3    H275366   3.374   4.379  15.506 -0.1013 -0.1188  0.4455
17959TIP3   OH275367   2.248   1.748  14.526 -0.1765 -0.6159  0.4583
17959TIP3    H175368   2.238   1.666  14.574 -0.3135  0.1300  1.7419
17959TIP3    H275369   2.162   1.764  14.488 -0.7603 -0.0086  1.9735
17960TIP3   OH275370   3.202   1.794  16.669  0.6940  0.1564 -0.0271
17960TIP3    H175371   3.224   1.880  16.705 -0.2385 -0.0556  1.0785
17960TIP3    H275372   3.167   1.814  16.582 -1.4953  1.1394  0.9886
17961TIP3   OH275373   5.600   3.620  14.449  0.2322  0.3475 -0.0180
17961TIP3    H175374   5.647   3.701  14.469  2.2526 -0.4279 -1.2863
17961TIP3    H275375   5.590   3.622  14.354 -0.1573 -0.6565 -0.0005
17962TIP3   OH275376   3.726   3.817  16.741  0.0632 -0.1329  0.4276
17962TIP3    H175377   3.711   3.910  16.757  0.7324  0.3367 -1.4152
17962TIP3    H275378   3.757   3.783  16.825  0.6344  1.4970  0.9223
17963TIP3   OH275379   1.080   6.563  10.875 -0.4867 -0.0436 -0.3407
17963TIP3    H175380   1.023   6.499  10.833 -1.2423  0.8582 -0.7168
17963TIP3    H275381   1.025   6.604  10.942  0.2697 -0.4333  0.5517
17964TIP3   OH275382   2.990   2.669  16.772  0.2638  0.0504  0.5812
17964TIP3    H175383   3.044   2.645  16.697  1.6976  1.2078  1.1963
17964TIP3    H275384   2.996   2.594  16.831  1.0546  0.0970  0.5658
17965TIP3   OH275385   1.276   5.846  14.823 -0.2960  0.0752 -0.0916
17965TIP3    H175386   1.247   5.828  14.913  0.1164 -0.5585 -0.0757
17965TIP3    H275387   1.325   5.928  14.830  1.4520 -0.9728  0.6580
17966TIP3   OH275388   1.009   4.125   6.417 -0.1062 -0.2747  0.4762
17966TIP3    H175389   0.972   4.210   6.440  1.4794  0.6334 -0.2315
17966TIP3    H275390   1.083   4.114   6.476 -0.5198 -1.3519  0.8153
17967TIP3   OH275391   4.972   3.956   3.398  0.3091  0.3727  0.9019
17967TIP3    H175392   4.902   3.914   3.347 -0.5286 -0.3690  2.5988
17967TIP3    H275393   5.023   4.005   3.333  2.5006 -4.5682 -1.6619
17968TIP3   OH275394   6.570   5.542   1.421 -0.1588  0.1515 -0.0158
17968TIP3    H175395   6.589   5.455   1.386 -1.3587 -0.2123  0.1689
17968TIP3    H275396   6.550   5.527   1.514 -0.4560  0.6019 -0.0002
17969TIP3   OH275397   6.829   5.492   0.826  0.1733  0.1937  0.3990
17969TIP3    H175398   6.760   5.432   0.797  0.1139 -0.7926  2.3753
17969TIP3    H275399   6.782   5.572   0.850 -0.1017  0.0551  0.3357
17970TIP3   OH275400   1.577   2.519  12.506  0.0397 -0.4750 -0.3181
17970TIP3    H175401   1.616   2.603  12.532  1.6902 -1.0022 -0.9521
17970TIP3    H275402   1.533   2.538  12.423  0.9428 -0.3435 -0.7833
17971TIP3   OH275403   1.216   2.014   1.195  0.3300 -0.4903  0.1185
17971TIP3    H175404   1.222   1.919   1.207 -0.7810 -0.4321  1.4278
17971TIP3    H275405   1.296   2.048   1.235  1.2412 -0.9182 -1.2883
17972TIP3   OH275406   0.801   4.195  11.651  0.4056  0.3061  0.3250
17972TIP3    H175407   0.744   4.241  11.713  1.2473  0.3349  1.1117
17972TIP3    H275408   0.833   4.264  11.592  0.9085  0.5894  0.9092
17973TIP3   OH275409   1.930   4.178  14.212 -0.5395 -0.0445 -0.4526
17973TIP3    H175410   1.998   4.171  14.279 -0.8816  1.4294  0.0922
17973TIP3    H275411   1.882   4.258  14.235  0.2129  1.3069 -3.2592
17974TIP3   OH275412   0.428   2.507  14.046  0.6260  0.4364 -0.3912
17974TIP3    H175413   0.501   2.550  14.090  0.5136  1.0698 -0.8060
17974TIP3    H275414   0.351   2.535  14.096  0.6090  0.2400 -0.3065
17975TIP3   OH275415   2.862   1.976   4.387 -0.2649 -0.0103 -0.2289
17975TIP3    H175416   2.882   1.909   4.453 -1.0474 -0.3470 -0.3250
17975TIP3    H275417   2.789   1.940   4.337 -1.8011  1.5774  0.7307
17976TIP3   OH275418   1.655   1.452  11.011  0.0955 -0.1771 -0.4934
17976TIP3    H175419   1.640   1.513  10.938  0.6680  1.0818  0.4156
17976TIP3    H275420   1.749   1.437  11.011 -0.1433 -2.0032 -1.4041
17977TIP3   OH275421   5.068   2.493  14.186  0.2251 -0.1573  0.1126
17977TIP3    H175422   5.036   2.583  14.181 -0.1077 -0.3207 -1.0461
17977TIP3    H275423   4.990   2.438  14.176  0.4940 -0.5727  0.2487
17978TIP3   OH275424   6.117   2.950  15.305  0.1193  0.6106  0.3901
17978TIP3    H175425   6.173   3.015  15.347 -0.9467  0.3818  2.2818
17978TIP3    H275426   6.046   3.000  15.267 -0.2414  0.6435  1.0898
17979TIP3   OH275427   5.292   0.499   0.253 -0.2304  0.0888  0.7469
17979TIP3    H175428   5.354   0.437   0.213 -3.0340 -1.9601 -0.7496
17979TIP3    H275429   5.292   0.475   0.346 -1.0981 -2.1626  0.2388
17980TIP3   OH275430   0.174   0.580   5.646 -0.1696  0.2974 -0.2349
17980TIP3    H175431   0.120   0.505   5.622 -1.8148  0.7071  1.9231
17980TIP3    H275432   0.112   0.644   5.681  1.7554  0.2164  3.8450
17981TIP3   OH275433   0.224   2.851   0.715 -0.1507 -0.3990 -0.2001
17981TIP3    H175434   0.304   2.903   0.721  0.0812 -0.7858  0.0876
17981TIP3    H275435   0.191   2.868   0.627  0.0001  0.1211 -0.1589
17982TIP3   OH275436   1.113   5.461   3.686  0.1228  0.1913 -0.0504
17982TIP3    H175437   1.063   5.536   3.654 -0.6876 -0.6809 -0.8931
17982TIP3    H275438   1.047   5.395   3.708  0.8809 -1.0955 -1.4569
17983TIP3   OH275439   1.066   2.062   6.243 -0.0005  0.2687  0.2371
17983TIP3    H175440   0.997   2.068   6.310 -0.3204 -3.1344  0.3933
17983TIP3    H275441   1.137   2.117   6.277 -1.0620  0.5269  2.1892
17984TIP3   OH275442   6.184   2.195   0.486  0.4123 -0.2273  0.1331
17984TIP3    H175443   6.137   2.137   0.546  1.9756 -0.8999  0.7568
17984TIP3    H275444   6.276   2.183   0.508  0.8598  1.5977 -0.5545
17985TIP3   OH275445   4.703   0.716   4.254  0.5325 -0.2140  0.2255
17985TIP3    H175446   4.710   0.780   4.325  2.8154 -0.1649  0.0433
17985TIP3    H275447   4.627   0.745   4.203  1.3190  2.2318  0.2938
17986TIP3   OH275448   1.258   0.332  12.381 -0.1087 -0.2094 -0.0986
17986TIP3    H175449   1.246   0.427  12.373  2.0312 -0.0574 -3.5172
17986TIP3    H275450   1.187   0.295  12.330 -0.4137 -0.4515  0.4880
17987TIP3   OH275451   3.966   3.844   5.307 -0.4951 -0.4513 -0.5640
17987TIP3    H175452   3.961   3.905   5.233  1.1657  0.2333 -0.1777
17987TIP3    H275453   4.049   3.866   5.350 -1.4342 -0.7997  1.5470
17988TIP3   OH275454   2.603   5.223  14.620  0.0223  0.2791  0.3334
17988TIP3    H175455   2.651   5.147  14.654  1.7921  1.8247  1.4679
17988TIP3    H275456   2.604   5.286  14.692 -4.2604  0.2881  0.6563
17989TIP3   OH275457   4.134   2.472  11.245  0.1186 -0.4023  0.0656
17989TIP3    H175458   4.102   2.530  11.314 -1.2424 -1.1099  0.0545
17989TIP3    H275459   4.229   2.472  11.256 -0.1125 -1.2214  2.5401
17990TIP3   OH275460   3.501   5.376  14.263 -0.2540 -0.4505 -0.3566
17990TIP3    H175461   3.496   5.299  14.320  0.2200 -0.1022  0.1622
17990TIP3    H275462   3.518   5.340  14.176  0.7129 -0.8927  0.0004
17991TIP3   OH275463   6.436   3.018   1.966  0.3791  0.1131  0.1874
17991TIP3    H175464   6.399   3.105   1.958 -2.0547 -0.9174 -0.8222
17991TIP3    H275465   6.474   2.999   1.880 -1.0620 -0.5827 -0.3366
17992TIP3   OH275466   4.382   1.325   4.717  0.3735 -0.0241 -0.1606
17992TIP3    H175467   4.329   1.370   4.783  1.1089  2.8001 -1.3458
17992TIP3    H275468   4.452   1.283   4.767  0.8478  1.9581  0.9401
17993TIP3   OH275469   1.544   0.340   1.112  0.4343 -0.1617  0.4456
17993TIP3    H175470   1.574   0.408   1.053  2.1743 -0.9437  0.3586
17993TIP3    H275471   1.505   0.387   1.186 -2.1947  0.8287 -1.4372
17994TIP3   OH275472   1.691   5.381  12.359 -0.8865 -0.0279  0.8117
17994TIP3    H175473   1.726   5.399  12.272  0.2801 -1.7350  0.8746
17994TIP3    H275474   1.687   5.467  12.401 -1.1278  0.7803 -0.7795
17995TIP3   OH275475   4.620   0.680  15.239  0.2212 -0.7406 -0.4013
17995TIP3    H175476   4.645   0.613  15.175 -0.1992 -0.3471 -0.9872
17995TIP3    H275477   4.607   0.759  15.187  0.8045 -0.1753  0.3038
17996TIP3   OH275478   0.464   0.640  11.400  0.3936 -0.6101  0.2965
17996TIP3    H175479   0.400   0.668  11.465  0.0033 -0.8269  0.0095
17996TIP3    H275480   0.434   0.554  11.371  1.6583 -1.4165  1.2623
17997TIP3   OH275481   2.570   4.727   0.761  0.0823 -0.0007 -0.3444
17997TIP3    H175482   2.556   4.812   0.719  0.0720  0.4825  0.6008
17997TIP3    H275483   2.506   4.669   0.720 -0.3063  0.5960 -0.5948
17998TIP3   OH275484   3.735   2.292  14.236  0.7999 -0.1493 -0.1724
17998TIP3    H175485   3.644   2.320  14.233  1.4545  2.2206 -0.1133
17998TIP3    H275486   3.758   2.274  14.145 -0.0021 -1.8958 -0.0634
17999TIP3   OH275487   2.066   0.250  15.529 -0.4005 -0.0359 -0.0685
17999TIP3    H175488   2.060   0.248  15.433  2.1632 -0.8338 -0.2916
17999TIP3    H275489   1.978   0.227  15.559 -0.9790 -0.9359 -2.2494
18000TIP3   OH275490   2.861   4.563   4.576 -0.8051  0.2127 -0.4319
18000TIP3    H175491   2.784   4.525   4.617 -0.7724  0.5190 -0.0815
18000TIP3    H275492   2.874   4.511   4.496 -1.5589  0.3679 -0.6576
18001TIP3   OH275493   1.239   1.207  16.777  0.0798 -0.3676 -0.3305
18001TIP3    H175494   1.197   1.158  16.848  0.5963  1.1288  1.0673
18001TIP3    H275495   1.323   1.163  16.765  0.2528 -0.2783  0.4435
18002TIP3   OH275496   0.357   3.424  14.756  0.1062 -0.0803 -0.0480
18002TIP3    H175497   0.328   3.504  14.800  0.5768  0.4169 -0.6286
18002TIP3    H275498   0.442   3.405  14.796 -0.6551 -1.1500  1.1594
18003TIP3   OH275499   4.464   4.804  15.657  0.0457  0.1054 -0.2771
18003TIP3    H175500   4.412   4.866  15.709  2.4971  2.8703 -0.8519
18003TIP3    H275501   4.441   4.823  15.566  1.2538  0.6984 -0.4879
18004TIP3   OH275502   6.144   3.031  10.760 -0.6064 -0.2065 -0.4797
18004TIP3    H175503   6.069   3.073  10.717  0.2211  0.7795 -1.0095
18004TIP3    H275504   6.196   2.995  10.688  1.8304  3.1553 -0.6691
18005TIP3   OH275505   2.650   2.401  13.908  0.1559  0.4254 -0.1596
18005TIP3    H175506   2.706   2.478  13.904 -0.1851  0.7290  0.7031
18005TIP3    H275507   2.710   2.327  13.917  0.4385  0.7175  0.3860
18006TIP3   OH275508   6.173   2.588   0.656  0.1355 -0.1839 -0.4628
18006TIP3    H175509   6.094   2.545   0.688  0.2900 -0.8719 -0.9929
18006TIP3    H275510   6.159   2.681   0.676 -1.0355 -0.2226 -1.0046
18007TIP3   OH275511   3.521   0.910   2.815  0.6742  0.5156  0.2523
18007TIP3    H175512   3.432   0.879   2.831  0.3904  0.7305 -0.8197
18007TIP3    H275513   3.516   1.005   2.827  0.4480  0.6849 -1.0567
18008TIP3   OH275514   6.771   1.105  11.779  0.3108 -0.2020 -0.4076
18008TIP3    H175515   6.694   1.068  11.738  0.0242  0.3366 -0.3652
18008TIP3    H275516   6.757   1.200  11.776  0.9308 -0.1030 -0.3291
18009TIP3   OH275517   4.122   4.576   4.602 -0.0158  0.0335  0.4830
18009TIP3    H175518   4.206   4.614   4.627  0.3192 -0.1364 -0.3292
18009TIP3    H275519   4.070   4.650   4.570 -0.2239  0.1558  1.0930
18010TIP3   OH275520   3.209   0.112   3.020  0.1764  0.0765  0.1925
18010TIP3    H175521   3.119   0.144   3.021  0.6291  1.4255  1.8417
18010TIP3    H275522   3.226   0.086   3.110  1.6434  0.4286  0.0323
18011TIP3   OH275523   5.360   4.953   1.055 -0.1622  0.0761  0.7171
18011TIP3    H175524   5.408   4.930   1.135  0.6248 -3.0922 -0.4916
18011TIP3    H275525   5.284   4.895   1.056 -1.6281  1.9181  0.4106
18012TIP3   OH275526   1.333   3.661  15.751 -0.6243  0.3271 -1.1228
18012TIP3    H175527   1.328   3.602  15.675  0.9102 -1.6673  0.2170
18012TIP3    H275528   1.243   3.670  15.781 -0.8604 -1.7245 -1.1231
18013TIP3   OH275529   2.712   3.223  16.466  0.4065  0.2882  0.0854
18013TIP3    H175530   2.756   3.281  16.404 -0.4673  0.5378 -0.3079
18013TIP3    H275531   2.768   3.225  16.544  0.2162  1.9329  0.2127
18014TIP3   OH275532   1.737   1.701  13.355  0.5486  0.1114 -0.1679
18014TIP3    H175533   1.791   1.779  13.366  0.7854  0.0087 -0.5812
18014TIP3    H275534   1.700   1.710  13.267  3.1992 -1.8142 -1.6360
18015TIP3   OH275535   5.864   4.557  15.769 -0.1926 -0.3538  0.0279
18015TIP3    H175536   5.873   4.462  15.767 -2.3598 -0.6168 -2.3312
18015TIP3    H275537   5.953   4.590  15.771  0.7285 -2.4513 -1.8597
18016TIP3   OH275538   1.101   1.695  16.832  0.0520 -0.3440  0.6281
18016TIP3    H175539   1.033   1.721  16.894 -0.4553 -0.2116  0.0313
18016TIP3    H275540   1.146   1.776  16.810 -1.3037  0.0233 -0.9651
18017TIP3   OH275541   2.752   4.573  13.311 -0.8524  0.5648  0.5516
18017TIP3    H175542   2.841   4.590  13.342 -0.6841  0.3384  0.1993
18017TIP3    H275543   2.718   4.505  13.369  0.2389 -1.4634 -1.0534
18018TIP3   OH275544   2.721   1.748   5.725  0.4839 -0.0436  0.1683
18018TIP3    H175545   2.811   1.760   5.756 -0.2105  3.1987  1.2832
18018TIP3    H275546   2.720   1.789   5.639  0.0640 -0.0775  0.1571
18019TIP3   OH275547   6.164   6.597   3.870  0.4364  0.0416  0.2696
18019TIP3    H175548   6.199   6.681   3.840  1.9892  0.3014  2.4897
18019TIP3    H275549   6.086   6.620   3.921  0.7181  0.1413  0.6644
18020TIP3   OH275550   5.447   1.093   0.204  0.4888 -0.0680  0.3363
18020TIP3    H175551   5.394   1.154   0.255 -1.6845 -1.5625 -0.0048
18020TIP3    H275552   5.435   1.008   0.247  0.6176 -0.8961 -1.1754
18021TIP3   OH275553   3.288   3.665   4.236  0.3321  0.1316  0.0410
18021TIP3    H175554   3.226   3.737   4.238 -2.0101 -1.6730 -1.6827
18021TIP3    H275555   3.258   3.606   4.305 -0.5377 -1.2048 -1.4265
18022TIP3   OH275556   6.723   0.860  11.395  0.1062  0.0396 -0.4732
18022TIP3    H175557   6.754   0.770  11.411  0.8575  0.3860  0.1037
18022TIP3    H275558   6.775   0.913  11.455 -1.5574  0.6785  0.4319
18023TIP3   OH275559   6.125   1.396   3.595  0.7223 -0.4575 -0.1714
18023TIP3    H175560   6.141   1.463   3.529  1.7228 -0.3965  0.1209
18023TIP3    H275561   6.033   1.407   3.619  1.0418  1.2736  0.3800
18024TIP3   OH275562   2.552   2.712   2.235  0.2966  0.2484  0.4714
18024TIP3    H175563   2.631   2.751   2.273  0.7397 -0.0890 -0.0786
18024TIP3    H275564   2.585   2.644   2.176 -0.4430 -1.5297  1.9833
18025TIP3   OH275565   5.137   4.913  11.805 -0.2415 -0.8763  0.6887
18025TIP3    H175566   5.057   4.947  11.845 -0.1207  2.7746 -1.7297
18025TIP3    H275567   5.109   4.880  11.720  0.8333  1.0468 -0.4571
18026TIP3   OH275568   3.745   3.894  12.032 -0.0543  0.1248 -0.0602
18026TIP3    H175569   3.658   3.861  12.011  0.0598  0.0170 -0.3681
18026TIP3    H275570   3.755   3.973  11.979  0.6678 -0.7581 -1.2836
18027TIP3   OH275571   4.617   3.376  13.722 -0.7165 -0.2585  0.1098
18027TIP3    H175572   4.658   3.340  13.644 -1.4796 -1.4454  0.2407
18027TIP3    H275573   4.570   3.454  13.690 -0.2578 -0.1966 -0.4323
18028TIP3   OH275574   6.795   1.826   1.530 -0.1451 -0.0650  0.6416
18028TIP3    H175575   6.814   1.795   1.441  3.5289 -1.8570  1.8653
18028TIP3    H275576   6.703   1.804   1.544 -0.1205 -2.2020 -1.7873
18029TIP3   OH275577   2.630   3.772  16.916  0.2737  0.1964 -0.1743
18029TIP3    H175578   2.551   3.748  16.867 -0.3780  0.4577  0.7218
18029TIP3    H275579   2.703   3.748  16.858 -0.4250 -1.2641 -0.4774
18030TIP3   OH275580   1.300   0.550   0.014 -0.5272  0.3192  0.3778
18030TIP3    H175581   1.383   0.503   0.024  0.2123  1.3150 -0.7721
18030TIP3    H275582   1.326   0.643   0.013 -1.5419  0.6132 -0.8921
18031TIP3   OH275583   0.254   3.796  11.998  0.2285  0.3402  0.2110
18031TIP3    H175584   0.278   3.886  11.977  0.0951  0.3297  0.0107
18031TIP3    H275585   0.160   3.798  12.014  0.3614  0.3811  1.0113
18032TIP3   OH275586   6.519   2.949   4.473 -0.5064 -0.1439  0.0673
18032TIP3    H175587   6.434   2.917   4.503  0.4601 -2.4376  0.5661
18032TIP3    H275588   6.503   2.980   4.384 -2.3002  1.6809  0.9504
18033TIP3   OH275589   3.364   2.792   1.502 -0.6220  0.1104  0.0355
18033TIP3    H175590   3.336   2.828   1.418  1.0875  0.0356 -0.5991
18033TIP3    H275591   3.424   2.857   1.538 -0.5341 -0.3286  0.7018
18034TIP3   OH275592   6.052   0.885   4.376 -0.0647 -0.7652  0.5928
18034TIP3    H175593   6.076   0.977   4.391 -0.9753  0.0309 -2.1909
18034TIP3    H275594   5.958   0.882   4.393 -0.3314 -0.7835 -0.7951
18035TIP3   OH275595   6.200   4.107  14.506  0.3529  0.1443 -0.1751
18035TIP3    H175596   6.135   4.047  14.468 -0.9456  1.1127  0.4250
18035TIP3    H275597   6.172   4.118  14.597  2.2467 -0.5554  0.5518
18036TIP3   OH275598   3.914   5.831  13.060 -0.3200 -0.3232 -0.3812
18036TIP3    H175599   3.963   5.894  13.007  0.4617 -0.2712  0.3711
18036TIP3    H275600   3.899   5.757  13.001  1.6779 -0.8276 -0.3470
18037TIP3   OH275601   1.023   0.083   0.156  0.4754 -0.1987 -0.7019
18037TIP3    H175602   1.032   0.051   0.245  0.8000  0.1775 -0.5979
18037TIP3    H275603   0.929   0.086   0.140  0.4243 -0.4291 -0.4312
18038TIP3   OH275604   4.353   0.921   1.453  0.1121  0.4800 -0.0637
18038TIP3    H175605   4.281   0.959   1.504 -0.5984 -0.4706 -0.3253
18038TIP3    H275606   4.311   0.888   1.373  0.8926  0.2026 -0.3687
18039TIP3   OH275607   4.132   1.514   4.404 -0.1224 -0.5108  0.0482
18039TIP3    H175608   4.136   1.472   4.319  2.5247 -0.4467  0.0775
18039TIP3    H275609   4.207   1.573   4.406  0.9949 -1.8268  3.0753
18040TIP3   OH275610   2.831   3.399  14.266 -0.2221  0.8157  0.4630
18040TIP3    H175611   2.897   3.345  14.310 -0.1300  0.5368 -0.0109
18040TIP3    H275612   2.777   3.336  14.218  0.4925  1.2192 -0.9124
18041TIP3   OH275613   5.389   5.051   3.128  0.6122  0.8913  0.3147
18041TIP3    H175614   5.300   5.030   3.097  0.8256  2.2139 -1.3822
18041TIP3    H275615   5.376   5.124   3.189  0.4338  0.1754  1.1475
18042TIP3   OH275616   3.110   1.984   2.604 -0.2764  0.1503  0.0628
18042TIP3    H175617   3.108   1.910   2.665 -3.2472  0.6003  0.6600
18042TIP3    H275618   3.076   2.058   2.655  0.7831  1.4839 -1.0907
18043TIP3   OH275619   2.417   6.854  12.878  0.1251 -0.5263  0.5892
18043TIP3    H175620   2.482   6.799  12.921  0.8752 -1.1004 -1.1850
18043TIP3    H275621   2.369   6.794  12.820  0.2235  0.4685 -0.5662
18044TIP3   OH275622   4.426   1.225  12.935 -0.5630  0.3350  0.3650
18044TIP3    H175623   4.404   1.147  12.985 -0.5354  0.8942  1.2809
18044TIP3    H275624   4.379   1.215  12.852  1.2537 -1.7250 -0.4980
18045TIP3   OH275625   1.572   6.758   4.412 -0.2280  0.2321 -0.1284
18045TIP3    H175626   1.648   6.808   4.381 -0.8072  0.4171 -1.3201
18045TIP3    H275627   1.595   6.667   4.393 -0.0017  0.2216  0.1901
18046TIP3   OH275628   4.908   6.277   1.980  0.0649  0.3610  0.1912
18046TIP3    H175629   4.856   6.246   2.054  0.0109  0.0365  0.0178
18046TIP3    H275630   4.946   6.359   2.011 -0.0709  0.2998  0.5297
18047TIP3   OH275631   0.454   2.796   0.399  0.4559 -0.2655 -0.2854
18047TIP3    H175632   0.467   2.889   0.420  1.9041 -0.7647  1.2753
18047TIP3    H275633   0.434   2.795   0.306 -1.5760  1.7603  0.0508
18048TIP3   OH275634   6.072   1.793   4.241 -0.9290  0.1130 -0.4024
18048TIP3    H175635   6.035   1.769   4.326 -0.8426 -1.0606 -0.6657
18048TIP3    H275636   6.104   1.710   4.205  2.5470  1.1022  0.0665
18049TIP3   OH275637   4.679   5.795  16.213 -0.3854 -0.1448 -0.2381
18049TIP3    H175638   4.767   5.806  16.250  0.1748  0.6445 -1.7360
18049TIP3    H275639   4.646   5.715  16.255  1.2163 -0.7173  0.0196
18050TIP3   OH275640   6.064   1.921  15.803 -0.2854  0.3083 -0.0499
18050TIP3    H175641   6.106   1.892  15.884 -1.4362  0.0767  0.4850
18050TIP3    H275642   6.100   2.008  15.788  1.4277 -0.4293 -0.3842
18051TIP3   OH275643   0.923   3.272  10.802  0.2232  0.0940  0.2910
18051TIP3    H175644   0.944   3.297  10.893 -0.5584  0.8001  0.2856
18051TIP3    H275645   0.902   3.354  10.759  4.8590  0.5160 -1.7829
18052TIP3   OH275646   4.746   0.887   5.240 -0.4376 -0.0045  0.1414
18052TIP3    H175647   4.667   0.843   5.270 -0.7549  0.5301  0.0986
18052TIP3    H275648   4.784   0.828   5.174 -1.1410  0.0352 -0.3023
18053TIP3   OH275649   3.423   4.646   0.721  0.0475  0.4193  0.3521
18053TIP3    H175650   3.340   4.609   0.750 -0.3125  1.2956  0.4683
18053TIP3    H275651   3.422   4.736   0.753  0.4685  0.8399 -0.7718
18054TIP3   OH275652   5.373   0.822  15.810 -0.6485 -0.6304 -0.0845
18054TIP3    H175653   5.388   0.740  15.764  0.2318 -0.0075 -0.9447
18054TIP3    H275654   5.383   0.801  15.902 -2.4777 -1.9213 -0.1103
18055TIP3   OH275655   3.183   1.753   3.454  0.2993 -0.1159 -0.0319
18055TIP3    H175656   3.263   1.794   3.489  0.4909 -0.5258  0.0130
18055TIP3    H275657   3.115   1.820   3.465  0.2773 -0.3415  1.4467
18056TIP3   OH275658   5.630   1.824   2.524 -0.5397 -0.0210 -0.1713
18056TIP3    H175659   5.569   1.844   2.595 -0.1395 -0.2372  0.2374
18056TIP3    H275660   5.711   1.800   2.568  0.1984  1.3262 -0.7106
18057TIP3   OH275661   4.336   6.317  11.016 -0.8325 -0.0332 -0.9151
18057TIP3    H175662   4.258   6.290  10.969 -1.0527 -0.1855 -0.4658
18057TIP3    H275663   4.390   6.361  10.950 -1.1040 -0.3061 -1.3226
18058TIP3   OH275664   0.375   4.483   5.374  0.3899  0.2267  0.2696
18058TIP3    H175665   0.360   4.422   5.446  0.1198  2.0264  1.8069
18058TIP3    H275666   0.430   4.552   5.411  0.5928  1.0012 -1.3640
18059TIP3   OH275667   2.411   1.437  13.446 -0.0159  0.5202 -0.1894
18059TIP3    H175668   2.473   1.381  13.399 -0.1835 -0.0429  0.2590
18059TIP3    H275669   2.420   1.412  13.538  0.4473  1.7453  0.1199
18060TIP3   OH275670   4.472   6.778  14.038  0.3056 -0.5391  0.4578
18060TIP3    H175671   4.380   6.805  14.028  0.0201 -1.1986  1.2361
18060TIP3    H275672   4.520   6.836  13.979 -0.8053 -1.3318 -1.3035
18061TIP3   OH275673   1.178   3.019  16.695  0.1337  0.1438  0.2700
18061TIP3    H175674   1.163   3.067  16.777 -1.0341  1.1797 -0.5056
18061TIP3    H275675   1.098   3.034  16.644  0.3081 -1.5362 -0.5595
18062TIP3   OH275676   2.022   3.651  12.304  0.1277 -0.4641 -0.3877
18062TIP3    H175677   2.085   3.682  12.368  1.3247  0.6078 -2.0156
18062TIP3    H275678   2.027   3.556  12.309  0.1339 -0.4104  1.1182
18063TIP3   OH275679   6.679   0.698  11.037 -0.1011  0.2880 -0.2274
18063TIP3    H175680   6.651   0.663  11.121  2.2969  1.2273  1.0708
18063TIP3    H275681   6.679   0.623  10.978 -0.4920 -0.6748  0.9694
18064TIP3   OH275682   1.809   3.316  12.948 -0.2083  0.1743  0.3116
18064TIP3    H175683   1.748   3.302  13.021 -0.6840  1.0686  0.1051
18064TIP3    H275684   1.824   3.411  12.949  0.1323  0.1280 -0.4803
18065TIP3   OH275685   4.640   5.481   3.066  0.2376  0.2083  0.3287
18065TIP3    H175686   4.565   5.519   3.112 -0.9167 -0.1372 -1.1879
18065TIP3    H275687   4.717   5.522   3.106 -0.8206  1.5539  1.0352
18066TIP3   OH275688   1.870   4.420  16.235 -0.3404 -0.0435  0.2148
18066TIP3    H175689   1.934   4.467  16.182  0.4140  0.0800  1.1979
18066TIP3    H275690   1.810   4.380  16.172  1.5720 -1.4328 -0.8173
18067TIP3   OH275691   3.018   2.121  16.217  0.2022  0.2334  0.1641
18067TIP3    H175692   3.040   2.042  16.166 -0.3677  0.0444  0.2048
18067TIP3    H275693   3.096   2.138  16.269  1.2456  1.0725 -1.5677
18068TIP3   OH275694   6.134   4.918   3.911  0.2444  0.6775 -0.0631
18068TIP3    H175695   6.106   4.829   3.931 -0.0447  0.9575  0.8292
18068TIP3    H275696   6.058   4.972   3.933  0.8470  1.2669  0.6477
18069TIP3   OH275697   6.426   4.030  12.412  0.0620 -0.1222  0.4479
18069TIP3    H175698   6.372   3.996  12.340  0.0453  2.1040 -0.6611
18069TIP3    H275699   6.367   4.086  12.462  0.8945  1.0231  0.1896
18070TIP3   OH275700   1.669   5.144  14.360 -0.2564  0.1882 -0.3106
18070TIP3    H175701   1.694   5.054  14.378 -0.4468  0.1433 -0.2651
18070TIP3    H275702   1.749   5.195  14.375 -0.3949  0.1517  0.6384
18071TIP3   OH275703   6.480   3.217   0.062  0.2481 -0.5883 -0.3320
18071TIP3    H175704   6.389   3.200   0.039  0.2245 -1.5273  0.4077
18071TIP3    H275705   6.518   3.254  -0.018 -0.7709 -0.1781 -0.6453
18072TIP3   OH275706   2.590   2.784  12.303  0.7289  0.7315  0.4549
18072TIP3    H175707   2.665   2.733  12.274  0.3303 -0.3772  1.3151
18072TIP3    H275708   2.619   2.828  12.383  0.2464 -0.3084  1.2198
18073TIP3   OH275709   4.885   5.718  16.766  0.3490  0.7333 -0.0039
18073TIP3    H175710   4.816   5.669  16.810 -0.3003  0.5885 -1.1311
18073TIP3    H275711   4.961   5.660  16.768 -0.0000  0.2672 -0.0775
18074TIP3   OH275712   4.184   1.542  14.023 -0.0496  0.2015  0.2224
18074TIP3    H175713   4.210   1.474  14.085 -1.7451 -0.3225  0.4158
18074TIP3    H275714   4.169   1.619  14.077  1.3052  0.5954  0.0731
18075TIP3   OH275715   4.590   0.427   5.359  0.2295 -0.0745 -0.0555
18075TIP3    H175716   4.601   0.522   5.366  0.1184 -0.0169 -0.5905
18075TIP3    H275717   4.495   0.414   5.357  0.2398 -0.2233  0.3035
18076TIP3   OH275718   1.055   4.884   5.252 -0.5222 -0.1384 -0.2160
18076TIP3    H175719   1.086   4.974   5.253 -2.2795  0.5151  0.5323
18076TIP3    H275720   1.132   4.831   5.230  0.1972  1.6610 -2.4110
18077TIP3   OH275721   1.004   1.456   5.102 -0.0457  0.3570 -0.0369
18077TIP3    H175722   0.955   1.522   5.152 -0.1431  1.8297 -1.9452
18077TIP3    H275723   0.936   1.405   5.058  0.0522 -0.6257  0.9134
18078TIP3   OH275724   4.007   5.808  12.782 -0.4072 -0.4368 -0.1882
18078TIP3    H175725   4.046   5.791  12.696  1.4395 -0.5255  0.6258
18078TIP3    H275726   4.011   5.903  12.791 -0.6776 -0.4213 -0.2438
18079TIP3   OH275727   0.429   0.531  15.826 -0.0253 -0.0181  0.1485
18079TIP3    H175728   0.410   0.625  15.827 -0.8922 -0.1861  0.5017
18079TIP3    H275729   0.525   0.525  15.831  0.1523  0.8672 -1.5880
18080TIP3   OH275730   3.160   3.571   2.294  0.0519  0.4628 -0.3347
18080TIP3    H175731   3.082   3.566   2.239  0.1300  0.1409 -0.4165
18080TIP3    H275732   3.149   3.652   2.344  0.5243  1.3679 -1.6547
18081TIP3   OH275733   0.145   6.811   5.994 -0.2464 -0.6840 -0.1956
18081TIP3    H175734   0.098   6.884   5.956 -0.4185 -0.4215  0.5188
18081TIP3    H275735   0.077   6.748   6.019 -0.1218 -0.9367 -0.4772
18082TIP3   OH275736   1.865   1.065  12.448 -0.5712  0.0247 -0.7105
18082TIP3    H175737   1.915   1.026  12.376 -0.9784  0.8845 -1.4750
18082TIP3    H275738   1.793   1.112  12.405 -0.8645  0.4936  0.2614
18083TIP3   OH275739   4.418   1.721  10.953 -0.0002  1.0004 -0.3073
18083TIP3    H175740   4.345   1.778  10.974 -0.7533 -0.0373 -0.0389
18083TIP3    H275741   4.400   1.689  10.864  0.6423  1.5083 -0.6307
18084TIP3   OH275742   4.672   5.197  12.411  0.0447  0.3223 -0.0793
18084TIP3    H175743   4.716   5.154  12.338 -0.4562 -1.8821  0.8292
18084TIP3    H275744   4.580   5.199  12.386 -0.0042  0.4094  0.1012
18085TIP3   OH275745   5.174   2.734   2.494  0.3122 -0.1760  0.3865
18085TIP3    H175746   5.158   2.678   2.569  0.4748 -0.6931  0.0399
18085TIP3    H275747   5.245   2.691   2.446 -0.7049 -0.6129 -0.8016
18086TIP3   OH275748   1.388   0.610   2.640 -0.5294 -0.3084  0.0888
18086TIP3    H175749   1.315   0.551   2.625 -0.1586 -0.5545 -0.8313
18086TIP3    H275750   1.362   0.692   2.599 -0.5093 -0.2325  0.2273
18087TIP3   OH275751   4.614   1.699   6.415  0.4705 -0.7989 -0.4927
18087TIP3    H175752   4.641   1.626   6.471  1.9783 -0.7062 -1.0461
18087TIP3    H275753   4.672   1.694   6.339 -1.7820 -1.1501 -2.2841
18088TIP3   OH275754   0.575   1.897  15.518  0.1504 -0.0898 -0.0634
18088TIP3    H175755   0.527   1.907  15.601 -1.9384 -0.2392 -1.1758
18088TIP3    H275756   0.666   1.882  15.545 -0.3471  0.4470  2.1738
18089TIP3   OH275757   4.395   1.424  13.254 -0.3450  0.0167 -0.1295
18089TIP3    H175758   4.345   1.482  13.311  0.6238 -1.1108  1.9908
18089TIP3    H275759   4.349   1.341  13.258  0.2328 -0.3140 -0.2898
18090TIP3   OH275760   2.939   2.059   6.073  0.3483  0.2180  0.4084
18090TIP3    H175761   2.880   2.121   6.115  1.4554  0.8286  1.1040
18090TIP3    H275762   3.019   2.109   6.056  1.4591 -1.1212  1.4589
18091TIP3   OH275763   0.717   2.289  14.060 -0.1902  0.2675  0.2337
18091TIP3    H175764   0.661   2.364  14.041  0.2977  0.9576  1.4303
18091TIP3    H275765   0.682   2.219  14.005 -1.5904  0.9583  0.1959
18092TIP3   OH275766   1.371   0.109   4.026  0.0316  0.1598  0.2656
18092TIP3    H175767   1.285   0.071   4.006  0.7846 -1.1733 -0.5702
18092TIP3    H275768   1.381   0.179   3.962 -0.0133 -0.3637 -0.3325
18093TIP3   OH275769   3.922   4.850   2.390  0.7838  0.0998 -0.3159
18093TIP3    H175770   3.877   4.784   2.337  1.5320  0.4568 -1.4089
18093TIP3    H275771   3.886   4.934   2.361 -0.2727  0.2055  1.1755
18094TIP3   OH275772   5.030   5.599  16.199 -0.7490 -0.4567 -0.0847
18094TIP3    H175773   4.973   5.557  16.134 -0.9420 -0.4062  0.0522
18094TIP3    H275774   5.118   5.573  16.173 -0.7861 -0.0366 -0.6584
18095TIP3   OH275775   0.775   6.722   0.184  0.2955  0.3971  0.1621
18095TIP3    H175776   0.781   6.749   0.276 -0.5671 -1.4926  0.8339
18095TIP3    H275777   0.763   6.804   0.136  1.9199  1.5448  1.5815
18096TIP3   OH275778   5.061   0.705   3.934 -0.0421 -0.1836 -0.0491
18096TIP3    H175779   5.022   0.699   3.847  0.8002 -0.8443 -0.3958
18096TIP3    H275780   4.998   0.661   3.991  0.4040 -1.7125 -0.6832
18097TIP3   OH275781   0.419   1.458  14.746  0.0355  0.3003  0.0353
18097TIP3    H175782   0.398   1.450  14.840  0.8587  1.4342  0.3284
18097TIP3    H275783   0.383   1.378  14.708  0.7936 -0.8160  1.5186
18098TIP3   OH275784   2.028   6.199  15.257  0.0923 -0.1637  0.0093
18098TIP3    H175785   2.101   6.155  15.301 -1.5607 -1.5043  1.5099
18098TIP3    H275786   2.012   6.277  15.311 -0.2140 -0.3865  0.2391
18099TIP3   OH275787   1.457   4.077   2.916  0.3783 -0.2614 -0.6758
18099TIP3    H175788   1.446   4.143   2.848  0.1514  1.5685  1.0267
18099TIP3    H275789   1.368   4.047   2.935  0.3581 -0.2013 -0.6740
18100TIP3   OH275790   2.589   3.513  11.952  0.6940 -0.2801 -0.1173
18100TIP3    H175791   2.670   3.461  11.948  1.4361  0.7886  0.4893
18100TIP3    H275792   2.618   3.602  11.932 -0.7751 -0.2756 -2.6292
18101TIP3   OH275793   0.913   6.604  15.339  0.2871  0.1598  0.5689
18101TIP3    H175794   0.902   6.683  15.286  0.1870 -0.3223 -0.1419
18101TIP3    H275795   0.832   6.595  15.388 -1.0343 -1.2050 -1.6936
18102TIP3   OH275796   6.697   0.061  16.782 -0.5141 -0.5658 -0.5766
18102TIP3    H175797   6.651  -0.022  16.776 -1.7694 -0.0088  0.7150
18102TIP3    H275798   6.746   0.057  16.865  0.0643 -0.3254 -0.8965
18103TIP3   OH275799   4.725   0.269   0.561  0.5079 -0.1718  0.3176
18103TIP3    H175800   4.807   0.311   0.538 -0.3688  0.3968 -2.0722
18103TIP3    H275801   4.681   0.331   0.619  1.4439 -0.1590  1.0180
18104TIP3   OH275802   2.705   1.012   3.155  0.0261 -0.0718 -0.0307
18104TIP3    H175803   2.725   0.921   3.178  0.1605  0.1621  0.8029
18104TIP3    H275804   2.614   1.009   3.123  0.1654 -0.5569 -0.3961
18105TIP3   OH275805   3.664   1.332  16.808  0.4865  0.2668 -0.8611
18105TIP3    H175806   3.580   1.360  16.845 -0.6116  0.3885 -3.2890
18105TIP3    H275807   3.693   1.261  16.866 -1.4140  0.0278 -0.1192
18106TIP3   OH275808   4.461   4.984   2.916 -0.3567 -0.3722  0.1162
18106TIP3    H175809   4.393   4.919   2.934 -0.7847 -0.2830 -1.0837
18106TIP3    H275810   4.454   5.001   2.822  1.3406 -0.3877 -0.0586
18107TIP3   OH275811   3.163   2.128   4.824  0.4111  0.5824  0.1471
18107TIP3    H175812   3.093   2.077   4.782  1.1579 -0.2091 -0.1772
18107TIP3    H275813   3.174   2.204   4.767  1.6761 -0.6705 -1.3889
18108TIP3   OH275814   3.512   6.048   4.846 -0.4576 -0.4794 -0.4557
18108TIP3    H175815   3.538   5.958   4.867  0.2747  0.0153  0.8886
18108TIP3    H275816   3.581   6.080   4.788 -0.2848 -0.5396 -0.2871
18109TIP3   OH275817   1.481   0.104   0.016  0.8372  0.3024  0.0509
18109TIP3    H175818   1.529   0.103  -0.066  0.7662  0.1570  0.0112
18109TIP3    H275819   1.469   0.197   0.035 -0.7848  0.3767 -1.0728
18110TIP3   OH275820   0.677   5.747  15.984 -0.5409 -0.3819  0.2408
18110TIP3    H175821   0.690   5.721  15.892 -0.2790 -3.3863  1.0253
18110TIP3    H275822   0.584   5.731  16.000 -0.9289  1.5023  0.2040
18111TIP3   OH275823   4.556   1.467   1.947 -0.0624  0.0497  0.1702
18111TIP3    H175824   4.479   1.481   1.893 -2.5488 -3.4981  2.4119
18111TIP3    H275825   4.543   1.524   2.023  1.5291  2.1928 -1.0584
18112TIP3   OH275826   5.877   1.646   3.869 -0.1514 -0.1579 -0.4987
18112TIP3    H175827   5.878   1.562   3.823 -1.0535 -0.5349  0.1361
18112TIP3    H275828   5.831   1.706   3.809  0.4609 -0.1196 -0.9365
18113TIP3   OH275829   0.639   3.704   3.257 -0.3369  0.2805  0.0208
18113TIP3    H175830   0.555   3.748   3.242 -0.7854 -0.3216  0.6738
18113TIP3    H275831   0.621   3.611   3.239  0.3191  0.2197 -0.3335
18114TIP3   OH275832   4.579   4.310   2.174 -0.6257 -0.2065  0.3163
18114TIP3    H175833   4.611   4.221   2.185 -1.1385 -0.2359  1.8293
18114TIP3    H275834   4.624   4.360   2.242 -0.0611  0.7784 -0.7508
18115TIP3   OH275835   2.239   1.779  14.875  0.7937 -0.4340  0.7898
18115TIP3    H175836   2.313   1.778  14.814  0.8921  0.1158  0.8934
18115TIP3    H275837   2.195   1.695  14.861  0.2933  0.0416 -0.6738
18116TIP3   OH275838   3.448   3.640  10.888 -1.5050 -0.0709 -0.4453
18116TIP3    H175839   3.495   3.583  10.827 -2.9878 -0.7757 -0.9854
18116TIP3    H275840   3.472   3.729  10.861 -1.7417 -0.3758 -1.7635
18117TIP3   OH275841   5.285   6.314  13.041  0.1593 -0.8251  0.6959
18117TIP3    H175842   5.210   6.295  12.986  0.7074  1.4769 -0.9891
18117TIP3    H275843   5.358   6.266  13.001  0.5666  0.8787 -0.7276
18118TIP3   OH275844   4.588   5.177   4.304 -0.3549  0.0999 -0.2157
18118TIP3    H175845   4.644   5.114   4.258 -0.1490 -0.5739  0.9185
18118TIP3    H275846   4.630   5.261   4.288  1.7011 -0.4886  1.4782
18119TIP3   OH275847   4.809   3.520   2.029 -0.6019  0.0987  0.0559
18119TIP3    H175848   4.865   3.597   2.020 -2.8796  2.0076  1.0686
18119TIP3    H275849   4.820   3.472   1.947 -0.6995  2.6870 -1.5932
18120TIP3   OH275850   6.518   1.511   5.978 -0.1253 -0.1800 -0.2333
18120TIP3    H175851   6.462   1.513   6.056 -0.3013 -0.6584 -0.3424
18120TIP3    H275852   6.483   1.438   5.926 -0.6400  0.7376 -1.2278
18121TIP3   OH275853   3.742   1.612  10.638  0.1659 -0.8243 -0.0013
18121TIP3    H175854   3.835   1.596  10.657  0.4607  0.4299 -0.3497
18121TIP3    H275855   3.736   1.706  10.625 -0.3126 -1.2808 -4.5308
18122TIP3   OH275856   2.386   2.052  14.250 -0.1086  0.0988 -0.1701
18122TIP3    H175857   2.442   1.985  14.290 -0.8001 -1.2277 -1.3474
18122TIP3    H275858   2.335   2.087  14.323  0.9328  0.0249  0.6142
18123TIP3   OH275859   4.919   0.690   3.712  0.5246 -0.2602  0.0976
18123TIP3    H175860   4.937   0.688   3.618  1.7002  0.9327  0.2647
18123TIP3    H275861   4.826   0.711   3.719  0.8183  1.4657 -0.8022
18124TIP3   OH275862   3.269   0.207  16.077  0.1653  0.2926 -0.7004
18124TIP3    H175863   3.317   0.282  16.113 -1.0023  0.5372  0.4381
18124TIP3    H275864   3.198   0.192  16.140  1.3351 -2.8548  0.0283
18125TIP3   OH275865   6.199   6.191   0.714  0.0859 -0.0424  0.4634
18125TIP3    H175866   6.295   6.190   0.706  0.2276 -0.5130  1.9142
18125TIP3    H275867   6.181   6.266   0.771 -0.4803  0.4166 -0.2945
18126TIP3   OH275868   3.815   2.205  16.044  0.2098  0.0553 -0.0796
18126TIP3    H175869   3.790   2.232  16.133  0.5256  0.3909 -0.0921
18126TIP3    H275870   3.839   2.286  16.000  0.8514 -0.2071 -0.2175
18127TIP3   OH275871   3.776   2.589   5.973 -0.5623  0.2713 -0.5534
18127TIP3    H175872   3.763   2.495   5.959  0.5969 -0.0261  0.2507
18127TIP3    H275873   3.699   2.617   6.022 -0.9072 -0.2554 -0.7829
18128TIP3   OH275874   4.840   3.978  11.911 -0.2436  0.1984 -0.1448
18128TIP3    H175875   4.815   4.066  11.939 -2.0703 -1.0818  2.6590
18128TIP3    H275876   4.924   3.962  11.954 -0.7371 -0.0277  0.7470
18129TIP3   OH275877   0.207   1.997   1.135 -0.0792  0.3193 -0.7170
18129TIP3    H175878   0.153   2.034   1.065 -1.5215 -0.0705  0.1499
18129TIP3    H275879   0.190   1.903   1.132 -1.3229  0.4324  1.0426
18130TIP3   OH275880   0.609   2.587   3.289 -0.6114  0.1955  0.2987
18130TIP3    H175881   0.586   2.549   3.373  2.0157 -0.0325  0.9887
18130TIP3    H275882   0.704   2.576   3.282 -0.6785  0.5645 -2.5222
18131TIP3   OH275883   2.172   1.822   1.998  0.7758 -0.0068  0.6171
18131TIP3    H175884   2.133   1.735   1.997  2.0955 -0.6223  0.6139
18131TIP3    H275885   2.190   1.839   2.090  0.2717  0.3768  0.6443
18132TIP3   OH275886   1.879   2.340   3.019  0.0643  0.6731  0.4068
18132TIP3    H175887   1.844   2.418   2.976  1.7839  1.0821 -0.3176
18132TIP3    H275888   1.968   2.331   2.985 -0.4072 -2.2063 -0.3196
18133TIP3   OH275889   5.170   0.149  14.046  0.3708 -0.0334 -0.6823
18133TIP3    H175890   5.114   0.088  14.094 -0.6544 -0.0666 -1.8597
18133TIP3    H275891   5.192   0.217  14.110 -1.8315  0.4943 -0.3941
18134TIP3   OH275892   0.881   5.672  14.076  0.0182  0.1292 -0.0296
18134TIP3    H175893   0.958   5.721  14.046  0.6278 -1.3310 -0.9593
18134TIP3    H275894   0.893   5.584  14.041 -0.7272 -0.8957  2.0792
18135TIP3   OH275895   6.065   2.633  15.442 -0.2158  0.0260  0.5459
18135TIP3    H175896   5.998   2.651  15.509  0.2260  1.5506  0.6235
18135TIP3    H275897   6.102   2.719  15.422 -0.3496 -0.3724 -1.6955
18136TIP3   OH275898   5.575   0.960  16.910 -0.3174 -0.4206 -0.5476
18136TIP3    H175899   5.495   0.909  16.920 -0.2530 -0.6382 -1.1348
18136TIP3    H275900   5.607   0.939  16.823  0.7305 -0.8349 -0.0836
18137TIP3   OH275901   5.081   0.298  12.363  0.4935  0.2736  0.3737
18137TIP3    H175902   5.088   0.258  12.449  0.0105  0.4181  0.4853
18137TIP3    H275903   5.162   0.274  12.318 -0.2107 -1.6804  0.0620
18138TIP3   OH275904   3.746   4.050  15.002  0.7759  0.1924 -0.1646
18138TIP3    H175905   3.681   4.120  14.995 -0.5436 -0.9107  0.5661
18138TIP3    H275906   3.810   4.082  15.065  2.0894  2.0989 -2.2918
18139TIP3   OH275907   6.530   5.009  11.335 -0.0825 -0.1917  0.2998
18139TIP3    H175908   6.522   5.009  11.430 -2.6928 -0.7510  0.1631
18139TIP3    H275909   6.604   5.066  11.316 -1.2945  2.3536  2.5706
18140TIP3   OH275910   4.329   6.667  15.949  0.5637 -0.1900 -0.5513
18140TIP3    H175911   4.381   6.697  16.023  0.2957 -0.7366 -0.1365
18140TIP3    H275912   4.253   6.726  15.948  0.1654 -0.6895  0.1031
18141TIP3   OH275913   0.219   5.339  15.782  0.2492 -0.4492  0.1175
18141TIP3    H175914   0.230   5.430  15.755  1.4503 -1.1338 -1.9029
18141TIP3    H275915   0.205   5.344  15.877 -0.7359  1.8792 -0.0713
18142TIP3   OH275916   1.509   0.306   3.031  0.6127  0.2622  0.1049
18142TIP3    H175917   1.479   0.389   2.994  0.9451  0.5555  0.4836
18142TIP3    H275918   1.568   0.270   2.964  0.2930  0.2219 -0.1569
18143TIP3   OH275919   0.431   6.160   2.104 -0.4177 -0.0582 -0.1311
18143TIP3    H175920   0.504   6.113   2.063 -1.5829 -0.8190 -1.4370
18143TIP3    H275921   0.406   6.105   2.178  0.8891  0.6721  0.8856
18144TIP3   OH275922   3.210   6.004   3.790  0.0773  0.4140  0.1479
18144TIP3    H175923   3.216   6.025   3.696 -0.6260 -0.0678 -0.0116
18144TIP3    H275924   3.297   6.026   3.825 -0.2180  2.4042 -0.2371
18145TIP3   OH275925   0.703   5.463   2.416 -0.0520  0.9741 -0.2861
18145TIP3    H175926   0.734   5.385   2.463 -2.9315  0.1810  0.4581
18145TIP3    H275927   0.771   5.528   2.431  1.3398 -0.6832  1.0491
18146TIP3   OH275928   5.004   3.862  16.762 -0.6746  0.5248 -0.0876
18146TIP3    H175929   4.914   3.894  16.768 -1.1429 -0.6829 -0.4063
18146TIP3    H275930   5.030   3.847  16.853 -1.3012 -0.4368 -0.0510
18147TIP3   OH275931   5.896   5.797   2.769  0.3064 -0.1545 -0.6358
18147TIP3    H175932   5.961   5.856   2.731  0.5781 -0.0059  0.0476
18147TIP3    H275933   5.863   5.746   2.695  0.3715  0.5658 -1.1646
18148TIP3   OH275934   5.758   2.262  13.341  0.1044 -0.1563  0.6539
18148TIP3    H175935   5.823   2.330  13.359 -1.1823  0.8235  1.8394
18148TIP3    H275936   5.786   2.187  13.393  1.9914 -0.8967 -1.2961
18149TIP3   OH275937   4.488   3.949  13.963 -0.4496 -0.2830 -0.3073
18149TIP3    H175938   4.541   3.965  14.041 -1.2604  2.2221 -0.1867
18149TIP3    H275939   4.548   3.964  13.890 -0.5081  0.6429 -0.1685
18150TIP3   OH275940   3.751   2.017  12.412  0.2130 -0.4442 -1.0066
18150TIP3    H175941   3.807   2.049  12.483 -0.3543 -2.3627  0.3927
18150TIP3    H275942   3.811   2.005  12.339  0.8205  1.5416 -0.8960
18151TIP3   OH275943   5.562   0.756  16.419 -0.2193  0.4012  0.2442
18151TIP3    H175944   5.506   0.833  16.413 -0.7818  0.0274  0.5636
18151TIP3    H275945   5.502   0.684  16.441  0.4798  0.1226  1.3026
18152TIP3   OH275946   0.452   5.800   1.177  0.1140  0.1345 -0.3714
18152TIP3    H175947   0.366   5.775   1.143 -0.1086  2.5036 -1.7745
18152TIP3    H275948   0.474   5.731   1.239 -2.6311 -0.7469 -0.2372
18153TIP3   OH275949   2.468   1.113  13.105 -0.5391  0.4692  0.3540
18153TIP3    H175950   2.403   1.043  13.112 -0.2099  0.2967  2.7613
18153TIP3    H275951   2.457   1.163  13.186  0.0261  2.5302 -0.7789
18154TIP3   OH275952   2.497   1.970  15.527  0.3086  0.1264 -0.0587
18154TIP3    H175953   2.495   1.990  15.434 -0.8955  0.8382  0.1054
18154TIP3    H275954   2.417   1.921  15.544 -1.2404  2.8380  1.1602
18155TIP3   OH275955   1.452   4.740   2.644 -0.0798 -0.1098 -0.3690
18155TIP3    H175956   1.543   4.711   2.634  0.3758  0.8987  0.7013
18155TIP3    H275957   1.436   4.741   2.738 -0.7060  1.1775 -0.4602
18156TIP3   OH275958   5.956   5.411  12.491 -0.1027  0.6691  0.2630
18156TIP3    H175959   6.022   5.475  12.513 -1.1091  2.5550 -1.8198
18156TIP3    H275960   5.877   5.462  12.475 -1.4900 -1.2889  0.4701
18157TIP3   OH275961   1.961   6.652   1.641 -0.1531 -0.3277 -0.1919
18157TIP3    H175962   1.917   6.736   1.634  0.9211  0.1308 -2.4504
18157TIP3    H275963   1.934   6.604   1.562  0.1272 -1.6529  0.4870
18158TIP3   OH275964   5.456   0.542  15.708  0.0322 -0.0361 -0.3750
18158TIP3    H175965   5.487   0.458  15.739 -0.7249 -0.1053  0.2029
18158TIP3    H275966   5.531   0.601  15.718 -0.1779 -0.0391  1.6474
18159TIP3   OH275967   5.688   0.371   0.181 -0.1572 -0.0497  0.4921
18159TIP3    H175968   5.688   0.383   0.086  1.6091  0.2296  0.4937
18159TIP3    H275969   5.773   0.405   0.210 -0.3148 -0.8839  2.0747
18160TIP3   OH275970   1.851   2.619  13.422  0.6767 -0.8975 -0.1599
18160TIP3    H175971   1.910   2.598  13.349  0.1467 -1.5769 -0.4034
18160TIP3    H275972   1.841   2.536  13.469  0.6343 -0.5747  0.4104
18161TIP3   OH275973   5.473   4.772  14.889 -0.0755  0.0792  0.0024
18161TIP3    H175974   5.433   4.701  14.938 -1.0409 -0.5902 -1.6534
18161TIP3    H275975   5.516   4.826  14.955 -0.2958 -1.4018  1.4187
18162TIP3   OH275976   1.590   4.241  13.121  0.1163  0.0711 -0.3463
18162TIP3    H175977   1.577   4.159  13.072 -1.7463  1.0661 -1.6809
18162TIP3    H275978   1.645   4.294  13.064 -0.7919  0.6674 -0.6896
18163TIP3   OH275979   5.914   0.264  16.238 -0.1898 -0.3302  0.3196
18163TIP3    H175980   5.946   0.219  16.316 -1.8965 -0.1524  1.1468
18163TIP3    H275981   5.823   0.286  16.257 -0.2426  0.9611 -1.1804
18164TIP3   OH275982   2.327   2.385   4.043  0.6438  0.5575  0.2565
18164TIP3    H175983   2.390   2.440   4.089  0.2016  0.7498  0.6362
18164TIP3    H275984   2.249   2.439   4.036  0.1238 -0.1082  0.8505
18165TIP3   OH275985   6.060   0.978  11.196 -0.1520  0.0376  0.4120
18165TIP3    H175986   6.002   1.020  11.132  0.5138  1.2239  0.5583
18165TIP3    H275987   6.146   0.981  11.155  0.2619  0.7052  1.3138
18166TIP3   OH275988   2.907   6.525  11.872  0.0746 -0.0024  0.0922
18166TIP3    H175989   2.935   6.501  11.784  0.5908 -1.2831  0.5889
18166TIP3    H275990   2.836   6.464  11.892 -2.0612  2.1491 -0.5180
18167TIP3   OH275991   4.949   4.610   4.360 -0.2273  0.3493  0.0738
18167TIP3    H175992   4.867   4.578   4.323 -0.8884  0.4858  1.3748
18167TIP3    H275993   4.985   4.536   4.409  0.6577  0.1584 -0.8210
18168TIP3   OH275994   6.601   6.478   6.119 -0.3110  0.3462 -0.2893
18168TIP3    H175995   6.558   6.507   6.199  1.1475  0.8161  0.3758
18168TIP3    H275996   6.591   6.383   6.119  1.6628  0.0539  1.7432
18169TIP3   OH275997   5.828   4.938  11.652 -0.6349 -0.4693  0.2204
18169TIP3    H175998   5.778   4.951  11.733  0.1682  1.4370  0.4664
18169TIP3    H275999   5.779   4.986  11.586  0.6590  1.2619  0.4249
18170TIP3   OH276000   1.942   2.950   1.153  0.7893  0.6867  0.0711
18170TIP3    H176001   2.033   2.974   1.137  0.8320  1.2973  1.1350
18170TIP3    H276002   1.896   2.975   1.073  1.1766  2.5683  0.3718
18171TIP3   OH276003   0.350   5.072  14.907  0.0169 -0.0184 -0.0570
18171TIP3    H176004   0.299   5.047  14.830  0.7063 -1.4984 -0.0641
18171TIP3    H276005   0.440   5.051  14.883  0.2210 -0.6372  1.1999
18172TIP3   OH276006   4.127   5.326  15.255  0.2077  0.1000 -0.2402
18172TIP3    H176007   4.097   5.236  15.268  0.4177  0.0275 -0.2468
18172TIP3    H276008   4.064   5.364  15.194  0.4257 -0.2077 -0.6622
18173TIP3   OH276009   1.290   5.366   2.208  0.4981 -0.5688 -0.7475
18173TIP3    H176010   1.314   5.456   2.232 -1.4085 -0.4661  1.1165
18173TIP3    H276011   1.371   5.316   2.219  0.9810  0.4845  0.8653
18174TIP3   OH276012   6.825   2.957  16.834  0.0482 -0.3126 -0.5343
18174TIP3    H176013   6.790   2.891  16.894  0.9684 -1.5419 -1.3009
18174TIP3    H276014   6.864   2.907  16.762  0.5147  1.0736 -1.3004
18175TIP3   OH276015   1.888   1.887   1.679 -0.3934 -0.4715 -0.1340
18175TIP3    H176016   1.883   1.919   1.770  2.3205 -3.1607  1.0990
18175TIP3    H276017   1.960   1.936   1.640 -1.8900  1.0638 -1.1280
18176TIP3   OH276018   3.403   1.904  11.809 -0.1400 -0.8324  0.1206
18176TIP3    H176019   3.330   1.846  11.787  0.4246 -1.1378 -1.0388
18176TIP3    H276020   3.480   1.859  11.775  0.6721 -0.7428  1.7332
18177TIP3   OH276021   1.750   6.531   5.020 -0.4590 -0.0663  0.0661
18177TIP3    H176022   1.705   6.615   5.007 -1.5059 -0.5436  0.4777
18177TIP3    H276023   1.775   6.531   5.112 -1.7766 -0.7994  0.4556
18178TIP3   OH276024   0.867   6.729  13.726 -0.3674  0.2670  0.2197
18178TIP3    H176025   0.874   6.718  13.821 -2.0716  2.3850  0.6865
18178TIP3    H276026   0.785   6.685  13.703  1.1315 -2.2583 -0.7640
18179TIP3   OH276027   3.690   5.567   1.992  0.0888 -0.1116  0.4721
18179TIP3    H176028   3.697   5.553   2.086  0.3677 -1.5055  0.2684
18179TIP3    H276029   3.684   5.479   1.955 -1.7021  0.4498 -0.6935
18180TIP3   OH276030   4.543   5.483   3.376 -0.1696  0.3962 -0.7252
18180TIP3    H176031   4.594   5.550   3.422  1.2834 -1.3840  0.4225
18180TIP3    H276032   4.470   5.530   3.337  0.9580  2.6742 -0.2397
18181TIP3   OH276033   6.748   5.832   4.148 -0.2538 -0.7677  0.0130
18181TIP3    H176034   6.727   5.878   4.067  0.0868  0.7073  0.7164
18181TIP3    H276035   6.843   5.818   4.143 -0.3231 -1.1944 -0.1013
18182TIP3   OH276036   5.225   3.421   5.049 -0.0583 -0.4534 -0.8067
18182TIP3    H176037   5.201   3.367   5.125 -2.7937  0.7434 -0.6803
18182TIP3    H276038   5.166   3.391   4.979 -0.4941  1.2030 -1.1970
18183TIP3   OH276039   4.838   6.770  12.193  0.3909  0.7786 -0.2483
18183TIP3    H176040   4.819   6.690  12.244 -1.2616  1.0260 -0.4135
18183TIP3    H276041   4.875   6.738  12.111 -3.6853 -0.2148 -1.9475
18184TIP3   OH276042   3.838   6.207  16.311  0.2457  0.6067  0.9464
18184TIP3    H176043   3.875   6.132  16.356 -1.4737 -0.9650 -0.1199
18184TIP3    H276044   3.769   6.239  16.370  0.8297  1.2381  1.2999
18185TIP3   OH276045   1.361   3.852   3.149 -0.4368  0.1450  0.2616
18185TIP3    H176046   1.348   3.809   3.234  1.5166  1.3035  1.2350
18185TIP3    H276047   1.278   3.896   3.131 -1.1774 -0.8403  1.1283
18186TIP3   OH276048   2.742   2.513   2.622  0.3385  0.0496 -0.6780
18186TIP3    H176049   2.648   2.506   2.635  0.4748 -1.1260 -0.2272
18186TIP3    H276050   2.769   2.428   2.587  1.4375 -0.1896  0.6275
18187TIP3   OH276051   5.693   1.897  15.962 -0.0802 -0.1794 -0.2287
18187TIP3    H176052   5.764   1.836  15.983  0.8652  0.9206 -0.1510
18187TIP3    H276053   5.617   1.862  16.009  1.1670  0.3794  2.4055
18188TIP3   OH276054   3.585   2.855  13.439  0.2290  0.2256  0.3650
18188TIP3    H176055   3.592   2.830  13.531  0.3038  1.1672  0.6178
18188TIP3    H276056   3.640   2.791  13.393 -0.6244 -0.9009  0.8374
18189TIP3   OH276057   5.209   1.364  13.204  0.4427  0.8013  0.3498
18189TIP3    H176058   5.182   1.292  13.262 -0.2217  2.1068  1.7137
18189TIP3    H276059   5.220   1.322  13.118  2.3247 -1.3816  1.5263
18190TIP3   OH276060   2.494   2.628   1.913  0.5922 -0.1041  0.3952
18190TIP3    H176061   2.589   2.639   1.909  1.0375 -0.7714  4.5654
18190TIP3    H276062   2.482   2.533   1.924 -0.2933  0.1803  2.2266
18191TIP3   OH276063   0.654   5.569   4.491 -0.5025  0.8326 -0.4997
18191TIP3    H176064   0.567   5.547   4.459 -0.6063 -1.4442  1.1227
18191TIP3    H276065   0.701   5.486   4.491  0.9331  1.5953  0.8152
18192TIP3   OH276066   2.740   4.924   0.979 -0.2985 -0.1323  0.3454
18192TIP3    H176067   2.707   4.959   0.897  1.4473 -1.8872 -1.1890
18192TIP3    H276068   2.813   4.981   1.003  1.0341 -1.2238 -0.9118
18193TIP3   OH276069   0.719   1.403   4.422 -0.2280  0.0073  0.4974
18193TIP3    H176070   0.778   1.349   4.370 -0.4272  0.5813 -0.3329
18193TIP3    H276071   0.712   1.485   4.374 -0.2377  0.6412  1.5441
18194TIP3   OH276072   1.901   3.595  13.772  0.0962  0.6132 -0.1296
18194TIP3    H176073   1.883   3.582  13.865 -0.1246  0.5758 -0.1772
18194TIP3    H276074   1.890   3.690  13.758  0.6431  0.6969 -0.0094
18195TIP3   OH276075   3.436   5.420   4.341 -0.2336  0.1880 -0.5563
18195TIP3    H176076   3.493   5.349   4.371  0.3852  1.1263  0.5829
18195TIP3    H276077   3.398   5.455   4.422  1.0185  2.4374 -0.8645
18196TIP3   OH276078   6.307   5.643   4.290 -0.4403 -0.0416  0.5568
18196TIP3    H176079   6.400   5.664   4.292 -0.2943 -0.3910 -1.1225
18196TIP3    H276080   6.303   5.548   4.300 -0.5714 -0.0874  0.0964
18197TIP3   OH276081   4.412   2.552  13.886 -0.1290  0.1552 -0.1241
18197TIP3    H176082   4.350   2.526  13.818 -0.9437 -1.1936  1.0838
18197TIP3    H276083   4.439   2.640  13.860 -2.2584  0.6530 -0.9118
18198TIP3   OH276084   2.690   1.626  13.564  0.1626  0.0953 -0.2381
18198TIP3    H176085   2.687   1.720  13.586 -0.6919  0.6695 -2.5105
18198TIP3    H276086   2.606   1.609  13.522 -0.4543 -2.1893  1.7530
18199TIP3   OH276087   3.390   3.715   2.209  0.0281 -0.3136  0.0636
18199TIP3    H176088   3.317   3.664   2.244  1.4158 -2.2234  0.3382
18199TIP3    H276089   3.402   3.786   2.273  0.3743 -1.7931  1.7130
18200TIP3   OH276090   6.365   1.030   1.704 -0.2490  0.0234 -0.8908
18200TIP3    H176091   6.297   0.974   1.667 -0.1627 -0.7018  0.0059
18200TIP3    H276092   6.400   0.979   1.778 -1.0969  1.8022  0.8163
18201TIP3   OH276093   6.372   3.828  16.462  0.5718 -0.2357  0.7389
18201TIP3    H176094   6.422   3.760  16.417  1.0900 -0.5081  1.6985
18201TIP3    H276095   6.310   3.780  16.517 -0.7934  0.0998 -0.4561
18202TIP3   OH276096   0.889   0.902  15.579  1.1306 -0.4629 -0.5337
18202TIP3    H176097   0.813   0.861  15.538  0.8122  0.3313 -0.7527
18202TIP3    H276098   0.939   0.939  15.506  0.2631  1.4626 -0.2359
18203TIP3   OH276099   1.068   4.741  11.692  0.7134 -0.7320  0.2303
18203TIP3    H176100   1.157   4.714  11.713  1.1014  0.7605  0.6116
18203TIP3    H276101   1.075   4.787  11.609  0.1156 -1.5505 -0.2805
18204TIP3   OH276102   0.185   1.641  12.288 -0.1851 -0.2908  0.0364
18204TIP3    H176103   0.239   1.589  12.228  0.6996  1.5644 -0.8604
18204TIP3    H276104   0.238   1.718  12.306 -2.0360  0.9940  0.1597
18205TIP3   OH276105   3.218   5.799   0.167 -0.1414  0.9114 -0.1199
18205TIP3    H176106   3.124   5.816   0.173 -0.0825  1.5376 -0.8739
18205TIP3    H276107   3.243   5.770   0.255 -0.8983  1.4381  0.2775
18206TIP3   OH276108   6.559   5.554   1.791  0.2768 -0.4209  0.0400
18206TIP3    H176109   6.468   5.580   1.775  0.1117 -0.9925  0.0087
18206TIP3    H276110   6.587   5.608   1.865 -0.7319 -1.6172  1.3592
18207TIP3   OH276111   5.272   1.857   2.339 -0.0243 -0.0579 -0.6105
18207TIP3    H176112   5.205   1.797   2.308  0.7353 -0.1608 -2.1417
18207TIP3    H276113   5.355   1.812   2.323  0.4672  0.4864  0.2887
18208TIP3   OH276114   4.116   3.346  12.006  0.3900 -0.6980  0.2865
18208TIP3    H176115   4.066   3.363  12.086  1.0944  0.8300  0.4283
18208TIP3    H276116   4.056   3.369  11.935  0.8267  1.1277  0.4549
18209TIP3   OH276117   6.226   6.414  15.081  0.1713  0.0786 -0.5285
18209TIP3    H176118   6.267   6.333  15.110 -1.0360  0.2341  1.8279
18209TIP3    H276119   6.132   6.397  15.085 -0.1004  1.4677 -0.3945
18210TIP3   OH276120   0.783   1.347  13.514  0.0943  0.1993 -0.3872
18210TIP3    H176121   0.782   1.412  13.443  1.1185 -0.7790 -1.3276
18210TIP3    H276122   0.706   1.369  13.567 -1.0166  0.6418 -2.0952
18211TIP3   OH276123   1.876   5.597  15.188  0.0393  0.8340  0.4659
18211TIP3    H176124   1.855   5.687  15.214 -3.0174  0.3571  0.0119
18211TIP3    H276125   1.808   5.544  15.229  2.1554 -1.4215  1.2857
18212TIP3   OH276126   0.452   1.572   5.599  0.2657  0.3119 -0.0430
18212TIP3    H176127   0.397   1.609   5.530  1.2050  0.6755 -0.6260
18212TIP3    H276128   0.534   1.551   5.554  0.5576 -0.3241  0.7769
18213TIP3   OH276129   2.313   1.871   3.813  0.0807 -0.3579  0.3797
18213TIP3    H176130   2.290   1.813   3.886 -0.8919 -0.3408  0.1043
18213TIP3    H276131   2.393   1.834   3.777  0.2798 -0.6721  1.1318
18214TIP3   OH276132   4.636   6.008  15.075 -0.3619  0.8070  0.0387
18214TIP3    H176133   4.586   6.090  15.070  0.5824  1.3243 -1.7718
18214TIP3    H276134   4.695   6.011  15.000  1.7800 -0.2064  1.5547
18215TIP3   OH276135   0.622   1.237   1.453  0.3103 -0.1072 -0.2715
18215TIP3    H176136   0.580   1.175   1.393 -1.5648 -0.5522  1.3965
18215TIP3    H276137   0.688   1.281   1.399  1.0306 -2.7859 -1.7882
18216TIP3   OH276138   6.142   1.362  13.305  0.1158 -0.1468  0.4627
18216TIP3    H176139   6.110   1.346  13.394 -2.2027  1.2718 -0.0188
18216TIP3    H276140   6.198   1.439  13.313 -0.4036  0.2171  0.6557
18217TIP3   OH276141   3.297   3.847  13.111  0.4924 -0.0930 -0.4495
18217TIP3    H176142   3.385   3.881  13.097  1.2094 -0.3789  2.6730
18217TIP3    H276143   3.242   3.925  13.121  0.9626  0.1270  0.4894
18218TIP3   OH276144   2.139   2.113  15.140 -0.1600 -0.9510  0.2077
18218TIP3    H176145   2.226   2.095  15.174 -0.5294 -1.2767  0.9958
18218TIP3    H276146   2.149   2.195  15.092  0.9612 -1.8583 -1.2125
18219TIP3   OH276147   3.167   5.353   6.750 -0.1255 -0.2549 -0.3108
18219TIP3    H176148   3.259   5.327   6.756 -0.2416 -0.5892  0.0669
18219TIP3    H276149   3.129   5.289   6.689  0.0311  0.2781 -0.9742
18220TIP3   OH276150   4.893   4.378   2.200 -0.5739  0.2808 -0.3719
18220TIP3    H176151   4.896   4.411   2.290 -1.2579  1.3660 -0.7360
18220TIP3    H276152   4.920   4.286   2.208  0.9028  0.7685  0.7287
18221TIP3   OH276153   4.816   2.135  10.651 -0.1412 -0.4202  0.4511
18221TIP3    H176154   4.844   2.163  10.564  1.5093 -0.5556  0.9117
18221TIP3    H276155   4.814   2.039  10.645 -0.6981 -0.4093  0.3815
18222TIP3   OH276156   4.289   1.255   4.174  0.1245 -0.4221  0.0266
18222TIP3    H176157   4.318   1.211   4.254 -1.2021 -2.4074 -0.5164
18222TIP3    H276158   4.356   1.233   4.109  1.5235  1.6839  0.6438
18223TIP3   OH276159   3.181   6.623  15.545 -0.2177  0.1299  0.0589
18223TIP3    H176160   3.203   6.530  15.542 -2.0225 -0.2951 -1.0655
18223TIP3    H276161   3.088   6.626  15.567 -0.0005  1.7280  1.0066
18224TIP3   OH276162   5.362   1.183   2.911 -0.3097 -0.1516 -0.1816
18224TIP3    H176163   5.356   1.099   2.866  0.4540  0.0881 -0.7473
18224TIP3    H276164   5.455   1.205   2.910 -0.2862 -0.0365  1.3472
18225TIP3   OH276165   3.390   6.659   0.339  0.2051  0.1431 -0.3333
18225TIP3    H176166   3.378   6.736   0.283 -1.6837 -1.2009 -1.9202
18225TIP3    H276167   3.330   6.593   0.303 -0.3285 -1.1819  2.6708
18226TIP3   OH276168   1.082   5.808   3.837  0.2466  0.0106 -0.5475
18226TIP3    H176169   1.027   5.850   3.903  1.0768 -0.7521  0.6725
18226TIP3    H276170   1.114   5.729   3.879  2.5479  0.5869 -1.0824
18227TIP3   OH276171   1.808   6.212  16.183  0.2180  0.6237  0.1345
18227TIP3    H176172   1.803   6.175  16.271 -0.1302  0.0472 -0.1202
18227TIP3    H276173   1.722   6.192  16.144  1.3687 -1.8031 -1.3678
18228TIP3   OH276174   0.277   3.237   2.670 -0.1519  0.5527  0.1354
18228TIP3    H176175   0.236   3.255   2.585  0.6615 -1.3804 -0.7391
18228TIP3    H276176   0.246   3.307   2.727 -2.6171  0.6012 -1.1367
18229TIP3   OH276177   0.143   4.003   2.799  0.3318 -0.0805 -0.0877
18229TIP3    H176178   0.052   3.978   2.784  0.1751  1.2964 -1.7453
18229TIP3    H276179   0.185   3.922   2.828 -1.4344 -0.6932  0.9328
18230TIP3   OH276180   3.663   4.890  11.503  0.5182 -0.1103  0.2125
18230TIP3    H176181   3.711   4.866  11.424  1.5638  0.9675  0.4948
18230TIP3    H276182   3.598   4.820  11.514  0.3937 -0.3169 -1.5513
18231TIP3   OH276183   5.424   3.598   1.537  0.0223 -0.1248  0.3825
18231TIP3    H176184   5.490   3.554   1.591 -1.5149 -1.9161  0.9119
18231TIP3    H276185   5.474   3.636   1.465  1.8834  0.5399  1.9425
18232TIP3   OH276186   5.643   4.336   5.756  0.5217  0.1233  0.4572
18232TIP3    H176187   5.566   4.282   5.742 -0.4662  1.5746  0.0670
18232TIP3    H276188   5.646   4.351   5.850 -0.2575  0.8575  0.3750
18233TIP3   OH276189   1.982   6.273   0.043 -0.3126 -0.0576  0.9446
18233TIP3    H176190   1.986   6.204  -0.024  0.1039 -0.0721  0.9803
18233TIP3    H276191   2.036   6.344   0.007 -1.5510  0.6583  0.4562
18234TIP3   OH276192   5.029   0.533  11.383 -0.2554  0.1428  0.0483
18234TIP3    H176193   5.100   0.555  11.322 -0.0083  1.1209  0.6674
18234TIP3    H276194   5.074   0.503  11.462 -0.5389  0.4894  0.3417
18235TIP3   OH276195   0.055   3.828   1.556  0.3175  0.2382 -0.5681
18235TIP3    H176196   0.149   3.818   1.540  0.2092  0.2102 -1.1910
18235TIP3    H276197   0.036   3.768   1.628  0.9000  0.7153 -0.0007
18236TIP3   OH276198   0.985   1.417  16.285 -0.4182  0.0375  0.0784
18236TIP3    H176199   0.896   1.389  16.265 -0.3810  0.7640 -1.1674
18236TIP3    H276200   1.007   1.370  16.366 -1.5296 -0.9705 -0.1796
18237TIP3   OH276201   3.879   2.198   1.859  0.2167  0.1720  0.1028
18237TIP3    H176202   3.865   2.111   1.821 -0.7220 -0.4770  1.8184
18237TIP3    H276203   3.958   2.231   1.815 -0.2367 -0.9089 -1.6250
18238TIP3   OH276204   4.257   1.318   0.534 -0.0583 -0.0763  0.0615
18238TIP3    H176205   4.265   1.291   0.443 -0.3060 -1.6666  0.4887
18238TIP3    H276206   4.265   1.414   0.531  0.2402 -0.1211 -1.5791
18239TIP3   OH276207   0.148   2.088  11.872 -0.4855 -0.2975 -0.3343
18239TIP3    H176208   0.059   2.054  11.871  0.1673 -2.1153 -0.4911
18239TIP3    H276209   0.186   2.054  11.952  0.6490 -1.2106 -1.2202
18240TIP3   OH276210   1.501   0.051  10.113 -0.1243  0.4914  0.4714
18240TIP3    H176211   1.442   0.008  10.051 -0.5377  1.6613  0.0096
18240TIP3    H276212   1.454   0.050  10.196  0.1086 -0.4170  0.6012
18241TIP3   OH276213   0.369   5.004   1.172 -0.3320 -0.5144  0.2107
18241TIP3    H176214   0.328   5.085   1.141 -0.6478 -1.5418 -2.3662
18241TIP3    H276215   0.301   4.961   1.225  0.0145  1.0676  2.0351
18242TIP3   OH276216   0.730   4.275  13.127  0.1790 -0.1914 -0.7231
18242TIP3    H176217   0.777   4.225  13.193 -0.7991 -0.1085  0.0576
18242TIP3    H276218   0.750   4.366  13.146 -0.8109 -0.1141  0.0471
18243TIP3   OH276219   1.760   6.168  12.919  0.5319  0.4826  0.1161
18243TIP3    H176220   1.670   6.167  12.950  0.3632 -0.4329 -0.3739
18243TIP3    H276221   1.788   6.076  12.922  1.1137  0.6231 -0.6900
18244TIP3   OH276222   6.224   1.703  13.012  0.4361  0.0648  0.2054
18244TIP3    H176223   6.233   1.767  12.942 -0.6870  0.9307  0.7995
18244TIP3    H276224   6.274   1.740  13.085  0.5633 -0.2030  0.2550
18245TIP3   OH276225   6.124   4.423  14.717  0.6499 -0.6923 -0.1439
18245TIP3    H176226   6.213   4.434  14.749  0.5412 -0.1186 -0.0199
18245TIP3    H276227   6.112   4.495  14.654  0.3689 -0.9281 -0.3634
18246TIP3   OH276228   6.439   4.127   5.328 -0.5572 -0.1016  0.3896
18246TIP3    H176229   6.488   4.177   5.263 -0.2336 -1.2205 -0.2547
18246TIP3    H276230   6.478   4.039   5.326 -4.1111 -1.8719 -2.0037
18247TIP3   OH276231   5.778   5.513   2.084 -0.1630 -0.3244 -0.6483
18247TIP3    H176232   5.795   5.589   2.029 -1.1800 -1.3467 -2.4993
18247TIP3    H276233   5.683   5.505   2.084 -0.2691  0.0515  1.9517
18248TIP3   OH276234   6.733   2.469  11.282 -0.8133 -0.0215 -0.4437
18248TIP3    H176235   6.796   2.534  11.312  0.9712 -1.4678 -0.8761
18248TIP3    H276236   6.648   2.513  11.288  0.2859  2.2339 -0.5074
18249TIP3   OH276237   4.702   1.123  16.735 -0.0035  0.3331 -0.5973
18249TIP3    H176238   4.781   1.084  16.696  0.4015 -0.5705  1.0551
18249TIP3    H276239   4.639   1.052  16.738 -0.9863  1.1016 -2.0758
18250TIP3   OH276240   1.710   3.878   3.452  0.3565  0.4255  0.2865
18250TIP3    H176241   1.794   3.838   3.431  0.1786  0.6800 -1.0286
18250TIP3    H276242   1.651   3.804   3.465  0.2568  0.2156 -1.1440
18251TIP3   OH276243   2.879   4.526  14.361 -0.0079 -0.3176 -0.1497
18251TIP3    H176244   2.953   4.467  14.374  0.4093  0.4961  1.5280
18251TIP3    H276245   2.916   4.614  14.372 -1.2753  0.0883  1.1645
18252TIP3   OH276246   4.295   3.443  10.639 -0.2809 -0.1214  0.0448
18252TIP3    H176247   4.327   3.361  10.600  1.4595  0.4198  0.2480
18252TIP3    H276248   4.342   3.511  10.592  1.8284  0.5863  2.8994
18253TIP3   OH276249   6.842   2.844   2.955 -0.7397 -0.3629 -0.3610
18253TIP3    H176250   6.794   2.901   2.895 -0.8615 -1.5444 -1.4158
18253TIP3    H276251   6.843   2.893   3.038  0.6183  1.9448 -1.6119
18254TIP3   OH276252   0.886   2.768   1.437  0.4290 -0.3459  0.0913
18254TIP3    H176253   0.876   2.863   1.431  0.5500 -0.4247 -3.7426
18254TIP3    H276254   0.800   2.736   1.464  0.2206  0.7774  0.8169
18255TIP3   OH276255   5.273   4.965  15.705 -0.0448 -0.2924  0.4314
18255TIP3    H176256   5.316   5.050  15.696  0.0172 -0.2973  0.6860
18255TIP3    H276257   5.289   4.938  15.796  0.7840 -1.0359  0.0787
18256TIP3   OH276258   0.980   2.274   5.893  0.0652 -0.6214 -0.2181
18256TIP3    H176259   0.939   2.319   5.967 -1.5007 -1.8507 -0.2726
18256TIP3    H276260   1.030   2.342   5.849 -1.1413  0.7683  0.4434
18257TIP3   OH276261   4.740   4.013  13.013  0.3117  0.1829 -0.5207
18257TIP3    H176262   4.723   3.964  12.932 -2.4862  1.9544 -1.1308
18257TIP3    H276263   4.692   3.965  13.081 -0.4838  0.7514 -0.6697
18258TIP3   OH276264   4.820   6.625  14.665  0.4522  0.1587  0.4379
18258TIP3    H176265   4.776   6.667  14.739 -0.5443  1.2231 -0.7065
18258TIP3    H276266   4.772   6.543  14.653  1.0923 -0.3824  1.3979
18259TIP3   OH276267   4.673   4.903   3.536 -0.2864  0.6092 -0.9255
18259TIP3    H176268   4.609   4.871   3.472 -0.9901 -1.6679  0.8158
18259TIP3    H276269   4.620   4.945   3.604  0.1834  0.2455 -0.3276
18260TIP3   OH276270   4.321   0.281  16.369 -0.1374 -0.2803  0.1251
18260TIP3    H176271   4.251   0.276  16.304 -1.1811  1.8935  0.9745
18260TIP3    H276272   4.375   0.354  16.340 -0.6301  0.7442  1.6218
18261TIP3   OH276273   5.106   3.319  16.907 -0.4722  0.0982  0.0746
18261TIP3    H176274   5.182   3.265  16.931 -0.3414 -0.4164 -1.3528
18261TIP3    H276275   5.131   3.408  16.933 -0.1801 -0.3381  1.3520
18262TIP3   OH276276   5.265   0.293  11.519 -0.1164  0.2637 -0.2511
18262TIP3    H176277   5.174   0.266  11.528  0.5726 -1.8238  1.4450
18262TIP3    H276278   5.264   0.388  11.533 -1.9962  0.2664 -0.2019
18263TIP3   OH276279   0.875   3.269   3.342 -0.3018 -0.1672 -0.5439
18263TIP3    H176280   0.830   3.186   3.329 -0.6487 -0.1585  0.5080
18263TIP3    H276281   0.968   3.248   3.333 -0.4680 -0.1564 -2.9065
18264TIP3   OH276282   3.265   1.255   0.966 -0.5710 -0.3765 -0.1156
18264TIP3    H176283   3.276   1.203   0.887 -0.3841 -1.3837  0.5596
18264TIP3    H276284   3.172   1.273   0.971 -0.6321 -0.6203 -0.3740
18265TIP3   OH276285   4.842   5.975  12.181  0.0796 -0.1139 -0.8870
18265TIP3    H176286   4.787   6.046  12.146 -0.4791 -1.1228 -2.1499
18265TIP3    H276287   4.785   5.928  12.241  0.3855  0.3512 -0.2138
18266TIP3   OH276288   3.699   5.962  16.077 -0.4189 -0.8330  0.6704
18266TIP3    H176289   3.649   5.950  16.158 -0.4170  0.9798  0.9730
18266TIP3    H276290   3.668   6.045  16.041 -0.1202 -1.3985 -0.9985
18267TIP3   OH276291   2.922   5.505  16.137 -0.0479 -0.1755 -0.1801
18267TIP3    H176292   2.958   5.592  16.120 -0.9496 -0.0640 -1.6892
18267TIP3    H276293   2.830   5.521  16.159 -0.8903 -0.8219 -2.8084
18268TIP3   OH276294   4.936   5.910  12.891 -0.2477  0.3949  0.0267
18268TIP3    H176295   4.936   5.852  12.815  2.1443  0.4090 -0.0576
18268TIP3    H276296   4.947   5.852  12.966 -0.1991  0.5707  0.1572
18269TIP3   OH276297   2.204   6.342   1.465 -0.2960 -0.0631 -0.4731
18269TIP3    H176298   2.125   6.310   1.421 -2.7138  3.0687  1.2000
18269TIP3    H276299   2.241   6.407   1.404 -0.0536 -0.2059 -0.4801
18270TIP3   OH276300   3.078   4.099   1.190  0.1262  0.2761 -0.0921
18270TIP3    H176301   3.125   4.016   1.196  2.0993  1.3419 -0.0950
18270TIP3    H276302   3.107   4.137   1.107 -1.3277  0.6623 -0.4600
18271TIP3   OH276303   1.318   5.388  16.716 -0.4264 -0.0052  0.1680
18271TIP3    H176304   1.292   5.331  16.643  0.5994 -1.1205  0.6326
18271TIP3    H276305   1.235   5.412  16.758 -0.9690 -0.0366 -0.8592
18272TIP3   OH276306   6.162   1.926   5.308  0.0837 -0.0603  0.1127
18272TIP3    H176307   6.185   1.876   5.386  2.6101 -0.7811 -0.9925
18272TIP3    H276308   6.157   1.860   5.238  1.0997  0.9033 -0.9191
18273TIP3   OH276309   1.566   4.139  15.436  0.4524  0.1295  0.3624
18273TIP3    H176310   1.632   4.077  15.467  0.6352 -0.2328 -0.6810
18273TIP3    H276311   1.591   4.156  15.345 -0.8485  0.0336 -0.0409
18274TIP3   OH276312   6.422   2.194  12.730 -0.4748  0.0510  0.0948
18274TIP3    H176313   6.381   2.142  12.661  0.1917  1.3339 -1.3075
18274TIP3    H276314   6.399   2.284  12.709  0.1362  0.5108  1.2997
18275TIP3   OH276315   1.906   6.407  16.520  0.3734  0.1429  0.7035
18275TIP3    H176316   1.931   6.413  16.428  1.5825 -2.5652  0.7712
18275TIP3    H276317   1.811   6.409  16.519  0.3315 -0.8809 -0.7367
18276TIP3   OH276318   5.988   1.229  12.765 -0.5998  0.1860  0.2780
18276TIP3    H176319   5.927   1.292  12.803 -1.2608 -1.1376  1.5041
18276TIP3    H276320   5.938   1.187  12.695 -0.0149  1.2657 -0.8421
18277TIP3   OH276321   2.766   6.560   2.349 -0.3066  0.3549 -0.2210
18277TIP3    H176322   2.744   6.485   2.294  0.3962  0.1394 -0.2129
18277TIP3    H276323   2.795   6.522   2.432  1.5571  0.5495 -0.7316
18278TIP3   OH276324   6.444   5.233   1.412  0.3935  0.2485  0.2108
18278TIP3    H176325   6.392   5.154   1.427 -0.3294  0.4328 -1.2310
18278TIP3    H276326   6.430   5.286   1.491  0.6848 -0.9405  1.0787
18279TIP3   OH276327   0.027   1.938   1.768  0.0687  0.3566  0.3800
18279TIP3    H176328   0.029   1.900   1.680  0.9042  1.0204  0.1001
18279TIP3    H276329  -0.064   1.931   1.795  0.2716 -2.4189  0.6081
18280TIP3   OH276330   6.024   0.387  12.915 -0.1717 -0.1843  0.1609
18280TIP3    H176331   6.006   0.342  12.997  1.0993  1.2316  1.2702
18280TIP3    H276332   5.943   0.434  12.894 -0.2433  0.0839  1.0339
18281TIP3   OH276333   6.558   5.794  14.301  0.0746 -0.0325  0.1159
18281TIP3    H176334   6.486   5.733  14.283  0.0190 -0.7815  2.6141
18281TIP3    H276335   6.518   5.881  14.291 -1.3242 -0.4304  1.7904
18282TIP3   OH276336   3.516   3.077   6.263 -0.5274  0.0803  0.9151
18282TIP3    H176337   3.452   3.010   6.287 -0.7547 -1.0104 -2.2920
18282TIP3    H276338   3.463   3.153   6.240 -0.8514 -0.9225 -2.0490
18283TIP3   OH276339   1.030   4.617   2.346 -0.1469 -0.3986 -0.6977
18283TIP3    H176340   1.024   4.527   2.315  2.4367 -1.0028  0.3934
18283TIP3    H276341   1.024   4.611   2.441  0.4458  0.5354 -0.5898
18284TIP3   OH276342   6.885   6.434   3.315 -0.3425  0.1473 -0.2198
18284TIP3    H176343   6.894   6.528   3.297 -0.6419 -0.2100 -2.5824
18284TIP3    H276344   6.975   6.402   3.319 -0.1189  0.7876  2.7946
18285TIP3   OH276345   1.727   5.515   1.074 -0.4533  0.8580 -0.4933
18285TIP3    H176346   1.795   5.581   1.059 -1.6810  2.3779  0.2842
18285TIP3    H276347   1.711   5.477   0.988  2.2183 -0.4748 -0.5020
18286TIP3   OH276348   0.978   3.173   2.599 -0.3665  0.4130  0.2488
18286TIP3    H176349   1.013   3.094   2.558  1.3792  1.6361 -0.7634
18286TIP3    H276350   1.054   3.214   2.641 -1.7896 -0.0109  3.6012
18287TIP3   OH276351   3.873   0.333  15.186  0.2596 -0.0587  0.2239
18287TIP3    H176352   3.951   0.328  15.132  1.1842  0.0122  1.4955
18287TIP3    H276353   3.832   0.247  15.177 -0.2635  0.3264 -1.4713
18288TIP3   OH276354   1.067   3.405   6.232  0.5370 -0.4316  0.0822
18288TIP3    H176355   1.040   3.427   6.321  2.2931 -2.3168  1.1929
18288TIP3    H276356   1.163   3.400   6.237  0.7126 -0.2064 -2.0330
18289TIP3   OH276357   0.565   0.678  10.677  0.1863 -0.3118  0.2555
18289TIP3    H176358   0.568   0.592  10.718  0.6538 -0.7087 -0.5774
18289TIP3    H276359   0.551   0.660  10.584 -0.2165  0.5348  0.1440
18290TIP3   OH276360   3.592   3.014   2.580  0.1183 -0.5826 -0.4006
18290TIP3    H176361   3.502   3.048   2.582 -0.0949 -1.1437 -0.3360
18290TIP3    H276362   3.605   2.974   2.666  1.7905  2.8989  1.1614
18291TIP3   OH276363   1.336   2.245  13.851 -0.1873 -0.0674 -0.6642
18291TIP3    H176364   1.291   2.230  13.934 -0.7928  2.2269 -0.5055
18291TIP3    H276365   1.413   2.189  13.854 -0.4566 -0.3967  1.2294
18292TIP3   OH276366   4.467   5.863  10.312 -0.3745 -0.7196 -0.4778
18292TIP3    H176367   4.445   5.822  10.396  0.0963 -0.5825 -0.2828
18292TIP3    H276368   4.459   5.957  10.328  0.5664 -0.6539 -0.3280
18293TIP3   OH276369   4.588   2.401  14.742  0.2097 -0.3738 -0.2569
18293TIP3    H176370   4.521   2.342  14.774 -1.3540  0.2226 -2.1976
18293TIP3    H276371   4.558   2.488  14.768  0.9256 -0.1850 -0.0268
18294TIP3   OH276372   3.017   2.508  14.177  0.3956 -0.0584  0.3405
18294TIP3    H176373   3.058   2.502  14.090  0.4856  1.1316  0.2872
18294TIP3    H276374   2.934   2.553  14.162  0.5080  0.3432  0.8976
18295TIP3   OH276375   1.957   5.611   2.633 -0.7114 -0.2534  0.2302
18295TIP3    H176376   2.019   5.595   2.704 -1.0254 -1.1344  0.3199
18295TIP3    H276377   2.008   5.599   2.553 -0.3948  0.5834  0.3046
18296TIP3   OH276378   3.855   4.707   1.027 -0.0842 -0.0319 -0.0119
18296TIP3    H176379   3.811   4.733   0.946 -2.0750 -1.8230  0.3884
18296TIP3    H276380   3.873   4.789   1.072 -0.4909  0.9083 -1.5056
18297TIP3   OH276381   0.712   3.200   1.140  0.2479 -0.1078 -0.3077
18297TIP3    H176382   0.751   3.170   1.222 -0.6181  2.8709  1.3163
18297TIP3    H276383   0.783   3.248   1.096 -0.1918  1.1390  0.3187
18298TIP3   OH276384   2.016   6.428  11.657  0.1754  0.8603  0.0296
18298TIP3    H176385   2.102   6.465  11.639  1.0690 -0.2727  1.7041
18298TIP3    H276386   1.971   6.430  11.572  1.6053  2.0411 -0.7463
18299TIP3   OH276387   2.746   6.480   2.895  0.5893  0.2214  0.1565
18299TIP3    H176388   2.819   6.494   2.956  1.1203  0.0585 -0.4302
18299TIP3    H276389   2.686   6.552   2.912  0.2659 -0.3427  1.5275
18300TIP3   OH276390   3.577   1.618   5.113 -0.0248 -0.0337  0.1208
18300TIP3    H176391   3.605   1.529   5.093  0.3461 -0.1831  1.2580
18300TIP3    H276392   3.659   1.664   5.134 -0.2624  0.4646 -0.0329
18301TIP3   OH276393   4.117   5.297   5.616 -0.7969  0.8909  0.6965
18301TIP3    H176394   4.171   5.344   5.680 -1.5882  0.9797  1.3295
18301TIP3    H276395   4.165   5.303   5.534  1.2274 -0.9319  1.6772
18302TIP3   OH276396   5.401   4.084   3.819  0.2529 -0.1879  1.0066
18302TIP3    H176397   5.339   4.156   3.825  0.7950  0.2246  1.7191
18302TIP3    H276398   5.437   4.090   3.730 -1.1622 -0.8151  0.3547
18303TIP3   OH276399   6.063   2.563   1.335 -0.7213 -0.4651  0.0312
18303TIP3    H176400   6.070   2.635   1.398  2.7298  0.4817 -1.2260
18303TIP3    H276401   6.081   2.484   1.387  1.6916  0.2598  0.4276
18304TIP3   OH276402   5.425   3.341   3.994  0.2765  0.0464  0.9259
18304TIP3    H176403   5.398   3.431   4.012  0.3851  0.0948  0.8414
18304TIP3    H276404   5.350   3.288   4.022 -0.7082  0.2992 -1.0446
18305TIP3   OH276405   4.397   4.113   5.508  0.2480  0.2352 -0.2414
18305TIP3    H176406   4.447   4.189   5.538  2.1334 -0.6417 -1.0151
18305TIP3    H276407   4.420   4.044   5.570  0.8604 -0.4649 -1.2304
18306TIP3   OH276408   2.924   4.735   2.122 -0.5470 -0.2389  0.4422
18306TIP3    H176409   2.995   4.754   2.184 -0.5266  1.8719 -0.1367
18306TIP3    H276410   2.939   4.794   2.049  0.5722 -4.0103 -2.6699
18307TIP3   OH276411   6.730   5.059   1.595 -0.1291  0.1800 -0.0771
18307TIP3    H176412   6.707   5.148   1.622 -0.5187  0.7250 -2.0571
18307TIP3    H276413   6.800   5.071   1.531  0.0982 -0.9815 -0.0654
18308TIP3   OH276414   5.293   3.874   2.206  0.1157  0.0259  0.2373
18308TIP3    H176415   5.281   3.934   2.279  0.7165  0.1095  0.2764
18308TIP3    H276416   5.385   3.885   2.182  0.8261 -2.3837  1.5905
18309TIP3   OH276417   4.603   0.339  15.315  0.0455  0.1778  0.3114
18309TIP3    H176418   4.533   0.405  15.317 -0.5138 -0.4205  0.8984
18309TIP3    H276419   4.622   0.321  15.407  0.4511 -0.2115  0.1551
18310TIP3   OH276420   0.195   4.793   1.247 -0.0236  0.0333  0.2488
18310TIP3    H176421   0.160   4.733   1.181 -0.1788  0.2572  0.1294
18310TIP3    H276422   0.206   4.737   1.325  3.0990 -0.9968 -0.7993
18311TIP3   OH276423   5.258   6.074   3.557  0.2342  0.1009  0.3152
18311TIP3    H176424   5.207   6.037   3.629 -2.2054 -1.2013 -1.9232
18311TIP3    H276425   5.247   6.011   3.485  3.8939  0.4999 -0.8083
18312TIP3   OH276426   5.899   5.389  15.347  0.3091  0.0961 -0.5720
18312TIP3    H176427   5.848   5.309  15.364 -0.3751  0.8854  1.3959
18312TIP3    H276428   5.990   5.360  15.347  0.0325 -0.8073 -0.6851
18313TIP3   OH276429   6.419   4.406   4.556 -0.3348 -0.4485 -0.2144
18313TIP3    H176430   6.495   4.388   4.611 -0.3169 -1.9085 -0.6885
18313TIP3    H276431   6.417   4.334   4.493 -1.1814  0.4309 -1.2343
18314TIP3   OH276432   3.852   5.264  13.797 -0.4239  0.0558 -0.0804
18314TIP3    H176433   3.925   5.282  13.738  0.0678 -3.3083 -0.6832
18314TIP3    H276434   3.873   5.313  13.877  0.9560  1.4653 -1.2500
18315TIP3   OH276435   5.753   3.507  16.297  0.7180  0.2851  0.3541
18315TIP3    H176436   5.816   3.434  16.297 -0.3788 -0.7071  1.0416
18315TIP3    H276437   5.799   3.578  16.254  1.6543 -0.9751 -0.8286
18316TIP3   OH276438   5.728   0.557  15.738  0.1345  0.4657  0.0210
18316TIP3    H176439   5.705   0.503  15.814  1.7765 -0.4739 -0.1114
18316TIP3    H276440   5.808   0.517  15.703 -0.0209  1.4833 -1.6085
18317TIP3   OH276441   2.871   1.747   2.128 -0.7593  0.9327 -0.0725
18317TIP3    H176442   2.864   1.685   2.056  0.1104 -2.2307  2.3077
18317TIP3    H276443   2.790   1.734   2.178 -1.1890  2.8029 -0.2349
18318TIP3   OH276444   2.532   3.418  15.699  0.1460 -0.3621 -0.2392
18318TIP3    H176445   2.486   3.478  15.640 -0.4014 -1.7204 -1.2584
18318TIP3    H276446   2.594   3.473  15.746  0.4901  0.8227 -1.9753
18319TIP3   OH276447   0.168   0.444  15.718 -0.4940 -0.0326 -0.0372
18319TIP3    H176448   0.258   0.476  15.725 -0.1596 -1.1110  0.9015
18319TIP3    H276449   0.119   0.498  15.780 -0.3736  0.1532 -0.1032
18320TIP3   OH276450   4.432   6.190  13.328  1.0956 -0.0018  0.1145
18320TIP3    H176451   4.482   6.229  13.256 -1.7340  2.9127 -0.5280
18320TIP3    H276452   4.383   6.118  13.287  2.1885 -0.7244  0.0266
18321TIP3   OH276453   3.084   6.486  15.898 -0.5835  0.1932 -0.2193
18321TIP3    H176454   3.178   6.467  15.904 -0.7274 -0.1519  2.1483
18321TIP3    H276455   3.044   6.401  15.877 -0.4610 -0.0237  0.3898
18322TIP3   OH276456   0.765   4.142  13.383  0.0069 -0.0380  1.1789
18322TIP3    H176457   0.849   4.188  13.385  0.0854 -0.1619  0.7968
18322TIP3    H276458   0.789   4.049  13.390  0.0993 -0.2890 -1.4590
18323TIP3   OH276459   0.658   4.481  12.235  0.6058  0.4194  0.6066
18323TIP3    H176460   0.681   4.470  12.143  0.8643  0.2279  0.6936
18323TIP3    H276461   0.678   4.573  12.254 -1.6738  1.1403 -0.1518
18324TIP3   OH276462   3.863   1.477  15.975  0.4781  0.7793  0.1242
18324TIP3    H176463   3.867   1.556  15.922 -0.3844  0.8814  0.2099
18324TIP3    H276464   3.955   1.450  15.984  0.6123  0.2629 -2.1563
18325TIP3   OH276465   2.633   4.937   6.204 -0.2061  0.2250  0.2207
18325TIP3    H176466   2.704   4.922   6.266  1.8275 -0.0662 -2.0108
18325TIP3    H276467   2.558   4.891   6.242  0.7158  0.6521  2.7492
18326TIP3   OH276468   2.369   6.455   3.157  0.3031  0.0650  0.0122
18326TIP3    H176469   2.283   6.416   3.141 -0.0215  0.2199  1.2626
18326TIP3    H276470   2.422   6.428   3.082 -0.5513 -0.8719 -0.2799
18327TIP3   OH276471   5.984   6.332  15.186 -0.4108 -0.5494  0.0113
18327TIP3    H176472   5.960   6.348  15.277 -1.2195 -0.6411 -0.1763
18327TIP3    H276473   5.901   6.307  15.144 -0.3862  1.0541 -1.1030
18328TIP3   OH276474   0.613   5.596   0.218  0.1091 -0.1129  0.1885
18328TIP3    H176475   0.654   5.613   0.134 -0.1980  1.2076  0.2782
18328TIP3    H276476   0.521   5.618   0.205  0.0439  0.0451  0.8423
18329TIP3   OH276477   2.151   6.717   0.680  0.0112 -0.0276  0.4502
18329TIP3    H176478   2.241   6.720   0.648 -0.2471  0.9375 -0.2553
18329TIP3    H276479   2.098   6.737   0.602 -1.0017 -3.1339  0.2005
18330TIP3   OH276480   1.069   3.946  11.247 -0.1468 -0.8610  0.6318
18330TIP3    H176481   1.157   3.913  11.232  0.0869 -0.0109  0.0576
18330TIP3    H276482   1.043   3.983  11.162 -0.7295 -0.3701  1.0204
18331TIP3   OH276483   2.638   5.479   5.296  0.4241  0.6115  0.4044
18331TIP3    H176484   2.575   5.419   5.257  0.7116  1.2442 -1.1093
18331TIP3    H276485   2.603   5.499   5.383 -0.0937 -1.0735  0.6011
18332TIP3   OH276486   5.053   6.686  13.122 -0.6041 -0.6496 -0.2268
18332TIP3    H176487   5.134   6.653  13.085  0.6708  2.0895 -0.1193
18332TIP3    H276488   5.065   6.678  13.217 -0.5959 -0.5499 -0.2193
18333TIP3   OH276489   6.696   5.312  14.579 -0.0456 -0.2568  0.0080
18333TIP3    H176490   6.635   5.251  14.538  0.1529  1.5512 -3.3205
18333TIP3    H276491   6.781   5.268  14.573 -0.2449 -0.6131 -0.2187
18334TIP3   OH276492   2.642   5.882   4.984  0.2447 -0.6107  0.4004
18334TIP3    H176493   2.568   5.909   5.038 -0.0414 -1.2475  0.3312
18334TIP3    H276494   2.689   5.964   4.965 -0.4364 -0.2039  0.4450
18335TIP3   OH276495   1.083   0.303  16.149  0.4219  0.1468 -0.1481
18335TIP3    H176496   1.026   0.336  16.219  0.4358  0.6369 -0.3626
18335TIP3    H276497   1.172   0.322  16.179  0.4173  0.5993 -0.4175
18336TIP3   OH276498   1.780   5.417  12.093 -0.3230  0.1532 -0.2953
18336TIP3    H176499   1.848   5.434  12.028 -1.0401  0.0254 -1.0812
18336TIP3    H276500   1.697   5.429  12.047 -0.8481 -0.6328  0.3994
18337TIP3   OH276501   0.088   1.566   4.662  0.2054 -0.2765  0.1409
18337TIP3    H176502   0.079   1.490   4.605 -1.4220 -0.8165  1.0634
18337TIP3    H276503   0.112   1.637   4.602  0.7245 -1.2680 -0.8772
18338TIP3   OH276504   6.319   3.175  12.783 -0.2763 -0.0197 -0.9580
18338TIP3    H176505   6.228   3.145  12.789 -1.1422  2.1166 -2.2008
18338TIP3    H276506   6.317   3.263  12.821  1.6502 -0.5481  0.4779
18339TIP3   OH276507   3.795   6.797  12.568  0.1584 -0.0679 -0.1000
18339TIP3    H176508   3.702   6.796  12.546 -0.2101  1.4418  1.2402
18339TIP3    H276509   3.835   6.741  12.501 -2.0644 -3.4852  1.1380
18340TIP3   OH276510   0.459   0.133   0.050 -0.0597  0.3655 -0.3018
18340TIP3    H176511   0.394   0.090  -0.007  0.0373 -0.6247  0.3038
18340TIP3    H276512   0.407   0.185   0.111 -0.3725 -1.0802  0.7200
18341TIP3   OH276513   6.178   5.240  16.194  0.2544 -0.0924 -0.1341
18341TIP3    H176514   6.090   5.209  16.173  0.1870  0.7148 -1.0790
18341TIP3    H276515   6.164   5.324  16.239  0.5611  0.4313 -1.0018
18342TIP3   OH276516   3.851   3.272   0.690  0.1368 -0.0121 -0.2502
18342TIP3    H176517   3.769   3.246   0.731  0.5308  0.3855  0.8150
18342TIP3    H276518   3.885   3.191   0.652 -0.8404 -0.1400 -0.9007
18343TIP3   OH276519   4.025   2.795   3.823  0.0438 -0.1760  0.8299
18343TIP3    H176520   4.049   2.715   3.776  1.2427  0.0840  0.9722
18343TIP3    H276521   3.929   2.795   3.822  0.0174 -1.5423  0.7048
18344TIP3   OH276522   2.052   3.179   1.455 -0.8231 -0.0025  0.3253
18344TIP3    H176523   2.023   3.177   1.546 -1.7158 -0.4763  0.0428
18344TIP3    H276524   2.047   3.271   1.429 -3.6035 -0.2034 -0.1599
18345TIP3   OH276525   4.395   1.692   0.073 -0.5500  0.2329 -0.3686
18345TIP3    H176526   4.346   1.632   0.129  0.7677 -1.1058 -0.5893
18345TIP3    H276527   4.387   1.777   0.116 -0.1334 -0.6389  1.5073
18346TIP3   OH276528   0.971   1.521   6.234  0.0731  0.5005  0.3915
18346TIP3    H176529   0.973   1.429   6.260  0.9365 -0.1985 -1.9310
18346TIP3    H276530   1.035   1.563   6.292 -1.3203 -0.0200  2.4203
18347TIP3   OH276531   1.877   0.596   4.893  0.1324  0.0635 -0.2622
18347TIP3    H176532   1.920   0.551   4.820  0.9339  0.6677 -0.1710
18347TIP3    H276533   1.948   0.616   4.953 -0.2506  1.2648 -0.1983
18348TIP3   OH276534   6.671   0.491  12.148 -0.1998 -0.3140 -0.5494
18348TIP3    H176535   6.616   0.497  12.070 -1.0946  0.9881  0.1389
18348TIP3    H276536   6.760   0.511  12.116 -0.7342  1.4447 -1.0783
18349TIP3   OH276537   2.986   5.463  16.631 -0.1313 -0.3696 -0.3181
18349TIP3    H176538   3.031   5.533  16.678  0.0908 -0.2735 -0.6671
18349TIP3    H276539   2.897   5.463  16.666 -0.4500  0.8044 -1.0618
18350TIP3   OH276540   0.081   1.487  16.950  0.0852 -0.2324  0.0478
18350TIP3    H176541   0.046   1.403  16.980 -2.9098  0.2460 -1.6592
18350TIP3    H276542   0.030   1.507  16.872  2.4325  2.0302 -1.0411
18351TIP3   OH276543   2.846   3.792   2.183 -0.1010 -0.5543  1.0845
18351TIP3    H176544   2.907   3.866   2.189  0.2758 -0.9220  1.9272
18351TIP3    H276545   2.900   3.720   2.151 -0.2525 -0.7060  1.1707
18352TIP3   OH276546   4.979   5.391   2.327 -0.3348  0.1263 -0.6202
18352TIP3    H176547   5.034   5.424   2.257 -2.1582  0.7907 -1.8171
18352TIP3    H276548   4.926   5.322   2.286 -2.0413  1.1082 -0.1737
18353TIP3   OH276549   6.050   6.072  14.473 -0.4363 -0.0906  0.7266
18353TIP3    H176550   6.041   6.019  14.553  0.2041 -0.5321  0.5112
18353TIP3    H276551   6.046   6.162  14.503 -1.0106 -0.2512  1.1635
18354TIP3   OH276552   4.349   3.619   3.677 -0.0592 -0.2555 -0.0974
18354TIP3    H176553   4.420   3.667   3.635  1.6747 -1.4597  1.3034
18354TIP3    H276554   4.362   3.635   3.771 -1.3795 -0.8752  0.2107
18355TIP3   OH276555   2.297   0.782  13.601  0.0135 -0.3041  0.2839
18355TIP3    H176556   2.376   0.829  13.574 -1.5446  2.3035 -0.0229
18355TIP3    H276557   2.269   0.826  13.681 -1.5274 -0.7211 -0.0007
18356TIP3   OH276558   1.191   6.239  13.565 -0.2962  0.0606 -0.4015
18356TIP3    H176559   1.188   6.191  13.648 -1.0432  0.0033 -0.4606
18356TIP3    H276560   1.100   6.256  13.543 -0.1412 -0.4059 -1.4989
18357TIP3   OH276561   5.196   1.820  12.024  0.2899 -0.1586  0.3062
18357TIP3    H176562   5.159   1.842  12.110 -0.5645  1.8861 -0.5076
18357TIP3    H276563   5.119   1.804  11.969  0.8275 -1.3615 -0.1245
18358TIP3   OH276564   4.138   0.904  11.983  1.0171  0.0328  0.1108
18358TIP3    H176565   4.082   0.874  12.054  1.6662  1.8277  1.4671
18358TIP3    H276566   4.227   0.894  12.018  1.7816 -3.7257 -2.3520
18359TIP3   OH276567   5.240   3.540  13.462  0.3005 -0.0238  0.8857
18359TIP3    H176568   5.241   3.630  13.428  1.2626 -0.5243 -0.4755
18359TIP3    H276569   5.328   3.507  13.447 -0.2744 -1.4900  0.5883
18360TIP3   OH276570   6.587   3.213   5.777  0.3606  0.2334 -0.0131
18360TIP3    H176571   6.497   3.209   5.809  0.0360  0.5169 -0.8593
18360TIP3    H276572   6.638   3.165   5.842 -0.2273  1.0003  1.0504
18361TIP3   OH276573   3.141   0.656   3.093 -0.4598  0.1225 -0.1748
18361TIP3    H176574   3.096   0.713   3.155  1.7975 -1.1513  2.8659
18361TIP3    H276575   3.094   0.573   3.097  1.3399 -0.9149  2.3102
18362TIP3   OH276576   4.950   2.566   0.680 -0.5278 -0.2741  0.1197
18362TIP3    H176577   4.859   2.558   0.709 -0.2799  1.4416  1.5319
18362TIP3    H276578   4.943   2.599   0.590 -1.3323  0.8929  0.5829
18363TIP3   OH276579   2.115   3.099  12.765 -0.4437 -0.2593  0.1285
18363TIP3    H176580   2.105   3.033  12.696 -1.7393  1.0774 -1.0270
18363TIP3    H276581   2.190   3.151  12.737  1.1039 -1.6747  1.4649
18364TIP3   OH276582   1.520   0.853  16.156  0.4419  0.1516 -0.5721
18364TIP3    H176583   1.428   0.856  16.129 -0.0054 -1.7874  0.5459
18364TIP3    H276584   1.556   0.937  16.126 -2.3485  2.2582  1.3568
18365TIP3   OH276585   0.341   0.262  12.630  0.5636 -0.2275  0.2713
18365TIP3    H176586   0.252   0.256  12.665  0.0395  1.4913 -0.6266
18365TIP3    H276587   0.398   0.243  12.705 -0.5437  0.5310  1.3489
18366TIP3   OH276588   0.536   4.604  16.808  0.5739  0.1389 -0.0298
18366TIP3    H176589   0.475   4.548  16.761  1.0567 -0.3302 -0.1134
18366TIP3    H276590   0.597   4.543  16.851  1.4756  0.5932 -0.6264
18367TIP3   OH276591   2.954   0.871  14.848 -0.7028  0.1347 -0.1905
18367TIP3    H176592   2.920   0.785  14.869 -0.3801  0.6847  3.1776
18367TIP3    H276593   3.036   0.854  14.800 -0.9016 -1.3776 -0.0198
18368TIP3   OH276594   3.874   0.101  11.931  0.5944 -0.3685  0.4240
18368TIP3    H176595   3.796   0.089  11.986  2.1773  1.4086  3.2840
18368TIP3    H276596   3.866   0.190  11.897  0.9871 -0.4695  0.0594
18369TIP3   OH276597   2.858   5.653  11.980  0.2536 -0.1688 -0.2875
18369TIP3    H176598   2.815   5.629  12.063 -1.1597 -0.2759 -1.0140
18369TIP3    H276599   2.864   5.571  11.932  2.2492 -0.3483  0.1779
18370TIP3   OH276600   5.006   3.201  15.609 -0.4807  1.2753  0.3186
18370TIP3    H176601   4.985   3.196  15.703 -0.0979 -4.6535  0.4840
18370TIP3    H276602   5.100   3.216  15.606 -0.3400  0.5917  0.9662
18371TIP3   OH276603   3.989   1.451  13.404  0.0758 -0.0114 -0.1675
18371TIP3    H176604   4.077   1.456  13.440  0.2214  2.2102 -0.6808
18371TIP3    H276605   3.937   1.406  13.471  1.2272  0.2451  0.9272
18372TIP3   OH276606   4.186   4.963   0.604 -0.6632 -0.1338  0.2183
18372TIP3    H176607   4.110   4.971   0.662 -0.3231 -1.3986  0.8689
18372TIP3    H276608   4.208   4.870   0.607 -0.5525 -0.2167 -1.8499
18373TIP3   OH276609   5.807   6.055  11.372  0.3921 -0.5800  0.2395
18373TIP3    H176610   5.776   5.968  11.393  0.7374 -0.9142 -0.5696
18373TIP3    H276611   5.739   6.091  11.315  0.9026 -0.8695 -0.5775
18374TIP3   OH276612   0.613   2.683   2.629 -0.2514  0.1311 -0.4526
18374TIP3    H176613   0.651   2.742   2.563 -0.2502  0.5145 -0.1151
18374TIP3    H276614   0.519   2.698   2.622 -0.3659 -0.8602 -1.3273
18375TIP3   OH276615   2.947   3.616  16.521  0.2783  0.3567  0.7893
18375TIP3    H176616   3.032   3.642  16.486  0.1335 -0.3731 -0.1426
18375TIP3    H276617   2.951   3.521  16.524 -0.6334  0.2977  0.3946
18376TIP3   OH276618   3.279   0.642  16.066 -0.4557 -0.6171 -0.0401
18376TIP3    H176619   3.323   0.719  16.029 -2.6826 -0.5533 -2.8212
18376TIP3    H276620   3.209   0.678  16.121  0.4777 -0.7395  1.2961
18377TIP3   OH276621   3.966   3.624  14.304 -0.0844 -0.2106  0.3042
18377TIP3    H176622   3.875   3.652  14.314  0.2222  0.4524  1.3531
18377TIP3    H276623   3.996   3.669  14.225 -0.5219 -0.0427  0.2340
18378TIP3   OH276624   5.125   5.011   3.026 -0.2056 -0.6081 -0.0926
18378TIP3    H176625   5.154   5.020   2.935 -1.2782  1.6792 -0.2721
18378TIP3    H276626   5.030   5.005   3.020 -0.4345  1.4202  0.9349
18379TIP3   OH276627   5.071   5.203   1.504  0.7684  0.4049  0.4726
18379TIP3    H176628   4.995   5.232   1.454  0.2450  1.4265  1.7992
18379TIP3    H276629   5.145   5.213   1.444  0.0036  0.5079 -0.4594
18380TIP3   OH276630   0.334   2.287   3.248  0.1877 -0.0890 -0.1205
18380TIP3    H176631   0.376   2.232   3.314 -0.8912 -1.3601 -0.4605
18380TIP3    H276632   0.244   2.296   3.277  0.0239  0.4175 -0.7545
18381TIP3   OH276633   5.243   1.044  14.331 -0.3566 -0.2793  0.0887
18381TIP3    H176634   5.277   0.980  14.393 -0.6410 -0.2716  0.2540
18381TIP3    H276635   5.319   1.098  14.309 -0.1930 -0.4534  0.2146
18382TIP3   OH276636   0.059   1.064  13.129 -0.0796  0.0873 -0.6879
18382TIP3    H176637  -0.024   1.049  13.084  0.6364 -0.8342 -1.7687
18382TIP3    H276638   0.037   1.120  13.203 -1.7972 -0.7922 -0.4812
18383TIP3   OH276639   0.274   1.942  14.034 -0.1586  0.2655 -0.3049
18383TIP3    H176640   0.190   1.943  13.988 -0.9528  1.0211  1.1025
18383TIP3    H276641   0.316   2.024  14.009  0.6950 -0.5940 -1.8711
18384TIP3   OH276642   4.752   1.174  15.948 -0.2652 -0.7001  0.0007
18384TIP3    H176643   4.703   1.220  15.880  0.8495 -0.3973 -0.6205
18384TIP3    H276644   4.687   1.153  16.015 -0.9222  1.2178  0.0104
18385TIP3   OH276645   0.649   4.863  11.512  0.3262 -0.0306  0.1517
18385TIP3    H176646   0.655   4.784  11.458  0.4442 -0.0775  0.2341
18385TIP3    H276647   0.735   4.871  11.553  0.4030  0.2942 -0.0714
18386TIP3   OH276648   3.469   0.676   1.311 -0.1719  0.3740 -0.2015
18386TIP3    H176649   3.473   0.597   1.257 -2.6051 -0.5952  0.8970
18386TIP3    H276650   3.461   0.748   1.248 -0.0605 -0.4423 -1.1709
18387TIP3   OH276651   5.201   3.768   0.175 -0.2528 -0.3182  0.1200
18387TIP3    H176652   5.166   3.750   0.262 -1.8018  1.9951  0.0556
18387TIP3    H276653   5.296   3.759   0.185 -0.3926 -0.0538  2.0499
18388TIP3   OH276654   6.556   1.264  13.997  0.3589 -0.2459 -0.1635
18388TIP3    H176655   6.478   1.289  14.045  0.9320  1.2459  0.0488
18388TIP3    H276656   6.527   1.194  13.939 -0.8533 -0.5162  0.7335
18389TIP3   OH276657   6.590   6.547  14.926 -0.1254 -0.1622 -0.2011
18389TIP3    H176658   6.669   6.550  14.979  0.4097  2.4032 -1.0065
18389TIP3    H276659   6.619   6.517  14.840 -0.1087  0.3928 -0.3880
18390TIP3   OH276660   3.759   4.722   2.207  0.0209 -0.3897 -0.7847
18390TIP3    H176661   3.750   4.628   2.218 -0.3689 -0.3336 -0.5891
18390TIP3    H276662   3.681   4.748   2.157 -0.2996 -0.0571 -0.1231
18391TIP3   OH276663   1.674   3.104  12.298  0.2132 -0.4186 -0.1362
18391TIP3    H176664   1.681   3.063  12.212  1.3851 -1.9554  0.6433
18391TIP3    H276665   1.603   3.168  12.289  0.8169  0.0046 -2.4321
18392TIP3   OH276666   5.516   0.298  12.411  0.6151 -0.3606  0.0239
18392TIP3    H176667   5.528   0.248  12.492  0.0241  2.2683  1.8748
18392TIP3    H276668   5.581   0.369  12.416 -1.7860  2.0150  0.1236
18393TIP3   OH276669   6.492   4.688  13.864 -0.8230 -0.1132 -0.0773
18393TIP3    H176670   6.419   4.631  13.842 -0.4055 -0.4428 -0.6266
18393TIP3    H276671   6.451   4.774  13.879 -1.3485 -0.3467 -0.1479
18394TIP3   OH276672   3.904   0.952   0.858  0.5042  0.2273 -0.5255
18394TIP3    H176673   3.910   1.041   0.822  0.7796 -0.6350 -2.8079
18394TIP3    H276674   3.814   0.925   0.838  0.2503  0.1731  0.6576
18395TIP3   OH276675   3.669   2.957  12.541 -0.3122 -0.2713  0.1975
18395TIP3    H176676   3.731   2.977  12.471 -0.0808 -0.6208  0.2979
18395TIP3    H276677   3.590   3.005  12.518  0.5603  1.6923  0.9953
18396TIP3   OH276678   1.143   5.556  14.037 -0.8524  0.8392 -0.0490
18396TIP3    H176679   1.144   5.643  13.996  1.6118  1.2448  0.6894
18396TIP3    H276680   1.212   5.561  14.104  0.1132 -1.9975 -0.7095
18397TIP3   OH276681   1.424   2.666   2.029 -0.0493 -0.2457 -0.4036
18397TIP3    H176682   1.454   2.697   2.115  1.3640 -1.4364 -0.4253
18397TIP3    H276683   1.443   2.572   2.030 -0.1406 -0.3015 -1.9712
18398TIP3   OH276684   6.538   5.767   2.347 -0.2951 -0.1617  0.1612
18398TIP3    H176685   6.485   5.731   2.418  0.7705 -1.3622  0.3758
18398TIP3    H276686   6.553   5.858   2.372 -1.2070 -0.1470  0.7068
18399TIP3   OH276687   6.298   2.311  16.762  0.0369 -0.6988  0.6000
18399TIP3    H176688   6.254   2.371  16.822  1.9355  0.5819  0.7925
18399TIP3    H276689   6.347   2.367  16.703  0.3735 -2.0269 -0.4344
18400TIP3   OH276690   2.412   3.865   1.541 -0.1174  0.0377  0.5081
18400TIP3    H176691   2.335   3.843   1.593 -0.1552  0.1499  0.4991
18400TIP3    H276692   2.402   3.814   1.460 -0.7856  0.9457 -0.0069
18401TIP3   OH276693   0.875   6.383   2.882  0.9118  0.2926 -0.0694
18401TIP3    H176694   0.948   6.331   2.849 -0.1280  0.0147 -2.1288
18401TIP3    H276695   0.798   6.328   2.869  0.0664  1.4231 -0.0710
18402TIP3   OH276696   6.460   3.799   0.721  0.4573 -0.3257 -0.2103
18402TIP3    H176697   6.454   3.703   0.728  0.1471 -0.3058 -0.1801
18402TIP3    H276698   6.388   3.823   0.662 -1.4472  0.1683  2.1583
18403TIP3   OH276699   2.576   1.565  12.567 -0.3731 -0.1763 -0.4603
18403TIP3    H176700   2.515   1.492  12.576 -0.9389  0.4803  1.7792
18403TIP3    H276701   2.597   1.568  12.474 -0.4328 -3.0710 -0.6595
18404TIP3   OH276702   1.349   0.697  12.557  1.0363 -0.0716 -0.2522
18404TIP3    H176703   1.290   0.658  12.621  2.5755 -4.2309 -1.0566
18404TIP3    H276704   1.307   0.680  12.472  1.2163  1.2365 -0.6337
18405TIP3   OH276705   5.330   2.803   1.962 -0.0109 -0.2376 -0.0965
18405TIP3    H176706   5.418   2.799   1.925  1.2149  1.2905  2.3837
18405TIP3    H276707   5.281   2.861   1.904  0.9056 -0.3547 -1.0015
18406TIP3   OH276708   3.315   0.493  13.498  0.2770 -0.1142  0.0813
18406TIP3    H176709   3.399   0.464  13.534  0.1323 -0.0492  0.4711
18406TIP3    H276710   3.261   0.511  13.574  0.4221  1.3710 -0.1305
18407TIP3   OH276711   3.994   4.472  13.935 -0.1132 -0.1556  0.0156
18407TIP3    H176712   3.946   4.538  13.884 -1.1220 -0.6452  0.2927
18407TIP3    H276713   3.929   4.403  13.950  0.2926 -0.2257  1.5812
18408TIP3   OH276714   1.291   0.734  15.764 -0.5692 -0.4875  0.0604
18408TIP3    H176715   1.226   0.800  15.740  0.0580  0.1495  0.0838
18408TIP3    H276716   1.262   0.654  15.720 -2.0957 -0.5672  1.1324
18409TIP3   OH276717   1.661   3.162   3.849  0.5864 -0.0440  0.3755
18409TIP3    H176718   1.700   3.124   3.928 -0.0517  0.0146  0.7309
18409TIP3    H276719   1.622   3.087   3.804 -0.1284  0.0942  0.7552
18410TIP3   OH276720   6.484   6.688  12.094  0.0011  0.1484 -0.2704
18410TIP3    H176721   6.454   6.613  12.044  0.2920  0.1942 -0.5157
18410TIP3    H276722   6.488   6.760  12.031 -1.4392  0.6874  0.2092
18411TIP3   OH276723   1.025   4.252   2.522 -0.8009  0.8065 -0.2520
18411TIP3    H176724   0.965   4.185   2.489 -0.5472  0.7482 -0.6082
18411TIP3    H276725   1.011   4.253   2.617  0.8758 -1.4650  0.1037
18412TIP3   OH276726   3.953   5.653   5.343 -0.1957  0.0231 -0.1856
18412TIP3    H176727   3.948   5.592   5.417  0.1357  0.6143  0.3355
18412TIP3    H276728   3.880   5.629   5.287  0.7576 -1.8079 -0.7359
18413TIP3   OH276729   2.021   6.822   2.518 -0.3459  0.2672  0.0278
18413TIP3    H176730   2.013   6.907   2.475 -0.2905  0.8162  1.0714
18413TIP3    H276731   2.093   6.833   2.580 -1.5151  0.0329  1.4733
18414TIP3   OH276732   0.930   4.625   5.338 -0.7131  0.0142  0.3819
18414TIP3    H176733   0.978   4.704   5.363 -0.9885  0.0351  0.8445
18414TIP3    H276734   0.892   4.646   5.252 -0.5301  0.2707  0.3623
18415TIP3   OH276735   3.676   1.124   1.665 -0.5451  0.1694  0.0788
18415TIP3    H176736   3.716   1.210   1.681  2.1566 -0.4052 -2.6480
18415TIP3    H276737   3.636   1.133   1.578  0.2910 -1.4563 -0.5042
18416TIP3   OH276738   6.811   6.216   2.067  0.3427  0.4719  0.5502
18416TIP3    H176739   6.884   6.180   2.015  1.9092  1.0244  2.2415
18416TIP3    H276740   6.762   6.138   2.095 -0.2057  0.1350 -1.2182
18417TIP3   OH276741   2.152   0.430  16.798 -0.3537  0.4246  0.0147
18417TIP3    H176742   2.174   0.502  16.739  1.1583  0.4406  0.5507
18417TIP3    H276743   2.103   0.471  16.869 -0.6564  0.6988 -0.3496
18418TIP3   OH276744   0.152   3.084   5.227 -0.5672  0.1690 -0.2988
18418TIP3    H176745   0.182   3.117   5.142 -1.6673 -0.4831 -0.9763
18418TIP3    H276746   0.082   3.023   5.204 -1.5111  0.6735  1.1310
18419TIP3   OH276747   5.710   4.094  12.763  0.3785 -0.3229  0.0564
18419TIP3    H176748   5.696   4.044  12.843  2.3285 -0.4463  0.3498
18419TIP3    H276749   5.803   4.117  12.763 -0.1299  2.0800 -0.8015
18420TIP3   OH276750   2.574   2.422  14.926 -0.1681  0.5523  0.0073
18420TIP3    H176751   2.542   2.510  14.906 -0.7640  0.6067  1.1397
18420TIP3    H276752   2.611   2.429  15.013 -0.4955 -0.3906  0.2327
18421TIP3   OH276753   4.259   4.360  16.379 -0.0019  0.2049  0.1452
18421TIP3    H176754   4.192   4.412  16.423  0.0455 -1.0237  1.8071
18421TIP3    H276755   4.256   4.388  16.288 -1.9869  0.9855  0.4007
18422TIP3   OH276756   4.047   5.788   4.621 -0.2645  0.1753  0.1086
18422TIP3    H176757   3.980   5.743   4.570  0.7280 -0.5913 -0.5599
18422TIP3    H276758   4.020   5.774   4.712 -0.9655 -0.1847 -0.1413
18423TIP3   OH276759   5.132   2.063  16.828  0.2956  0.0185 -0.3326
18423TIP3    H176760   5.167   1.974  16.820 -0.7370 -0.3254 -1.2060
18423TIP3    H276761   5.189   2.116  16.772 -1.5761 -0.8703 -3.3749
18424TIP3   OH276762   1.982   5.410   5.192 -0.0670  0.7082 -0.1664
18424TIP3    H176763   1.914   5.415   5.125 -1.7236 -0.3325  1.3147
18424TIP3    H276764   2.022   5.324   5.178  0.8356  1.2331 -0.9053
18425TIP3   OH276765   0.687   4.502  15.512 -0.1466  0.1443 -0.3290
18425TIP3    H176766   0.621   4.442  15.548 -0.4568  2.2428  2.9807
18425TIP3    H276767   0.766   4.482  15.561  0.5593  0.5194 -1.2873
18426TIP3   OH276768   3.471   2.060   3.760 -0.4947 -0.2129  0.3446
18426TIP3    H176769   3.483   2.146   3.719 -2.3229  0.2793  0.7443
18426TIP3    H276770   3.384   2.032   3.732 -0.3551 -1.4621  1.0837
18427TIP3   OH276771   3.998   4.338  15.460  0.3484  0.1548 -0.6033
18427TIP3    H176772   3.953   4.257  15.436 -0.1487 -0.2061  1.4420
18427TIP3    H276773   3.947   4.407  15.418  1.0587 -0.5551 -2.7885
18428TIP3   OH276774   3.516   2.876  12.740 -0.0467  0.2165 -0.5463
18428TIP3    H176775   3.512   2.930  12.819  2.1261  1.7064 -1.3486
18428TIP3    H276776   3.568   2.928  12.678 -1.2678 -1.1004 -2.8141
18429TIP3   OH276777   6.025   6.041   3.318 -0.1844 -0.4956 -0.0421
18429TIP3    H176778   6.048   6.072   3.230 -0.7863  2.2258  0.6727
18429TIP3    H276779   5.930   6.030   3.315 -0.5927  2.1396  0.9011
18430TIP3   OH276780   2.122   2.503   4.888 -0.4978  0.0144 -0.0073
18430TIP3    H176781   2.187   2.573   4.894 -0.3551 -0.1688  0.7631
18430TIP3    H276782   2.070   2.525   4.811 -0.1836  0.7352 -0.0238
18431TIP3   OH276783   1.424   5.564   1.925  0.5070  0.0585 -0.0399
18431TIP3    H176784   1.373   5.561   1.844  2.2553  0.9941 -1.2147
18431TIP3    H276785   1.476   5.644   1.918  1.4418 -0.3750  1.5479
18432TIP3   OH276786   3.420   0.181  13.496  0.0915  0.1722 -0.3013
18432TIP3    H176787   3.501   0.150  13.536  0.6507 -0.6852 -1.9760
18432TIP3    H276788   3.440   0.185  13.402 -1.0285  2.3907 -0.5131
18433TIP3   OH276789   4.012   3.457  13.249 -0.3202  0.3311 -0.5636
18433TIP3    H176790   4.059   3.384  13.287 -1.3104 -0.6339 -1.1360
18433TIP3    H276791   4.052   3.535  13.288  1.1376 -0.4799 -0.3988
18434TIP3   OH276792   0.111   0.208   6.029 -0.6392 -0.1739  0.0517
18434TIP3    H176793   0.163   0.288   6.039  0.9563 -0.9171 -1.6333
18434TIP3    H276794   0.128   0.158   6.109  0.2410  0.1696  0.0903
18435TIP3   OH276795   5.167   3.892  15.237 -0.0142  0.1965  0.1458
18435TIP3    H176796   5.083   3.848  15.254  0.4749 -0.3425  1.2510
18435TIP3    H276797   5.226   3.821  15.213  0.5125  0.3807  0.8898
18436TIP3   OH276798   5.151   5.121   5.957  0.3534 -0.1064  0.4387
18436TIP3    H176799   5.201   5.042   5.981  2.0703  0.5173 -0.9177
18436TIP3    H276800   5.090   5.133   6.030  1.2914 -1.6436  1.5437
18437TIP3   OH276801   0.564   5.909   2.058 -0.0838 -0.0939 -0.2707
18437TIP3    H176802   0.559   5.836   2.120  1.5508  0.4484  0.5564
18437TIP3    H276803   0.615   5.874   1.985  0.8701  0.2675  0.2151
18438TIP3   OH276804   1.091   4.460  12.846 -0.3450  0.3268 -0.4015
18438TIP3    H176805   1.030   4.388  12.854 -1.0493  0.9546 -0.0216
18438TIP3    H276806   1.158   4.443  12.912  1.1224 -1.5086 -2.2443
18439TIP3   OH276807   6.077   0.165  15.421 -0.2974 -0.1974 -0.4676
18439TIP3    H176808   6.103   0.206  15.338  0.5344 -0.7270 -0.4769
18439TIP3    H276809   6.139   0.201  15.485  0.6621 -1.6615 -0.5334
18440TIP3   OH276810   6.613   3.749   3.164  0.0492  0.2545 -0.6544
18440TIP3    H176811   6.677   3.817   3.143  1.0367  0.2348  1.9752
18440TIP3    H276812   6.654   3.696   3.232 -1.8523 -1.2104 -0.5470
18441TIP3   OH276813   6.338   4.738  12.758  0.0118 -0.2316  0.6733
18441TIP3    H176814   6.305   4.816  12.714  1.9136  0.1418 -0.2058
18441TIP3    H276815   6.432   4.751  12.763  0.2328 -1.8894  1.6953
18442TIP3   OH276816   6.487   4.995  12.859 -0.6717  0.2476 -0.0395
18442TIP3    H176817   6.533   4.934  12.917  0.2832  1.2822  0.3307
18442TIP3    H276818   6.556   5.052  12.826 -1.5188  0.9870 -0.5394
18443TIP3   OH276819   2.611   0.576   4.661 -0.4041  0.0096  0.0325
18443TIP3    H176820   2.614   0.658   4.710 -1.8862  0.0947  0.0276
18443TIP3    H276821   2.602   0.508   4.728 -1.2902  0.0333 -0.0555
18444TIP3   OH276822   3.895   0.827   2.902 -0.1904  0.6022 -0.4013
18444TIP3    H176823   3.952   0.815   2.979  0.2460  0.8925 -0.6747
18444TIP3    H276824   3.808   0.840   2.939  0.1607  1.6646  0.0845
18445TIP3   OH276825   5.132   6.122   2.508 -0.1211 -0.2700 -0.3487
18445TIP3    H176826   5.130   6.154   2.598  1.6064 -3.4885  1.0113
18445TIP3    H276827   5.043   6.091   2.491 -0.8965  1.8413 -0.4620
18446TIP3   OH276828   0.115   5.294   0.013 -0.0858  0.0714  0.1318
18446TIP3    H176829   0.111   5.199   0.022  0.9489  0.2122  3.0945
18446TIP3    H276830   0.052   5.327   0.076  0.1063  1.3817 -0.3217
18447TIP3   OH276831   5.035   3.812  13.878  0.1881 -0.4704 -0.3630
18447TIP3    H176832   5.012   3.822  13.786  0.8724 -0.7458 -0.5690
18447TIP3    H276833   5.112   3.868  13.890 -1.6823  2.0558  0.8012
18448TIP3   OH276834   6.203   1.525  10.719 -0.2072  0.3776  0.2180
18448TIP3    H176835   6.128   1.465  10.713  0.5589 -0.5058 -1.0098
18448TIP3    H276836   6.199   1.577  10.639  1.1993 -0.6065 -0.5515
18449TIP3   OH276837   1.056   1.489  14.813 -0.6500  0.0350  0.2255
18449TIP3    H176838   1.036   1.452  14.727 -1.1199  0.6023  0.0836
18449TIP3    H276839   1.039   1.583  14.803 -2.0215 -0.0695  1.3022
18450TIP3   OH276840   1.479   3.491  14.205 -0.6419  0.4142  0.4529
18450TIP3    H176841   1.453   3.399  14.193  1.1804 -0.2958  1.4947
18450TIP3    H276842   1.522   3.492  14.290 -0.5168  2.2378  0.4011
18451TIP3   OH276843   1.690   2.827  12.016 -0.0342  0.3869 -0.4718
18451TIP3    H176844   1.776   2.855  11.985 -0.8170  2.2264 -1.0773
18451TIP3    H276845   1.629   2.894  11.985 -1.6470 -0.6391  0.3057
18452TIP3   OH276846   0.038   1.593   5.684  0.1443 -0.0672 -0.1846
18452TIP3    H176847   0.107   1.648   5.721  0.3755 -0.1624 -0.4742
18452TIP3    H276848  -0.026   1.585   5.754  1.0424 -1.0735  0.5519
18453TIP3   OH276849   2.296   5.593   4.661  0.2671  0.0787 -0.1448
18453TIP3    H176850   2.212   5.639   4.655 -0.1801 -0.3564  1.9095
18453TIP3    H276851   2.346   5.644   4.725  0.0860 -1.7160  1.5328
18454TIP3   OH276852   0.626   3.532   5.326  0.0684 -0.1023  0.8146
18454TIP3    H176853   0.570   3.587   5.380 -1.3774  0.2049 -0.8827
18454TIP3    H276854   0.665   3.469   5.387 -1.0391  0.5629  2.2632
18455TIP3   OH276855   5.523   3.480  16.144  0.0774 -0.1995  0.0021
18455TIP3    H176856   5.482   3.420  16.206 -0.2936  1.9621  1.9826
18455TIP3    H276857   5.601   3.512  16.189  0.4229  0.5981 -1.1098
18456TIP3   OH276858   0.616   1.673  15.168  0.5716 -0.2614  0.1612
18456TIP3    H176859   0.566   1.685  15.248 -0.2406 -2.6590  0.0737
18456TIP3    H276860   0.554   1.695  15.098  0.4314 -0.7399  0.1306
18457TIP3   OH276861   1.440   0.121   0.950  0.0495  0.0882 -0.5514
18457TIP3    H176862   1.461   0.182   1.021 -1.4559  0.3064 -0.2610
18457TIP3    H276863   1.445   0.034   0.991 -2.1629  0.2718  0.2606
18458TIP3   OH276864   2.959   0.727  12.695 -0.4545 -0.2256  0.2481
18458TIP3    H176865   3.039   0.769  12.726 -0.7976  0.3325  0.3871
18458TIP3    H276866   2.954   0.644  12.743  1.0859 -1.2308 -1.2001
18459TIP3   OH276867   4.060   0.869   4.689 -0.1187 -0.1098 -0.4682
18459TIP3    H176868   4.130   0.837   4.745 -0.6105  0.1037  0.2772
18459TIP3    H276869   3.983   0.820   4.716 -0.8439  1.5160  0.5689
18460TIP3   OH276870   4.552   5.509  12.548 -0.1322  0.6537  0.4652
18460TIP3    H176871   4.529   5.568  12.620  0.1844  0.7680  0.4740
18460TIP3    H276872   4.527   5.557  12.469 -2.2229 -0.2173  0.5322
18461TIP3   OH276873   4.779   6.869  10.398 -0.4873  0.0105  0.0211
18461TIP3    H176874   4.742   6.845  10.313 -2.9761 -2.0489  1.5740
18461TIP3    H276875   4.704   6.894  10.451  0.8127 -0.3505  2.1235
18462TIP3   OH276876   6.824   2.257  12.553 -0.6308 -0.0356 -0.2839
18462TIP3    H176877   6.774   2.195  12.607 -2.2977  0.4753 -1.1610
18462TIP3    H276878   6.809   2.228  12.463  1.8855 -0.7121 -0.5486
18463TIP3   OH276879   3.107   4.258  14.310 -0.2140  0.0556 -0.4767
18463TIP3    H176880   3.033   4.201  14.292 -0.0040  0.1917 -1.8293
18463TIP3    H276881   3.146   4.222  14.390 -1.3690 -0.3657 -0.0893
18464TIP3   OH276882   3.425   4.882  12.783  0.4483 -0.2451 -0.4955
18464TIP3    H176883   3.491   4.828  12.825  0.1617  0.8402  1.4743
18464TIP3    H276884   3.366   4.820  12.741  1.3105 -1.3342 -0.1332
18465TIP3   OH276885   4.790   3.554  13.422  0.0149  0.6870 -0.1009
18465TIP3    H176886   4.799   3.556  13.327  0.5987  1.3218 -0.0413
18465TIP3    H276887   4.868   3.508  13.452 -1.1429 -1.3214 -0.0191
18466TIP3   OH276888   1.407   3.629   3.867 -0.7084  0.0818 -0.1209
18466TIP3    H176889   1.474   3.585   3.919 -1.6591 -1.2995 -0.0227
18466TIP3    H276890   1.456   3.687   3.808  0.5098 -0.2355  0.5511
18467TIP3   OH276891   0.091   4.673   1.482  0.1753 -0.3799 -0.3934
18467TIP3    H176892   0.033   4.729   1.534 -1.0446 -2.6005  0.7685
18467TIP3    H276893   0.037   4.643   1.410  1.0357  0.4398 -1.4148
18468TIP3   OH276894   0.216   6.818  12.875 -0.4540 -0.2062  0.0380
18468TIP3    H176895   0.248   6.770  12.952  0.4536  0.7885  0.3129
18468TIP3    H276896   0.187   6.902  12.911  0.2866  0.3935 -0.7374
18469TIP3   OH276897   0.475   4.703   4.959 -0.5751 -0.0543  0.2576
18469TIP3    H176898   0.384   4.715   4.983 -0.6950 -0.5217  0.0562
18469TIP3    H276899   0.513   4.791   4.962 -1.2165  0.2522 -0.3938
18470TIP3   OH276900   4.749   4.375   0.393  0.2451  0.0941  0.3245
18470TIP3    H176901   4.755   4.322   0.472 -1.8635  1.0922  1.2213
18470TIP3    H276902   4.773   4.463   0.420  0.2480  0.3027 -0.3306
18471TIP3   OH276903   2.703   4.860   0.350  0.3197  0.1527 -0.3057
18471TIP3    H176904   2.639   4.919   0.310 -1.1183 -0.2783  1.2488
18471TIP3    H276905   2.663   4.834   0.433  2.0948 -0.9259  0.2634
18472TIP3   OH276906   6.037   6.457  12.404  0.2061 -0.7711 -0.2282
18472TIP3    H176907   6.061   6.462  12.311 -1.9718  1.4222 -0.7477
18472TIP3    H276908   6.044   6.363  12.425 -0.8548 -1.5953 -3.0733
18473TIP3   OH276909   4.588   3.393   5.109  0.7926  0.1136 -0.1215
18473TIP3    H176910   4.618   3.366   5.022 -1.2460  0.6046 -1.0185
18473TIP3    H276911   4.529   3.323   5.138  0.8036  0.3559  0.5120
18474TIP3   OH276912   2.494   1.432  16.143  0.1625 -0.2080 -0.0753
18474TIP3    H176913   2.441   1.419  16.064 -2.0603  2.0429  0.8862
18474TIP3    H276914   2.457   1.371  16.207  0.4662 -0.4564 -0.1357
18475TIP3   OH276915   1.954   5.453  13.290 -0.1973 -0.1216 -0.1787
18475TIP3    H176916   1.915   5.458  13.378  1.1841  1.3483  0.3858
18475TIP3    H276917   1.893   5.398  13.241 -0.1299 -2.5048  2.1500
18476TIP3   OH276918   0.933   1.346   2.873  0.6768 -1.0469 -0.0877
18476TIP3    H176919   1.026   1.352   2.897  0.6228  0.3421 -0.1570
18476TIP3    H276920   0.916   1.427   2.825 -0.1378 -2.0978 -1.6328
18477TIP3   OH276921   0.552   4.782   0.058  0.3502  0.3682  0.3300
18477TIP3    H176922   0.523   4.729  -0.016  1.5314 -0.5926  0.5332
18477TIP3    H276923   0.647   4.775   0.057  0.4229  0.9406  1.5064
18478TIP3   OH276924   0.058   2.073   5.260  0.1797  0.1135  0.0991
18478TIP3    H176925   0.129   2.062   5.197  0.2821  0.6265  0.1291
18478TIP3    H276926   0.091   2.134   5.325 -0.9606  1.8823 -0.9043
18479TIP3   OH276927   1.906   5.324  12.749 -0.0530  0.2686  0.3959
18479TIP3    H176928   1.817   5.299  12.774  0.0917 -1.5191 -0.7232
18479TIP3    H276929   1.963   5.277  12.811  0.1561  0.5337  0.4112
18480TIP3   OH276930   1.345   3.757  11.943  0.2593  0.2053  0.0320
18480TIP3    H176931   1.336   3.764  12.038 -0.0164  0.3481 -0.0054
18480TIP3    H276932   1.272   3.703  11.915  1.4633 -1.5335  0.1268
18481TIP3   OH276933   4.154   6.070  13.511 -0.2659 -0.0273  0.0111
18481TIP3    H176934   4.147   6.110  13.598  1.1643  1.0973 -0.3574
18481TIP3    H276935   4.247   6.049  13.502 -0.1059  1.2728 -1.8159
18482TIP3   OH276936   0.685   3.143   4.037 -0.7820 -0.5003  0.2918
18482TIP3    H176937   0.603   3.123   3.993 -1.0072 -1.3904  1.0567
18482TIP3    H276938   0.668   3.122   4.129  0.3103 -0.7419  0.4533
18483TIP3   OH276939   6.152   3.605  13.453  0.0879  0.8147 -0.4252
18483TIP3    H176940   6.093   3.585  13.381 -1.9499  0.0092  1.3567
18483TIP3    H276941   6.203   3.525  13.464 -1.1393  0.1067  0.3717
18484TIP3   OH276942   4.506   1.198  13.384 -0.0419  0.0263 -0.4053
18484TIP3    H176943   4.418   1.168  13.405 -0.0039 -1.1443 -1.7836
18484TIP3    H276944   4.495   1.289  13.360 -0.4182  0.7684  2.2201
18485TIP3   OH276945   3.725   5.697   6.063 -0.9690 -0.3853 -0.0976
18485TIP3    H176946   3.655   5.655   6.113 -5.0748  0.4758 -4.3626
18485TIP3    H276947   3.779   5.624   6.032 -1.5255 -1.4001  1.2160
18486TIP3   OH276948   2.887   0.060  14.025 -0.0664  0.1647 -0.1932
18486TIP3    H176949   2.818   0.124  14.037  1.1293  1.7731 -1.4316
18486TIP3    H276950   2.844  -0.014  13.981 -1.7031 -0.4552  2.2598
18487TIP3   OH276951   4.813   3.911   5.520  0.5862  0.0842 -0.1058
18487TIP3    H176952   4.818   4.000   5.486  0.7328 -0.7766 -2.5730
18487TIP3    H276953   4.729   3.878   5.486  1.1710 -1.1385 -0.4079
18488TIP3   OH276954   2.554   6.697   2.869  0.0969  0.4431 -1.1327
18488TIP3    H176955   2.477   6.741   2.904  0.6131  1.7046 -1.5211
18488TIP3    H276956   2.519   6.628   2.814 -0.7352 -0.3604  0.3382
18489TIP3   OH276957   3.322   6.350   3.239  0.4204  0.5820 -0.7494
18489TIP3    H176958   3.357   6.285   3.300 -0.3756  0.8492  0.0142
18489TIP3    H276959   3.246   6.388   3.284 -0.0960  0.9054 -1.8370
18490TIP3   OH276960   1.871   5.078  15.407 -0.4516  0.9474  0.4929
18490TIP3    H176961   1.953   5.052  15.365 -1.0077  0.5020 -0.3234
18490TIP3    H276962   1.899   5.123  15.487  0.6084  1.8309 -0.3527
18491TIP3   OH276963   2.097   1.954   1.255  0.7955 -0.3235  0.6305
18491TIP3    H176964   2.089   1.961   1.160 -0.2979 -2.4541  0.5058
18491TIP3    H276965   2.073   2.041   1.288 -0.4510 -0.0163 -0.9710
18492TIP3   OH276966   0.440   3.674   4.029  0.0318 -0.3437 -0.0263
18492TIP3    H176967   0.359   3.686   4.079  0.6254 -0.1196  0.8987
18492TIP3    H276968   0.510   3.696   4.091  0.7812  0.0853 -1.0027
18493TIP3   OH276969   1.928   4.292   1.378 -0.4463  0.1280  0.6049
18493TIP3    H176970   1.951   4.205   1.348  1.1906  0.3990  0.9866
18493TIP3    H276971   1.933   4.347   1.300 -0.9863 -0.0120  0.4640
18494TIP3   OH276972   0.264   0.079   3.430  0.1168 -0.0212  0.4263
18494TIP3    H176973   0.334   0.139   3.405  0.6700 -1.0746 -0.6952
18494TIP3    H276974   0.259   0.087   3.526  2.4669 -0.6089  0.6787
18495TIP3   OH276975   5.770   2.627   5.027  0.0085  0.1722 -0.4925
18495TIP3    H176976   5.760   2.722   5.028  1.1667  0.3105 -0.6248
18495TIP3    H276977   5.681   2.593   5.025 -0.4356  1.2892 -3.0622
18496TIP3   OH276978   5.287   5.495   5.705  0.3077  0.0613  0.0426
18496TIP3    H176979   5.197   5.497   5.737  0.3967 -0.4452  0.3455
18496TIP3    H276980   5.289   5.420   5.645  0.4138  0.3504 -0.3163
18497TIP3   OH276981   3.174   6.088   2.927  0.1765 -0.5653  0.2380
18497TIP3    H176982   3.265   6.072   2.903  0.1813  0.0595 -0.1797
18497TIP3    H276983   3.123   6.031   2.871  0.1637  1.1398 -1.5823
18498TIP3   OH276984   6.609   2.107  14.482  1.2125  0.1640 -0.1029
18498TIP3    H176985   6.524   2.132  14.518  1.0785 -0.6149  0.1322
18498TIP3    H276986   6.640   2.186  14.438  0.4807  0.5300  0.0214
18499TIP3   OH276987   0.717   1.498   5.595 -0.1899  0.0121  0.1004
18499TIP3    H176988   0.774   1.562   5.638  0.2428 -0.9542  1.0215
18499TIP3    H276989   0.675   1.451   5.667 -1.2641 -0.0760 -0.5661
18500TIP3   OH276990   3.787   4.738   5.459 -0.1455  0.3354  0.4252
18500TIP3    H176991   3.831   4.823   5.461  0.4443  0.0597 -0.3438
18500TIP3    H276992   3.846   4.680   5.506 -0.2131  0.1960  0.3371
18501TIP3   OH276993   0.346   4.232   0.749  0.5158 -0.0222 -0.2407
18501TIP3    H176994   0.254   4.254   0.732 -0.4554 -2.8547  0.7826
18501TIP3    H276995   0.347   4.208   0.842  1.7803 -2.1583 -0.7470
18502TIP3   OH276996   0.431   3.294  13.391 -0.1546 -0.1115  0.4422
18502TIP3    H176997   0.473   3.210  13.373 -0.0287  0.2462 -1.0093
18502TIP3    H276998   0.371   3.275  13.463 -1.3596 -1.8704 -0.9228
18503TIP3   OH276999   1.339   4.022   0.428  0.0857 -0.6868 -0.1507
18503TIP3    H177000   1.417   4.059   0.470 -0.6028  1.9402 -0.9748
18503TIP3    H277001   1.347   4.050   0.336 -0.8647 -2.1206 -0.7055
18504TIP3   OH277002   5.974   6.449  14.420  0.2620  0.2713  0.1471
18504TIP3    H177003   5.942   6.538  14.435 -0.3654  0.1411 -0.3669
18504TIP3    H277004   5.983   6.443  14.325 -1.5704 -0.8397  0.0017
18505TIP3   OH277005   0.518   3.268  14.319 -0.4091 -0.3189 -0.5067
18505TIP3    H177006   0.429   3.289  14.346  0.0400 -0.6293  1.3826
18505TIP3    H277007   0.573   3.303  14.389  0.9692 -0.0506 -1.6780
18506TIP3   OH277008   3.040   1.814   2.316  0.2541 -0.0755 -0.7771
18506TIP3    H177009   3.113   1.754   2.302  2.2368  2.2699 -1.1797
18506TIP3    H277010   2.988   1.807   2.236  1.7491  0.3835 -1.8341
18507TIP3   OH277011   4.521   1.377   2.655  0.3470  0.1933  0.0849
18507TIP3    H177012   4.577   1.345   2.585 -0.6806  0.7603 -1.0297
18507TIP3    H277013   4.580   1.390   2.729  1.4561 -0.3995 -0.6736
18508TIP3   OH277014   3.795   0.953   1.163 -0.1055  0.6208 -0.2568
18508TIP3    H177015   3.830   0.980   1.077 -2.0274  0.6611 -1.0629
18508TIP3    H277016   3.706   0.923   1.145 -0.4590  0.3571  1.7032
18509TIP3   OH277017   2.851   4.659  12.401 -0.2093 -0.5833 -0.3068
18509TIP3    H177018   2.902   4.601  12.457  0.6321  0.9146  0.5520
18509TIP3    H277019   2.893   4.654  12.316 -0.5755 -1.7420 -0.4300
18510TIP3   OH277020   5.969   3.148  14.790  0.4567  0.2496 -0.4709
18510TIP3    H177021   6.017   3.205  14.851 -0.5316  0.7230 -0.1181
18510TIP3    H277022   5.953   3.202  14.713 -0.7263  0.5609 -0.0252
18511TIP3   OH277023   2.617   5.536   6.233  0.4709 -0.4969  0.0816
18511TIP3    H177024   2.682   5.605   6.243  0.5624 -0.4432 -0.7596
18511TIP3    H277025   2.569   5.536   6.315 -0.2247  1.3075 -0.2637
18512TIP3   OH277026   3.551   5.385   6.328 -0.1329  0.0506  0.1873
18512TIP3    H177027   3.638   5.410   6.357 -0.8160  0.8609  1.6397
18512TIP3    H277028   3.562   5.297   6.290  1.2562  0.0553  0.5453
18513TIP3   OH277029   2.007   0.986   2.095  0.7711 -0.1010 -0.2209
18513TIP3    H177030   1.962   0.981   2.179 -0.9148 -2.2182 -1.1465
18513TIP3    H277031   2.044   0.899   2.082 -1.4198 -0.7560 -2.8625
18514TIP3   OH277032   3.230   5.685  13.442 -0.4809  0.5345 -0.3947
18514TIP3    H177033   3.159   5.666  13.381 -1.0091  1.5562 -0.1149
18514TIP3    H277034   3.309   5.659  13.395 -1.0980 -2.8901  0.1597
18515TIP3   OH277035   0.528   5.165  16.262 -0.1781 -0.5287 -0.4086
18515TIP3    H177036   0.438   5.171  16.292 -0.4197 -0.7852 -1.0749
18515TIP3    H277037   0.554   5.075  16.281  0.0417 -0.3763  0.0484
18516TIP3   OH277038   1.540   2.642   4.312 -0.0550 -0.2042  0.4223
18516TIP3    H177039   1.504   2.602   4.391 -0.2592  1.2425  1.0890
18516TIP3    H277040   1.595   2.713   4.344  0.0778  0.2320 -0.7282
18517TIP3   OH277041   3.232   1.802  13.414 -0.0312 -0.1444  0.3104
18517TIP3    H177042   3.295   1.753  13.361 -2.8381 -2.4333 -1.2246
18517TIP3    H277043   3.225   1.887  13.370  2.4902  0.5189  1.0398
18518TIP3   OH277044   5.952   0.182  13.943 -0.6382  0.3554  0.3417
18518TIP3    H177045   5.904   0.169  14.025 -0.0525  0.4366  0.6998
18518TIP3    H277046   5.915   0.262  13.906 -0.3719  0.7486  0.9155
18519TIP3   OH277047   3.931   5.264   1.758 -0.0637  0.2225 -0.3317
18519TIP3    H177048   3.885   5.317   1.693 -1.1613 -0.2367  0.0478
18519TIP3    H277049   4.012   5.238   1.714 -0.6235  0.2019 -1.4035
18520TIP3   OH277050   5.068   2.763  15.717 -0.8709  0.0377 -0.4208
18520TIP3    H177051   4.996   2.782  15.777 -0.3318  0.4307  0.1058
18520TIP3    H277052   5.140   2.819  15.746  0.1039 -1.3263 -0.0655
18521TIP3   OH277053   4.947   5.352  14.122 -0.2098  0.1582  0.6095
18521TIP3    H177054   4.905   5.391  14.045 -0.2347  0.7938  0.9406
18521TIP3    H277055   4.975   5.266  14.092  2.4380  1.4312 -1.0724
18522TIP3   OH277056   3.833   2.918  14.603  0.2217  0.1362 -0.0926
18522TIP3    H177057   3.844   2.955  14.516 -1.0463 -1.1604 -0.8408
18522TIP3    H277058   3.744   2.883  14.603  0.3171 -0.1823  1.6202
18523TIP3   OH277059   4.036   1.774   4.878 -0.5826  0.5183 -0.4738
18523TIP3    H177060   3.953   1.818   4.897  0.5449  2.2116  0.8026
18523TIP3    H277061   4.070   1.748   4.964 -0.1081 -0.8196 -1.0383
18524TIP3   OH277062   2.855   0.292  11.592 -0.1071  0.6092  0.3713
18524TIP3    H177063   2.812   0.366  11.634 -1.3663 -0.3419  0.8377
18524TIP3    H277064   2.783   0.233  11.568  0.7201  0.2585 -1.4447
18525TIP3   OH277065   2.603   1.194   1.470 -0.5256  0.2060 -0.1838
18525TIP3    H177066   2.522   1.245   1.481 -1.0464 -0.6778  0.1675
18525TIP3    H277067   2.610   1.143   1.551  1.2572  1.4604  0.5005
18526TIP3   OH277068   4.328   6.299   2.762  0.1719 -0.6948 -0.7833
18526TIP3    H177069   4.393   6.274   2.697  0.8983  1.0174 -0.7687
18526TIP3    H277070   4.373   6.292   2.846 -0.0166 -0.6051 -0.6720
18527TIP3   OH277071   6.583   0.601  11.286 -0.9497  0.4906  0.1130
18527TIP3    H177072   6.643   0.561  11.350 -0.2622  1.0657 -0.1596
18527TIP3    H277073   6.554   0.682  11.328  0.1768  1.3085 -0.6242
18528TIP3   OH277074   4.089   2.090  15.518  0.6830  0.0096  0.7980
18528TIP3    H177075   4.090   1.996  15.534  0.5350 -0.1420 -0.0608
18528TIP3    H277076   4.099   2.099  15.423 -2.0294  0.7473  0.4954
18529TIP3   OH277077   5.550   2.882  10.348  0.2017 -0.8270  0.0530
18529TIP3    H177078   5.620   2.904  10.409 -0.7929  0.5018  0.7797
18529TIP3    H277079   5.506   2.806  10.387 -1.1971  0.7428  1.7351
18530TIP3   OH277080   1.045   3.346  16.169  0.0181  0.1213  0.4404
18530TIP3    H177081   1.065   3.438  16.185  0.4017 -0.1362  1.5006
18530TIP3    H277082   0.962   3.347  16.121  1.1481  1.1067 -1.6223
18531TIP3   OH277083   4.725   6.118  12.964  0.0120  0.0658  0.2030
18531TIP3    H177084   4.735   6.098  13.058 -1.5722  3.3331  1.2006
18531TIP3    H277085   4.813   6.107  12.929  1.1747  0.8852  2.5981
18532TIP3   OH277086   6.060   6.737  12.398  0.2304 -0.2450  0.0600
18532TIP3    H177087   6.120   6.791  12.347  1.1174 -1.9471 -0.7966
18532TIP3    H277088   5.997   6.703  12.335  0.0243 -0.6428  0.4670
18533TIP3   OH277089   5.451   5.416   4.620 -0.2186 -0.6594  0.0000
18533TIP3    H177090   5.498   5.382   4.543 -1.0941 -1.3983 -0.2271
18533TIP3    H277091   5.360   5.390   4.605 -0.5996  0.2368  0.7215
18534TIP3   OH277092   0.566   6.422   3.962 -0.7285  0.0638 -0.3463
18534TIP3    H177093   0.482   6.388   3.993 -0.3286 -0.7778 -0.1630
18534TIP3    H277094   0.568   6.400   3.869 -0.0354 -1.3594 -0.0194
18535TIP3   OH277095   0.225   2.790  11.567 -0.1863 -0.0045  0.3208
18535TIP3    H177096   0.293   2.730  11.537 -0.8803 -0.6351 -0.0020
18535TIP3    H277097   0.226   2.861  11.503  0.6189  0.3308  0.6909
18536TIP3   OH277098   1.178   4.584   0.050  0.6748  0.0321 -0.8774
18536TIP3    H177099   1.171   4.593   0.145  1.1010 -0.4822 -0.7904
18536TIP3    H277100   1.099   4.536   0.024  0.2134  0.7826 -0.8775
18537TIP3   OH277101   4.378   1.460   2.396  0.1809  0.0607  0.1495
18537TIP3    H177102   4.395   1.432   2.486  1.2607  1.0485  0.2667
18537TIP3    H277103   4.383   1.379   2.344 -1.5290 -0.7036  1.0769
18538TIP3   OH277104   2.935   6.045   3.390  0.5430  0.3270  0.1374
18538TIP3    H177105   2.873   6.014   3.456 -0.4819  0.4549 -0.7444
18538TIP3    H277106   2.963   5.966   3.344  0.8670  0.2964  0.3824
18539TIP3   OH277107   1.802   4.658  15.832  0.1465  0.0630  0.0167
18539TIP3    H177108   1.719   4.656  15.785 -0.4058  0.4635  0.9533
18539TIP3    H277109   1.780   4.631  15.922  1.2400 -1.0536 -0.0220
18540TIP3   OH277110   5.972   5.780  10.525  0.2541  0.1569 -0.1972
18540TIP3    H177111   6.004   5.735  10.447 -0.3582 -2.8542  1.1180
18540TIP3    H277112   6.042   5.841  10.549  1.2761 -0.2557 -1.9912
18541TIP3   OH277113   4.125   5.607  12.948  0.3654  0.2880 -0.2241
18541TIP3    H177114   4.087   5.677  12.894  0.2185  1.5696  1.4651
18541TIP3    H277115   4.086   5.527  12.913 -0.1947  1.1239 -1.6187
18542TIP3   OH277116   0.567   3.566  16.516 -0.1595 -0.6392 -0.2403
18542TIP3    H177117   0.496   3.529  16.569  0.7391 -0.7581  0.9057
18542TIP3    H277118   0.563   3.516  16.434 -0.8674 -1.2245  0.1314
18543TIP3   OH277119   2.963   0.100   2.800  0.5369  0.8793  0.2091
18543TIP3    H177120   2.904   0.051   2.743  0.5996  1.7216 -0.6045
18543TIP3    H277121   3.051   0.071   2.774  0.5124 -0.5695  1.5979
18544TIP3   OH277122   4.311   4.656   0.921  0.1069 -0.5296  0.3650
18544TIP3    H177123   4.376   4.726   0.917 -0.6948  0.2044 -0.1532
18544TIP3    H277124   4.339   4.593   0.854  1.3745 -1.2226  1.4889
18545TIP3   OH277125   0.141   1.080   4.285  0.1855  0.0347  0.2776
18545TIP3    H177126   0.065   1.125   4.248 -0.0698 -0.1953  0.5257
18545TIP3    H277127   0.152   1.117   4.372  0.6348  0.3894  0.0818
18546TIP3   OH277128   3.864   5.486   0.448 -0.1911 -0.3787 -0.2938
18546TIP3    H177129   3.871   5.393   0.430 -1.1093 -0.4943 -0.0708
18546TIP3    H277130   3.778   5.497   0.488 -0.7645  0.7834 -1.7578
18547TIP3   OH277131   3.232   0.701   4.298  0.4065  0.2983 -0.5909
18547TIP3    H177132   3.185   0.769   4.250  1.3297  0.9550 -0.5843
18547TIP3    H277133   3.261   0.745   4.378  2.6659  0.4764 -1.4398
18548TIP3   OH277134   0.980   4.475  12.357 -0.7831  0.0611  0.0872
18548TIP3    H177135   0.929   4.491  12.278 -0.6823 -2.4737 -0.5749
18548TIP3    H277136   1.013   4.561  12.382 -0.1277  0.8775 -3.1119
18549TIP3   OH277137   4.716   5.470   5.790 -0.2245  0.0748  0.2187
18549TIP3    H177138   4.799   5.510   5.818 -0.5611 -0.1284  1.5430
18549TIP3    H277139   4.692   5.412   5.862 -0.7538 -1.0353 -0.8227
18550TIP3   OH277140   4.214   4.328   4.545 -0.5212  0.1405 -0.2352
18550TIP3    H177141   4.181   4.415   4.566  0.6544  0.8321 -1.1642
18550TIP3    H277142   4.276   4.308   4.615  1.3195  1.2808 -1.4447
18551TIP3   OH277143   6.637   2.283   6.121  0.2614  0.6836 -0.1837
18551TIP3    H177144   6.731   2.291   6.135  0.3060 -0.1085  0.0055
18551TIP3    H277145   6.609   2.371   6.097  1.1249  0.8256 -0.6942
18552TIP3   OH277146   4.268   0.399  10.844  0.3251  0.0986  0.1764
18552TIP3    H177147   4.197   0.444  10.799  1.4564 -1.9533 -4.2372
18552TIP3    H277148   4.225   0.331  10.896 -1.0118  0.2726 -0.6558
18553TIP3   OH277149   1.303   4.161  15.339  0.5387 -0.4967  0.5899
18553TIP3    H177150   1.387   4.149  15.383  1.8861  3.2268 -0.5046
18553TIP3    H277151   1.278   4.251  15.360 -2.8877 -1.2459  0.3003
18554TIP3   OH277152   0.566   5.230  13.414  0.3075 -0.3236 -0.4389
18554TIP3    H177153   0.488   5.248  13.361  0.0389  0.5546  0.2295
18554TIP3    H277154   0.631   5.293  13.382  0.5631 -0.6607 -0.5923
18555TIP3   OH277155   3.920   5.687  11.896 -0.6042  0.3834 -0.4145
18555TIP3    H177156   3.853   5.632  11.855 -1.9306  1.4102  0.3240
18555TIP3    H277157   3.994   5.628  11.910 -1.6671 -0.9923 -0.4410
18556TIP3   OH277158   3.486   0.630  14.619  0.1321  0.1580 -0.0077
18556TIP3    H177159   3.463   0.723  14.626  1.1391  0.4065  0.2404
18556TIP3    H277160   3.424   0.585  14.677 -0.3498  0.6717 -0.1132
18557TIP3   OH277161   6.813   3.916   0.875  0.4010 -0.0779 -0.1846
18557TIP3    H177162   6.815   3.821   0.864 -0.2793 -0.0164 -0.9055
18557TIP3    H277163   6.766   3.930   0.957 -0.3218 -0.3345 -0.5506
18558TIP3   OH277164   0.630   5.057   1.869 -0.0085 -0.0911 -0.1260
18558TIP3    H177165   0.654   5.148   1.852 -2.4746  0.7217  0.3064
18558TIP3    H277166   0.536   5.053   1.848 -0.0978 -2.3746  0.4745
18559TIP3   OH277167   0.270   6.247   2.772  0.2682 -0.2012 -0.4550
18559TIP3    H177168   0.218   6.238   2.851  0.5142 -0.6257 -0.3379
18559TIP3    H277169   0.232   6.183   2.711 -0.5378  0.7802 -1.0267
18560TIP3   OH277170   3.830   6.482   1.390 -0.2012 -0.5026 -0.1190
18560TIP3    H177171   3.766   6.542   1.429  0.1512 -0.4666  0.4189
18560TIP3    H277172   3.915   6.522   1.410  0.0024 -0.6920 -0.5894
18561TIP3   OH277173   4.207   3.670  16.296 -0.2151  0.7739  0.1707
18561TIP3    H177174   4.271   3.735  16.266 -1.5376  2.2230  0.4145
18561TIP3    H277175   4.166   3.710  16.373  0.0270 -1.0263  1.2905
18562TIP3   OH277176   4.265   2.409  16.192 -0.2517  0.6064 -0.2686
18562TIP3    H177177   4.219   2.358  16.125  0.9072  0.9927 -1.3980
18562TIP3    H277178   4.350   2.429  16.153  1.2243 -0.7322  2.0592
18563TIP3   OH277179   0.757   0.116  14.049  0.4840 -0.0525 -0.2089
18563TIP3    H177180   0.709   0.034  14.042 -0.2456  0.3000  0.5560
18563TIP3    H277181   0.769   0.145  13.958  0.9500 -1.1094 -0.4944
18564TIP3   OH277182   5.991   5.079  12.842  0.5278 -0.1290 -0.1701
18564TIP3    H177183   5.990   5.155  12.900  0.3472 -0.6247  0.4876
18564TIP3    H277184   5.949   5.110  12.761 -2.1801 -0.2676  1.0697
18565TIP3   OH277185   3.613   2.071   5.950 -0.7194 -0.2716 -0.0978
18565TIP3    H177186   3.558   2.002   5.986 -0.9894  0.5777  1.1908
18565TIP3    H277187   3.698   2.058   5.991 -1.4031  1.5605  2.1092
18566TIP3   OH277188   2.317   1.054  16.719 -0.0178  0.4138  0.0726
18566TIP3    H177189   2.370   0.976  16.739 -0.2436  0.0732 -0.6152
18566TIP3    H277190   2.239   1.044  16.773 -0.8151 -0.7100 -1.2004
18567TIP3   OH277191   2.491   6.797   6.430  0.1991  0.6694 -0.0128
18567TIP3    H177192   2.539   6.758   6.503 -1.5418  1.7294  1.8096
18567TIP3    H277193   2.499   6.891   6.443 -0.4301  0.8821 -1.0220
18568TIP3   OH277194   6.296   2.738  13.735  0.0833  0.0254  0.1260
18568TIP3    H177195   6.208   2.751  13.771 -0.4454  0.0710 -1.1312
18568TIP3    H277196   6.352   2.731  13.812 -0.9005  0.7928  0.9508
18569TIP3   OH277197   0.508   6.833  14.174 -0.9016 -0.1449 -0.4353
18569TIP3    H177198   0.449   6.759  14.159 -0.9173 -0.0868 -0.6573
18569TIP3    H277199   0.479   6.869  14.258  0.0739 -1.3178  0.4493
18570TIP3   OH277200   3.988   5.246   5.168 -1.1762 -0.0676  0.5524
18570TIP3    H177201   3.936   5.214   5.094  1.2669 -1.6143 -0.6251
18570TIP3    H277202   3.989   5.173   5.230 -1.1601  0.2932  0.9827
18571TIP3   OH277203   2.635   4.307  10.852  0.0288  0.3011 -0.2539
18571TIP3    H177204   2.608   4.298  10.761 -0.8485  0.3112 -0.0107
18571TIP3    H277205   2.646   4.217  10.883 -0.4320  0.2717 -0.1631
18572TIP3   OH277206   3.226   6.510   6.302  0.1417 -0.0675  0.1591
18572TIP3    H177207   3.286   6.449   6.345  0.5579  0.0595 -0.2378
18572TIP3    H277208   3.277   6.589   6.288 -0.7178  0.7894  1.6583
18573TIP3   OH277209   3.721   4.496  11.598  0.1937 -0.0768 -0.0856
18573TIP3    H177210   3.699   4.409  11.633  1.3042 -0.6562 -0.7941
18573TIP3    H277211   3.764   4.479  11.515  0.2732  1.1719 -0.3226
18574TIP3   OH277212   3.182   6.368   3.724  0.6399 -0.2615  0.1275
18574TIP3    H177213   3.118   6.328   3.782  1.7402 -1.8635  0.2997
18574TIP3    H277214   3.267   6.346   3.762  1.3899 -1.0643 -1.8503
18575TIP3   OH277215   3.095   5.707   1.055  0.3462  0.3236  0.5090
18575TIP3    H177216   3.127   5.779   1.110  0.1550  1.0535 -0.3052
18575TIP3    H277217   3.007   5.690   1.086  0.5907  0.0676  1.0653
18576TIP3   OH277218   6.720   1.630  14.503  0.1504 -0.6262 -0.0684
18576TIP3    H177219   6.728   1.703  14.441  0.6744  1.3460  2.1361
18576TIP3    H277220   6.636   1.646  14.547  0.6713 -0.8269  1.0316
18577TIP3   OH277221   4.870   5.327  11.342 -0.8167 -0.2405 -0.1461
18577TIP3    H177222   4.824   5.410  11.352  1.0517  0.7244  1.0883
18577TIP3    H277223   4.840   5.274  11.416 -1.2394 -0.2886 -0.3479
18578TIP3   OH277224   6.070   5.365   3.157 -0.1073  0.2808  1.0620
18578TIP3    H177225   5.998   5.305   3.176  0.8910 -0.8424  1.4530
18578TIP3    H277226   6.049   5.444   3.206 -0.8845 -0.1651  1.4710
18579TIP3   OH277227   2.922   3.327  16.875 -0.4116  0.1718 -0.4881
18579TIP3    H177228   2.961   3.403  16.832  0.3508  0.4489  0.6733
18579TIP3    H277229   2.849   3.363  16.926 -1.0313 -0.0975 -1.1592
18580TIP3   OH277230   5.083   0.952   5.521  0.0187  0.7531 -0.1572
18580TIP3    H177231   5.064   1.044   5.504  0.5767  0.8310 -0.3871
18580TIP3    H277232   5.140   0.953   5.599  0.1294  0.6112 -0.2350
18581TIP3   OH277233   6.406   3.503   0.794 -0.4593  0.0026  0.5796
18581TIP3    H177234   6.447   3.492   0.708 -0.0828  0.0816  0.7488
18581TIP3    H277235   6.322   3.459   0.786  0.4079 -1.7637  0.7946
18582TIP3   OH277236   3.962   1.597  12.848  0.1190 -0.7129 -0.1726
18582TIP3    H177237   3.967   1.692  12.837 -0.9927 -0.6297 -0.0244
18582TIP3    H277238   4.044   1.574  12.892 -0.2651  0.3823  1.1691
18583TIP3   OH277239   5.678   4.126  12.348  0.4569  0.3883  0.3769
18583TIP3    H177240   5.712   4.037  12.336  0.4234  0.5047 -0.6661
18583TIP3    H277241   5.659   4.157  12.260  0.5952  1.4902  0.7150
18584TIP3   OH277242   1.679   5.635   5.517 -0.4338  0.1014  0.1772
18584TIP3    H177243   1.623   5.565   5.481  0.2388 -0.3016 -0.1147
18584TIP3    H277244   1.768   5.607   5.495 -0.1434  0.9546  0.2399
18585TIP3   OH277245   2.466   1.711  11.988 -0.8370  0.6122  0.1740
18585TIP3    H177246   2.425   1.729  11.904 -1.9929  1.5762  0.9096
18585TIP3    H277247   2.497   1.797  12.018  0.3317  0.1429  0.3530
18586TIP3   OH277248   1.597   1.096  14.993  0.3084 -0.3083 -1.2812
18586TIP3    H177249   1.566   1.180  14.960 -1.2453  0.2128  1.1987
18586TIP3    H277250   1.521   1.038  14.986  0.0315 -0.2787  0.8153
18587TIP3   OH277251   3.554   1.885  15.292 -0.4016  0.6185  0.3123
18587TIP3    H177252   3.495   1.918  15.360 -2.4245  0.7334 -1.3822
18587TIP3    H277253   3.551   1.953  15.224 -0.0541 -0.4056 -0.7515
18588TIP3   OH277254   1.435   0.719  13.568  0.3008  0.6287 -0.1836
18588TIP3    H177255   1.504   0.763  13.618  0.7475 -0.3016  0.0452
18588TIP3    H277256   1.354   0.759  13.599  0.7552  2.2241 -0.9537
18589TIP3   OH277257   3.532   2.803  11.933  0.4651 -0.7569 -0.0608
18589TIP3    H177258   3.528   2.871  11.866  1.6851 -1.2423 -0.6559
18589TIP3    H277259   3.523   2.721  11.885 -2.4344 -1.0572  0.7817
18590TIP3   OH277260   5.492   0.264  15.301 -0.2257 -0.2761 -0.1363
18590TIP3    H177261   5.429   0.278  15.231  0.1819  0.8539 -0.2996
18590TIP3    H277262   5.547   0.192  15.270 -2.9804 -3.1799  1.1305
18591TIP3   OH277263   2.358   3.459   4.640  0.4764 -0.4815 -0.1863
18591TIP3    H177264   2.448   3.478   4.616  0.3441  1.8535  0.8731
18591TIP3    H277265   2.365   3.414   4.724  0.6727  0.2305  0.1897
18592TIP3   OH277266   0.589   1.388  15.197 -0.1559 -0.3219  0.2829
18592TIP3    H177267   0.607   1.479  15.220 -1.4178 -0.2522  1.1003
18592TIP3    H277268   0.598   1.340  15.279  0.9616 -1.0297 -0.2360
18593TIP3   OH277269   4.279   6.052   3.012  0.2475  0.1835  0.0163
18593TIP3    H177270   4.200   6.075   2.963  0.8715 -0.7244 -1.4805
18593TIP3    H277271   4.333   6.132   3.010 -0.2933  0.5655  0.3880
18594TIP3   OH277272   2.628   0.887  12.030  0.2774  0.1658 -0.5333
18594TIP3    H177273   2.696   0.941  11.990  1.1268  0.0533  0.6971
18594TIP3    H277274   2.552   0.945  12.037  0.2697  0.3339 -1.7921
18595TIP3   OH277275   1.006   0.542  15.898 -0.1056  0.5916 -0.2442
18595TIP3    H177276   1.046   0.567  15.982  0.9148  1.4833 -0.9696
18595TIP3    H277277   0.998   0.625  15.851 -1.8974  0.2902 -0.5395
18596TIP3   OH277278   4.462   1.791  13.433  0.6991  0.3581 -0.0084
18596TIP3    H177279   4.391   1.855  13.432  0.7995  0.4700 -0.0086
18596TIP3    H277280   4.494   1.788  13.343  1.2830  0.9709  0.1647
18597TIP3   OH277281   2.274   6.609   5.604  0.2475  0.1279  0.0723
18597TIP3    H177282   2.272   6.526   5.557 -1.3598  1.3118 -2.1007
18597TIP3    H277283   2.261   6.675   5.536 -1.9999  1.9646  2.1560
18598TIP3   OH277284   0.089   6.784   0.485 -0.4939 -0.5844  0.0624
18598TIP3    H177285   0.068   6.841   0.411  0.9164 -0.0121  0.0720
18598TIP3    H277286   0.135   6.710   0.446  0.7349 -0.0231  0.3773
18599TIP3   OH277287   0.704   2.353   0.178 -0.1083 -0.5210 -0.2918
18599TIP3    H177288   0.672   2.338   0.267  0.9615 -1.6294 -0.0585
18599TIP3    H277289   0.648   2.299   0.123  1.5125 -2.8438  0.1691
18600TIP3   OH277290   1.136   3.423  12.283 -0.1103  0.1501  0.4421
18600TIP3    H177291   1.181   3.454  12.204 -0.0920 -0.3310  0.2543
18600TIP3    H277292   1.063   3.484  12.295 -0.0970  0.2430  0.0647
18601TIP3   OH277293   3.148   4.699   0.765 -0.1500  0.4119  0.0031
18601TIP3    H177294   3.195   4.741   0.693 -0.1416 -2.1379 -1.6333
18601TIP3    H277295   3.056   4.721   0.750 -0.1824 -0.3089 -1.0178
18602TIP3   OH277296   5.048   3.018   4.276  0.2891 -0.3077 -0.1783
18602TIP3    H177297   4.982   3.024   4.345  0.3917 -0.1013 -0.0989
18602TIP3    H277298   4.999   3.029   4.194  0.0054 -1.5712 -0.2096
18603TIP3   OH277299   6.183   2.249  12.381  0.1850  0.3478  0.4935
18603TIP3    H177300   6.173   2.225  12.473  0.3340 -0.0496  0.4090
18603TIP3    H277301   6.272   2.282  12.374  0.4965 -0.5137  0.3033
18604TIP3   OH277302   6.308   0.454   0.887 -0.1075  0.4658 -0.0754
18604TIP3    H177303   6.304   0.546   0.912 -0.1593  0.5664 -0.4423
18604TIP3    H277304   6.217   0.428   0.875 -0.5127 -0.8296  4.1650
18605TIP3   OH277305   1.137   4.039   1.953  0.0262 -0.1374 -0.3945
18605TIP3    H177306   1.060   4.062   2.005  0.5477 -0.5329  0.5881
18605TIP3    H277307   1.209   4.087   1.995  0.1893  0.9519 -1.8496
18606TIP3   OH277308   5.297   6.199  14.362 -0.1006 -0.0517  0.3586
18606TIP3    H177309   5.245   6.214  14.283 -1.1277  1.3803  1.2622
18606TIP3    H277310   5.315   6.105  14.361 -0.6261 -0.1679 -1.2458
18607TIP3   OH277311   4.360   4.345   4.772  0.0304  0.5090  0.2235
18607TIP3    H177312   4.309   4.276   4.813 -0.3021  0.9485  0.5530
18607TIP3    H277313   4.450   4.311   4.771 -0.0528  0.2619  0.8024
18608TIP3   OH277314   2.071   4.467  11.214  0.1580 -0.0501 -0.3698
18608TIP3    H177315   2.049   4.394  11.273  2.5286 -0.6719 -0.1525
18608TIP3    H277316   1.992   4.521  11.213 -1.1478 -1.7969  0.6892
18609TIP3   OH277317   2.453   4.142   0.193 -0.4748 -0.1487 -0.5975
18609TIP3    H177318   2.381   4.087   0.226  0.0392 -0.4157  0.0957
18609TIP3    H277319   2.530   4.086   0.198  0.7063  1.4769  3.0440
18610TIP3   OH277320   1.110   0.393  14.800  0.1078  0.2600  0.4045
18610TIP3    H177321   1.068   0.380  14.714  1.0492 -0.2641  0.0070
18610TIP3    H277322   1.053   0.347  14.861  0.5042 -1.1605 -0.2471
18611TIP3   OH277323   3.248   3.838   1.930 -0.5857 -0.8236  0.5656
18611TIP3    H177324   3.225   3.835   1.837  1.1714 -2.6742  0.1119
18611TIP3    H277325   3.292   3.923   1.941  0.8458 -1.3286 -0.7877
18612TIP3   OH277326   1.588   4.834   1.705 -0.3686 -0.4658 -0.2168
18612TIP3    H177327   1.672   4.856   1.747 -0.8650 -2.6671  2.2207
18612TIP3    H277328   1.539   4.916   1.705  1.0001  0.3939  0.2625
18613TIP3   OH277329   3.777   2.343  14.619 -0.6248  0.1454  0.1409
18613TIP3    H177330   3.812   2.414  14.673 -4.2010  1.5061  0.9589
18613TIP3    H277331   3.714   2.385  14.561 -1.7030 -2.1436 -0.4695
18614TIP3   OH277332   6.172   5.778   0.934  0.7300 -0.3459  0.5469
18614TIP3    H177333   6.231   5.705   0.951  0.6837 -0.6783 -0.6177
18614TIP3    H277334   6.140   5.763   0.845 -1.1545 -0.2070  1.1508
18615TIP3   OH277335   3.767   1.083  11.151  0.1505  0.1758  0.2917
18615TIP3    H177336   3.687   1.104  11.198 -0.1201 -2.2336  1.0347
18615TIP3    H277337   3.739   1.068  11.060 -0.2531 -0.6172  0.5407
18616TIP3   OH277338   5.095   5.448  12.798 -0.1088 -0.4088  0.1452
18616TIP3    H177339   5.005   5.475  12.784  0.2581  0.4493 -0.6688
18616TIP3    H277340   5.095   5.354  12.780 -1.2081 -0.8265  2.0571
18617TIP3   OH277341   5.236   1.280   4.769 -0.0425 -0.6690 -0.2295
18617TIP3    H177342   5.182   1.254   4.695 -0.6608  1.1980 -0.4680
18617TIP3    H277343   5.302   1.338   4.731  2.3693 -3.0073  0.0081
18618TIP3   OH277344   4.042   6.057  15.083 -0.2067  0.2950  0.1551
18618TIP3    H177345   4.135   6.077  15.081 -0.3933  1.2024 -1.2609
18618TIP3    H277346   4.038   5.965  15.109  0.9981  0.5579  1.3682
18619TIP3   OH277347   4.220   6.877  14.062  0.0352  0.2011 -0.1507
18619TIP3    H177348   4.225   6.971  14.045  1.6517  0.0877 -0.4597
18619TIP3    H277349   4.148   6.867  14.125 -0.9194  1.4993 -1.0047
18620TIP3   OH277350   3.786   5.298  10.153 -0.3296  0.7561 -0.4212
18620TIP3    H177351   3.833   5.371  10.194 -1.6451  1.2119  0.3110
18620TIP3    H277352   3.795   5.314  10.059  2.1410  0.0658 -0.3782
18621TIP3   OH277353   4.208   1.101   0.702 -0.1564 -0.5492  0.5576
18621TIP3    H177354   4.221   1.196   0.695 -1.1627 -0.4385 -0.1010
18621TIP3    H277355   4.286   1.063   0.661 -0.1142  0.0108  0.0923
18622TIP3   OH277356   2.390   2.527   3.092 -0.1946 -0.0374  0.0964
18622TIP3    H177357   2.363   2.480   3.013  0.4454  0.9477 -0.7365
18622TIP3    H277358   2.425   2.459   3.150 -0.6345 -0.7714 -0.4805
18623TIP3   OH277359   5.875   4.533   0.831 -0.1202  0.1246  0.1642
18623TIP3    H177360   5.903   4.526   0.740  0.9425  0.8370  0.4209
18623TIP3    H277361   5.811   4.604   0.831  0.0507  0.2790  0.0113
18624TIP3   OH277362   1.869   3.441   3.430 -0.4684 -0.1350 -0.4411
18624TIP3    H177363   1.873   3.348   3.451 -3.3473 -0.1280  0.5621
18624TIP3    H277364   1.932   3.482   3.490 -2.1271 -1.0785  2.1168
18625TIP3   OH277365   1.769   5.456   4.941  0.1666  0.0517 -0.0935
18625TIP3    H177366   1.723   5.496   5.014 -1.4975 -0.8954 -0.5737
18625TIP3    H277367   1.700   5.425   4.883  1.4206 -0.9102 -1.1410
18626TIP3   OH277368   0.551   2.929   5.059  0.7779 -0.5410 -0.1131
18626TIP3    H177369   0.602   3.011   5.054 -0.0446 -0.0302 -0.2900
18626TIP3    H277370   0.467   2.956   5.096 -0.6081 -0.7724 -2.8459
18627TIP3   OH277371   2.484   3.311   5.151 -0.0304  0.0031 -0.6503
18627TIP3    H177372   2.526   3.246   5.094 -0.4358 -0.3547 -0.5542
18627TIP3    H277373   2.533   3.306   5.233 -0.5299 -0.7383 -0.3842
18628TIP3   OH277374   6.658   3.128  13.889  0.1479 -1.0111  0.0483
18628TIP3    H177375   6.585   3.131  13.827  0.1320  1.0939  0.0860
18628TIP3    H277376   6.708   3.208  13.871  1.3083 -1.3977  1.3709
18629TIP3   OH277377   4.638   5.603  16.798 -0.0227 -0.2821 -0.3020
18629TIP3    H177378   4.543   5.587  16.799 -0.0330 -0.2006  0.6203
18629TIP3    H277379   4.676   5.518  16.820  0.0661 -0.0360  0.5337
18630TIP3   OH277380   6.221   4.081   0.549 -0.3878  0.1677  0.0941
18630TIP3    H177381   6.241   3.988   0.534 -1.3800 -0.5385  2.6073
18630TIP3    H277382   6.129   4.089   0.526 -0.4021  0.4491  0.2542
18631TIP3   OH277383   5.292   1.118  11.522  0.1990 -0.0283  0.2629
18631TIP3    H177384   5.349   1.063  11.575 -0.5498 -0.7433  0.3263
18631TIP3    H277385   5.250   1.058  11.460  0.2443  0.6361 -0.4378
18632TIP3   OH277386   1.608   6.600   4.711  0.3290  0.2397  0.4666
18632TIP3    H177387   1.567   6.645   4.637  0.4376 -0.8624 -0.2860
18632TIP3    H277388   1.653   6.669   4.760 -3.0226  1.7152  1.8190
18633TIP3   OH277389   5.818   3.868  14.238 -0.0036 -0.0324 -0.3233
18633TIP3    H177390   5.835   3.798  14.175 -0.4774  0.6459 -1.2390
18633TIP3    H277391   5.834   3.949  14.189 -0.6512  0.5154  0.3424
18634TIP3   OH277392   5.537   2.846   6.634  0.0497  0.7995  0.4127
18634TIP3    H177393   5.535   2.926   6.581  0.3234 -0.0112 -0.8598
18634TIP3    H277394   5.494   2.780   6.580  1.0272 -0.2438  0.8719
18635TIP3   OH277395   4.014   6.665   1.526  0.1319  0.0942 -0.4026
18635TIP3    H177396   4.036   6.668   1.619  0.0289 -1.6545 -0.2815
18635TIP3    H277397   3.947   6.732   1.515 -2.7558 -2.2026  1.6544
18636TIP3   OH277398   6.667   0.830  16.633  0.3173  0.3605  0.8522
18636TIP3    H177399   6.656   0.793  16.721 -2.0336  1.3950  1.0684
18636TIP3    H277400   6.613   0.909  16.634 -0.5894 -0.1338 -1.8181
18637TIP3   OH277401   6.301   3.559   5.974 -0.0144  0.0370  0.4861
18637TIP3    H177402   6.310   3.611   5.894 -0.3313 -0.3501  0.1983
18637TIP3    H277403   6.384   3.573   6.021  0.2151  0.1748  0.0410
18638TIP3   OH277404   1.898   4.722   3.959  0.1028 -0.2938  0.7789
18638TIP3    H177405   1.903   4.806   4.005 -1.7017 -0.4704  1.3686
18638TIP3    H277406   1.965   4.668   4.001  1.8694  1.0444 -0.1512
18639TIP3   OH277407   6.423   3.417   5.655  0.8433 -0.1061  0.4301
18639TIP3    H177408   6.450   3.501   5.693 -0.1339  0.9220 -1.0728
18639TIP3    H277409   6.493   3.356   5.681 -0.0564  0.2919  4.4603
18640TIP3   OH277410   5.480   4.536  16.296  0.1326  0.4342 -0.2750
18640TIP3    H177411   5.427   4.607  16.333 -1.3151 -0.6862 -0.0909
18640TIP3    H277412   5.465   4.461  16.354  0.7288 -0.3438 -1.0808
18641TIP3   OH277413   0.740   0.937   4.658  0.5642  0.3026  0.2266
18641TIP3    H177414   0.783   0.861   4.699  0.7261  0.5631  0.5453
18641TIP3    H277415   0.648   0.911   4.652  0.0814  1.0829  2.8452
18642TIP3   OH277416   2.799   1.412   1.707  0.5887  0.0788  0.3464
18642TIP3    H177417   2.767   1.488   1.755  0.5169 -0.0840  0.5568
18642TIP3    H277418   2.834   1.448   1.625  2.0712  0.5200  1.1400
18643TIP3   OH277419   6.866   3.847  14.447  0.1501 -0.4912 -0.3649
18643TIP3    H177420   6.958   3.874  14.451  0.1641 -0.5704 -0.1781
18643TIP3    H277421   6.859   3.774  14.507  0.9635 -3.4326 -3.5480
18644TIP3   OH277422   3.669   5.514   2.252 -0.3210 -0.4552 -0.0827
18644TIP3    H177423   3.746   5.550   2.296  0.3331 -0.1116 -1.4192
18644TIP3    H277424   3.594   5.557   2.294  0.1289 -1.4151  1.8057
18645TIP3   OH277425   1.126   3.545   5.519  0.0093 -0.2817  0.3129
18645TIP3    H177426   1.093   3.473   5.572 -1.0618  1.1391  1.6630
18645TIP3    H277427   1.106   3.624   5.570  1.0215  0.9903 -1.1624
18646TIP3   OH277428   3.925   0.496   0.688 -0.1391 -0.1345  0.3813
18646TIP3    H177429   3.906   0.555   0.615 -0.7049  0.2706  0.8473
18646TIP3    H277430   3.860   0.427   0.681 -1.9941  1.3351  2.0686
18647TIP3   OH277431   5.685   0.612  15.108  0.1047 -0.1054  0.2567
18647TIP3    H177432   5.637   0.530  15.095  0.0080 -0.3667  2.0190
18647TIP3    H277433   5.639   0.676  15.054 -1.3916 -0.6529  0.8303
18648TIP3   OH277434   6.254   2.526  12.121  0.1619 -0.0597  0.5321
18648TIP3    H177435   6.328   2.571  12.081  1.4383 -0.4891  2.2452
18648TIP3    H277436   6.255   2.439  12.081  0.7097 -0.1172  0.6569
18649TIP3   OH277437   3.502   6.403   5.880  0.0492 -0.1902 -0.5440
18649TIP3    H177438   3.496   6.328   5.821 -1.4847  0.0536 -0.7276
18649TIP3    H277439   3.449   6.379   5.955  1.4587 -0.2211  0.4863
18650TIP3   OH277440   3.519   2.419   5.145  0.1683 -0.3342 -0.3892
18650TIP3    H177441   3.440   2.472   5.135 -0.8378 -1.4721  1.0679
18650TIP3    H277442   3.526   2.370   5.063  1.1532  1.9852 -1.7945
18651TIP3   OH277443   5.379   0.894   3.028 -0.3303 -0.7206 -0.0689
18651TIP3    H177444   5.314   0.873   2.961 -2.0689 -0.7422  1.5459
18651TIP3    H277445   5.397   0.810   3.070  3.2218 -1.3826 -2.4475
18652TIP3   OH277446   1.262   0.221   0.775 -0.4907  0.0928  0.6227
18652TIP3    H177447   1.329   0.198   0.839  0.1041  0.8371  0.2913
18652TIP3    H277448   1.216   0.140   0.757  0.3167 -0.4262  0.8677
18653TIP3   OH277449   4.241   1.679   1.257 -0.1120  0.6964  0.4419
18653TIP3    H177450   4.177   1.625   1.211 -0.6305 -0.0389  1.9519
18653TIP3    H277451   4.220   1.769   1.231  0.9615  0.2200 -2.3562
18654TIP3   OH277452   5.233   6.711   3.796 -0.3718  0.1699  0.4787
18654TIP3    H177453   5.196   6.638   3.845 -0.9691  0.2865  0.1987
18654TIP3    H277454   5.188   6.710   3.712  1.0937 -0.4170 -0.3383
18655TIP3   OH277455   0.951   1.746  12.355 -0.2720 -0.2533  0.3126
18655TIP3    H177456   0.939   1.763  12.262  0.2474 -0.9609  0.1024
18655TIP3    H277457   0.881   1.684  12.377  0.8343 -1.7345 -0.1230
18656TIP3   OH277458   1.884   1.781   1.321 -0.0986  0.1254  0.2926
18656TIP3    H177459   1.927   1.711   1.271  0.1384 -0.6533  1.5583
18656TIP3    H277460   1.945   1.855   1.317 -0.2507  0.2088 -0.8696
18657TIP3   OH277461   1.125   4.882  13.959  0.8791 -0.0504 -0.1676
18657TIP3    H177462   1.065   4.813  13.986  0.6972 -0.1826 -0.8916
18657TIP3    H277463   1.196   4.879  14.024  0.3391 -0.1964  0.4223
18658TIP3   OH277464   2.421   5.331  14.097 -0.3906 -0.3909 -0.5031
18658TIP3    H177465   2.449   5.271  14.166  0.5253 -0.0399 -0.5512
18658TIP3    H277466   2.501   5.376  14.070 -1.3431  2.8056  1.3875
18659TIP3   OH277467   4.321   0.825  14.467  0.2372  0.4003  0.0019
18659TIP3    H177468   4.346   0.905  14.421  2.2484 -0.2799 -0.2098
18659TIP3    H277469   4.396   0.805  14.523 -0.8971 -0.4642  1.2874
18660TIP3   OH277470   5.425   1.540   5.123  0.0633 -0.3051  0.1938
18660TIP3    H177471   5.471   1.466   5.083  0.9214  0.6513 -0.6380
18660TIP3    H277472   5.493   1.589   5.169  0.4659  2.3636 -2.8767
18661TIP3   OH277473   2.853   0.314  15.046 -0.5458  0.0906  0.3336
18661TIP3    H177474   2.828   0.255  14.975  2.0983 -1.9625  0.9145
18661TIP3    H277475   2.901   0.385  15.003  2.2947 -1.8598 -0.0354
18662TIP3   OH277476   4.273   5.844   5.928 -0.6497  0.3058 -0.0205
18662TIP3    H177477   4.198   5.856   5.870 -0.2195 -0.2201 -0.6948
18662TIP3    H277478   4.265   5.753   5.958 -0.5080  0.3775  0.2321
18663TIP3   OH277479   1.939   6.879  13.505 -0.5706  0.6595 -0.3187
18663TIP3    H177480   1.933   6.784  13.501  0.1116  0.6481 -1.7848
18663TIP3    H277481   2.010   6.897  13.566 -0.1465  0.1918 -0.6680
18664TIP3   OH277482   4.556   2.995  11.141  0.3863 -0.2163  0.7557
18664TIP3    H177483   4.517   3.079  11.116  2.2251  0.1527 -1.0351
18664TIP3    H277484   4.635   3.018  11.189  1.1751 -0.9192 -0.1841
18665TIP3   OH277485   6.841   2.986   5.436 -0.0901  0.4301 -0.4809
18665TIP3    H177486   6.771   2.995   5.501  0.0549 -0.3321 -0.2067
18665TIP3    H277487   6.795   2.992   5.352 -0.4380  0.2865 -0.3039
18666TIP3   OH277488   2.563   1.028  12.455  0.0245  0.2494 -1.3236
18666TIP3    H177489   2.525   0.941  12.463 -0.2299  0.4613  0.1010
18666TIP3    H277490   2.509   1.072  12.389 -0.0529 -0.5472 -1.8052
18667TIP3   OH277491   5.810   0.190   4.544  0.3985 -0.1904 -0.0762
18667TIP3    H177492   5.757   0.267   4.523  0.9899  0.0717 -0.6283
18667TIP3    H277493   5.828   0.199   4.638 -0.2876 -0.1299  0.0523
18668TIP3   OH277494   6.760   1.523  15.718 -0.6238 -0.3195 -0.7201
18668TIP3    H177495   6.805   1.601  15.750  0.0860 -0.9554 -0.1233
18668TIP3    H277496   6.710   1.491  15.793  0.2438 -1.2522 -0.5184
18669TIP3   OH277497   3.434   6.389  12.162  0.0420  0.2658 -0.4666
18669TIP3    H177498   3.448   6.482  12.143 -1.0027  1.4015  3.3988
18669TIP3    H277499   3.339   6.381  12.170  0.2376 -0.6373  1.1874
18670TIP3   OH277500   0.092   6.063  12.465 -0.2480 -0.5319  0.3707
18670TIP3    H177501  -0.002   6.078  12.455 -0.9821 -2.8679  2.5778
18670TIP3    H277502   0.114   6.107  12.547  0.4833 -0.3571  0.0829
18671TIP3   OH277503   1.017   5.164   5.377  0.1071 -0.0678  0.0369
18671TIP3    H177504   1.013   5.241   5.433 -1.5062 -0.8274  1.0564
18671TIP3    H277505   1.002   5.090   5.437  2.3925 -1.2927 -0.7667
18672TIP3   OH277506   2.973   6.657   3.273  0.2523  0.6804  0.4022
18672TIP3    H177507   2.922   6.692   3.200 -0.9969  0.7470  1.2756
18672TIP3    H277508   3.065   6.669   3.247 -0.1689  1.6099 -0.7134
18673TIP3   OH277509   2.587   1.996   5.190  0.1727  0.3796 -0.0006
18673TIP3    H177510   2.533   2.057   5.240  0.3940 -0.9605  1.9787
18673TIP3    H277511   2.605   1.925   5.251  1.8884 -0.5342 -1.4904
18674TIP3   OH277512   0.883   0.684   2.283  0.3137  0.1249 -0.2948
18674TIP3    H177513   0.866   0.707   2.192 -0.2710  0.7287 -0.0480
18674TIP3    H277514   0.809   0.722   2.331  0.1681 -0.9120  0.3334
18675TIP3   OH277515   4.354   5.661  16.070  0.6444  0.5994  0.2564
18675TIP3    H177516   4.387   5.688  15.984  0.0640  0.0605 -0.1465
18675TIP3    H277517   4.342   5.566  16.062 -0.4282  0.7010  0.5756
18676TIP3   OH277518   2.811   4.923   5.564 -0.1122  0.3751 -0.3300
18676TIP3    H177519   2.888   4.905   5.510  0.4539 -0.2635  0.6576
18676TIP3    H277520   2.756   4.978   5.509  0.5676 -0.0226 -1.4497
18677TIP3   OH277521   4.524   0.587  16.616  0.1175 -0.7737  1.0654
18677TIP3    H177522   4.533   0.544  16.701  2.7406 -0.4817  1.0279
18677TIP3    H277523   4.611   0.625  16.599 -0.5401 -0.1794 -1.3982
18678TIP3   OH277524   0.463   4.410  13.962  0.2176 -0.0289 -0.3794
18678TIP3    H177525   0.460   4.315  13.973 -0.5595  0.0559  0.1900
18678TIP3    H277526   0.528   4.439  14.027  1.3192 -0.2674 -1.3406
18679TIP3   OH277527   2.784   1.064  13.848 -0.1960  0.4338 -0.0180
18679TIP3    H177528   2.726   1.136  13.823  0.0525  0.1692 -1.4552
18679TIP3    H277529   2.872   1.098  13.832 -0.0751 -1.0470 -3.6558
18680TIP3   OH277530   4.980   5.836   4.389  0.1825 -0.0108  0.1740
18680TIP3    H177531   4.987   5.766   4.324 -1.4308 -0.3156  0.2736
18680TIP3    H277532   5.034   5.907   4.354  1.0734 -0.9482 -0.4074
18681TIP3   OH277533   0.841   2.047   2.657  0.0509  0.0293  0.2287
18681TIP3    H177534   0.796   2.018   2.578 -1.1501 -0.1999  0.9672
18681TIP3    H277535   0.896   2.120   2.629 -0.1971 -0.1827 -0.8457
18682TIP3   OH277536   1.258   5.885  16.874  0.4220 -0.9666  0.3554
18682TIP3    H177537   1.353   5.895  16.869  0.1930  1.1184 -2.1605
18682TIP3    H277538   1.241   5.857  16.964  3.5248 -3.5907  0.3206
18683TIP3   OH277539   0.696   3.105   0.892 -0.4626 -0.1722 -0.1857
18683TIP3    H177540   0.684   3.121   0.986  1.5136 -1.1585  0.2968
18683TIP3    H277541   0.762   3.035   0.888 -0.8599 -0.4862 -2.3090
18684TIP3   OH277542   4.001   2.072   5.011 -0.0994 -0.6345  0.4847
18684TIP3    H177543   3.990   2.145   4.950 -0.9174 -0.6414  0.6175
18684TIP3    H277544   3.924   2.018   4.998 -0.5196 -0.4020  1.8469
18685TIP3   OH277545   6.103   5.119  14.866 -0.0982 -1.2895 -0.6507
18685TIP3    H177546   6.078   5.179  14.936 -0.5287 -2.9117  0.6647
18685TIP3    H277547   6.055   5.149  14.789 -0.0124  0.2360 -0.1397
18686TIP3   OH277548   1.748   3.854   6.328  0.6720  0.0320  0.1933
18686TIP3    H177549   1.746   3.949   6.338 -1.1783  0.0346  0.2070
18686TIP3    H277550   1.838   3.834   6.302  1.0310  1.8066 -0.0331
18687TIP3   OH277551   1.131   0.985  15.923  0.5687 -0.0953  0.3140
18687TIP3    H177552   1.150   0.982  16.017  0.5809  0.8543  0.3516
18687TIP3    H277553   1.108   1.077  15.906  1.4029 -0.0690 -0.7667
18688TIP3   OH277554   5.055   3.192   3.917  0.4457  0.1760  0.6058
18688TIP3    H177555   5.013   3.159   3.838 -0.6229  0.1298  1.1755
18688TIP3    H277556   5.010   3.274   3.935 -0.0903 -0.3569  1.7797
18689TIP3   OH277557   5.351   3.597  12.152  0.1298 -0.1175  0.1903
18689TIP3    H177558   5.272   3.610  12.205  0.0864 -0.3947  0.1975
18689TIP3    H277559   5.384   3.512  12.180  1.7218  0.9676  1.8216
18690TIP3   OH277560   0.620   6.058  13.890  0.3568 -0.4249 -0.0771
18690TIP3    H177561   0.592   5.971  13.918 -0.6108  0.2204  1.0420
18690TIP3    H277562   0.562   6.118  13.935  2.2536  0.9049  0.7406
18691TIP3   OH277563   4.110   2.960   4.050  0.5186 -0.1489  0.3200
18691TIP3    H177564   4.040   2.920   3.999  1.3866 -1.8302  0.3614
18691TIP3    H277565   4.065   3.010   4.118 -0.6334  0.0023 -0.5375
18692TIP3   OH277566   0.811   6.754  11.229 -0.4215 -0.3910 -0.0285
18692TIP3    H177567   0.763   6.690  11.281  0.0280 -0.4578  0.3089
18692TIP3    H277568   0.814   6.832  11.284 -1.0183 -0.0548 -0.4620
18693TIP3   OH277569   3.767   1.857  13.881 -0.0250 -0.1536 -0.2749
18693TIP3    H177570   3.821   1.785  13.848  0.5297 -0.2876  0.8823
18693TIP3    H277571   3.797   1.870  13.971 -1.4397  0.2366  0.1643
18694TIP3   OH277572   3.203   1.780   1.437  0.6534  0.3280 -0.5958
18694TIP3    H177573   3.155   1.780   1.520  1.2804 -0.1991 -0.2272
18694TIP3    H277574   3.245   1.694   1.433  1.8773  0.9071 -0.7289
18695TIP3   OH277575   0.737   3.856  14.011 -0.0595 -0.3410 -0.4875
18695TIP3    H177576   0.671   3.813  13.957 -0.4071 -1.6183  0.8743
18695TIP3    H277577   0.820   3.825  13.977 -0.2290 -0.2194 -1.0128
18696TIP3   OH277578   0.154   2.039   0.716  0.3659 -0.0569 -0.3753
18696TIP3    H177579   0.092   1.983   0.762  1.3130 -1.0366 -0.2318
18696TIP3    H277580   0.166   1.995   0.631  1.8248 -0.6260  0.0935
18697TIP3   OH277581   0.782   3.066  13.496  0.4718  0.2777  0.1905
18697TIP3    H177582   0.715   3.006  13.465 -1.1630  1.2465  1.6126
18697TIP3    H277583   0.764   3.148  13.449  0.6268  0.5584  0.6144
18698TIP3   OH277584   3.354   5.672   0.365 -0.3155 -0.5220  0.0052
18698TIP3    H177585   3.322   5.717   0.443 -2.8293  1.0587 -1.7905
18698TIP3    H277586   3.314   5.585   0.369 -0.9717 -0.2182  0.1762
18699TIP3   OH277587   2.536   5.277   4.107  0.5497  0.0097 -0.2031
18699TIP3    H177588   2.450   5.297   4.070  0.9542  2.6577  0.1134
18699TIP3    H277589   2.598   5.298   4.037  1.0430 -0.3217  0.1216
18700TIP3   OH277590   0.956   6.611   2.151 -0.1422  0.7704  0.5329
18700TIP3    H177591   0.867   6.642   2.167 -0.0505  0.5138  1.5736
18700TIP3    H277592   1.011   6.689   2.160 -0.2944  1.0410 -0.6443
18701TIP3   OH277593   2.734   5.672  12.263 -0.2469  0.3482 -0.1660
18701TIP3    H177594   2.747   5.762  12.233  0.9105  0.7136  1.2956
18701TIP3    H277595   2.801   5.659  12.331  0.5965 -2.1015 -1.3342
18702TIP3   OH277596   3.194   6.886   4.332 -0.0125 -0.0159 -0.3722
18702TIP3    H177597   3.172   6.794   4.322 -0.4603  0.0548 -0.0892
18702TIP3    H277598   3.138   6.916   4.404 -2.0024  1.1814 -2.2872
18703TIP3   OH277599   3.872   1.347  12.375  0.1982 -0.6115  0.4685
18703TIP3    H177600   3.865   1.395  12.293 -0.7627 -2.4859 -0.6267
18703TIP3    H277601   3.810   1.389  12.434  0.6132  0.5156  0.1196
18704TIP3   OH277602   3.539   5.334   1.769 -1.0331 -0.2477  0.0335
18704TIP3    H177603   3.542   5.263   1.833 -1.1990  0.1690  0.5156
18704TIP3    H277604   3.473   5.307   1.706 -1.7583 -0.1102  0.7215
18705TIP3   OH277605   1.174   5.992  14.257 -0.0939 -0.9675  0.5197
18705TIP3    H177606   1.111   5.959  14.322 -0.8332 -1.4266 -0.4057
18705TIP3    H277607   1.161   6.086  14.257  0.7183 -0.8319  1.8461
18706TIP3   OH277608   2.278   3.813  11.760  0.6939 -0.2719 -0.1287
18706TIP3    H177609   2.190   3.807  11.797  0.5893  0.1159 -0.3164
18706TIP3    H277610   2.307   3.722  11.753 -0.3788 -0.5328 -1.7016
18707TIP3   OH277611   3.021   2.385   5.934  0.0906 -0.1205  0.4221
18707TIP3    H177612   3.072   2.304   5.937  0.8950  0.3883  1.0441
18707TIP3    H277613   2.949   2.366   5.874 -0.6235 -1.7906  1.7260
18708TIP3   OH277614   3.082   5.173   6.572 -0.3066  0.5411  0.2349
18708TIP3    H177615   3.131   5.095   6.546 -0.8935 -0.8533  2.9919
18708TIP3    H277616   2.990   5.148   6.561 -0.5386  1.9847 -1.7211
18709TIP3   OH277617   2.653   5.817  11.688 -0.3762  0.4992  0.3120
18709TIP3    H177618   2.676   5.841  11.778 -2.7777  0.3206  1.0441
18709TIP3    H277619   2.557   5.822  11.686 -0.3892  0.3405 -2.2080
18710TIP3   OH277620   1.620   6.654  16.150 -0.3756  0.2167  0.2233
18710TIP3    H177621   1.660   6.740  16.139 -0.0670 -0.0103 -0.4693
18710TIP3    H277622   1.667   6.597  16.090 -0.3610 -0.5185  0.9070
18711TIP3   OH277623   5.588   5.322   0.570 -0.0094 -0.1741  0.0907
18711TIP3    H177624   5.497   5.349   0.555 -0.4524 -2.2016 -1.3561
18711TIP3    H277625   5.631   5.400   0.605 -2.5574  0.5167  1.9983
18712TIP3   OH277626   0.020   1.143   5.922  0.1151 -0.4749 -0.2151
18712TIP3    H177627   0.028   1.178   6.011 -0.4471 -1.6008  0.2966
18712TIP3    H277628   0.108   1.154   5.884  0.7386 -1.2089  0.9477
18713TIP3   OH277629   6.278   5.785  11.441 -0.1612 -0.1261  0.0425
18713TIP3    H177630   6.238   5.700  11.461 -0.2445 -0.3452 -1.0107
18713TIP3    H277631   6.366   5.779  11.477  0.5245 -1.4199 -1.7070
18714TIP3   OH277632   4.104   2.740   3.459  0.4092 -0.0333 -0.2019
18714TIP3    H177633   4.011   2.764   3.458  0.6621  0.9907  0.0991
18714TIP3    H277634   4.146   2.809   3.511  1.5494  0.2762 -1.5039
18715TIP3   OH277635   4.990   3.413   0.568  0.0773 -0.4409  0.2249
18715TIP3    H177636   4.984   3.324   0.601 -1.6763 -1.0333 -1.5094
18715TIP3    H277637   5.083   3.435   0.576  0.3114 -1.8642  1.9940
18716TIP3   OH277638   6.774   5.644   4.542 -0.1271  0.2604  0.2123
18716TIP3    H177639   6.824   5.637   4.623  1.9759 -0.3759 -1.0524
18716TIP3    H277640   6.839   5.635   4.472 -1.7193  1.5987 -1.5866
18717TIP3   OH277641   4.786   1.849   0.375  0.1944 -0.2386 -0.0135
18717TIP3    H177642   4.811   1.927   0.425  0.0309 -0.7996  0.9720
18717TIP3    H277643   4.857   1.786   0.390 -0.9132 -1.2117  1.3702
18718TIP3   OH277644   4.862   3.069   1.523  0.1179 -0.6488 -0.5697
18718TIP3    H177645   4.818   3.033   1.600  0.2888 -1.0094 -0.6356
18718TIP3    H277646   4.911   3.144   1.557  0.2782 -0.8701 -0.3050
18719TIP3   OH277647   0.789   0.524  16.116 -0.3716  0.0094  0.3081
18719TIP3    H177648   0.835   0.458  16.168  0.7879  1.2950  0.9835
18719TIP3    H277649   0.765   0.479  16.035  0.7086 -1.1260  0.5933
18720TIP3   OH277650   2.521   6.221   3.740 -0.2526  0.2632  0.5104
18720TIP3    H177651   2.472   6.278   3.799 -1.1579  0.5979 -0.5279
18720TIP3    H277652   2.493   6.247   3.653  1.9552  0.6139 -0.1580
18721TIP3   OH277653   5.356   3.172   5.188  0.3750 -0.4414  0.0991
18721TIP3    H177654   5.283   3.174   5.126 -0.6530  1.5944  1.2580
18721TIP3    H277655   5.327   3.226   5.261  2.0216 -1.7777  1.8364
18722TIP3   OH277656   4.262   0.985  12.390  0.0192  0.5254  0.1452
18722TIP3    H177657   4.321   0.929  12.340  0.7833  1.0603  0.4307
18722TIP3    H277658   4.175   0.947  12.376  0.4497 -0.3813 -0.1308
18723TIP3   OH277659   2.804   1.899   2.473  0.1567 -0.2511  0.1737
18723TIP3    H177660   2.788   1.805   2.466 -1.5333  0.1228 -1.8891
18723TIP3    H277661   2.869   1.919   2.405  0.0277  0.1659  0.1654
18724TIP3   OH277662   5.612   4.645  10.507 -0.3156 -0.2812 -0.1981
18724TIP3    H177663   5.599   4.552  10.526 -1.3081 -0.0331  0.3935
18724TIP3    H277664   5.702   4.650  10.474 -0.5646 -1.5880 -1.1702
18725TIP3   OH277665   4.478   0.564   3.874 -0.0862  0.3548 -0.6812
18725TIP3    H177666   4.463   0.563   3.968  1.5508 -0.8625 -0.3861
18725TIP3    H277667   4.545   0.631   3.861  1.0658 -0.7462 -0.6834
18726TIP3   OH277668   2.198   6.704  13.404  0.0753  0.1263  0.6882
18726TIP3    H177669   2.207   6.619  13.447  0.0117  0.2037  0.8546
18726TIP3    H277670   2.276   6.712  13.349 -0.4329 -0.5056 -0.1425
18727TIP3   OH277671   1.835   5.886  12.503  0.2146  0.2498  0.4665
18727TIP3    H177672   1.911   5.886  12.561  0.9803 -3.7170 -0.2211
18727TIP3    H277673   1.872   5.866  12.417 -1.3523  1.4846 -0.5297
18728TIP3   OH277674   2.481   4.598   6.875 -0.4933 -0.4859  0.0120
18728TIP3    H177675   2.446   4.645   6.799  0.7807 -1.9418 -1.5384
18728TIP3    H277676   2.535   4.528   6.838  1.6263 -0.1772  2.2816
18729TIP3   OH277677   3.676   3.179   3.541 -0.0266  0.2880 -0.0560
18729TIP3    H177678   3.670   3.252   3.603 -0.3654  0.8134 -0.6973
18729TIP3    H277679   3.642   3.214   3.458 -1.0580 -0.8531 -0.1578
18730TIP3   OH277680   4.811   4.447  15.624  0.3348  0.4470 -0.3375
18730TIP3    H177681   4.805   4.531  15.579  0.6346 -0.4890 -2.2277
18730TIP3    H277682   4.727   4.405  15.608 -0.2309  0.7707  1.5248
18731TIP3   OH277683   2.310   4.251  15.012  0.2071  0.3428  0.2919
18731TIP3    H177684   2.230   4.298  14.987 -0.4247 -1.5081 -1.4258
18731TIP3    H277685   2.378   4.318  15.009 -0.8070  1.3932 -1.1032
18732TIP3   OH277686   4.301   3.791   0.229  0.3749  0.0406  0.3525
18732TIP3    H177687   4.290   3.717   0.288  0.7352  0.6525  1.2118
18732TIP3    H277688   4.242   3.858   0.264  1.2786  0.7322  0.5801
18733TIP3   OH277689   3.692   1.906  10.403  0.3868 -0.6754 -0.4643
18733TIP3    H177690   3.782   1.923  10.430 -0.0284  1.5149 -0.2207
18733TIP3    H277691   3.659   1.842  10.466  0.4675  1.8053  2.3209
18734TIP3   OH277692   3.210   1.954   4.403  0.1075 -0.4159  0.0654
18734TIP3    H177693   3.158   2.014   4.350 -0.6359 -0.5785  0.5919
18734TIP3    H277694   3.154   1.934   4.478  1.2150  0.0088  1.0385
18735TIP3   OH277695   6.375   1.535   4.737 -0.3845  0.1129  0.2699
18735TIP3    H177696   6.296   1.481   4.736 -0.6255  0.4750 -0.5663
18735TIP3    H277697   6.346   1.621   4.707  0.3248  0.2489 -0.0378
18736TIP3   OH277698   0.174   3.953  14.087 -0.1335  0.3463 -0.0066
18736TIP3    H177699   0.184   4.019  14.156 -0.7882  1.1314 -0.6436
18736TIP3    H277700   0.223   3.988  14.013 -0.0366 -0.1517 -0.1837
18737TIP3   OH277701   1.993   3.501   5.163  0.2004  0.4239 -0.5398
18737TIP3    H177702   1.936   3.512   5.239 -1.0239 -0.3757 -1.2919
18737TIP3    H277703   2.073   3.464   5.198 -0.1260  0.5994  0.4263
18738TIP3   OH277704   5.030   4.272   2.972  0.0851 -0.0902  0.2125
18738TIP3    H177705   4.965   4.330   2.931 -0.8996 -0.8706  0.6388
18738TIP3    H277706   5.060   4.320   3.050 -1.2787 -0.4336  0.9794
18739TIP3   OH277707   1.000   6.495  16.002 -0.3913  0.2388  0.6587
18739TIP3    H177708   0.977   6.427  16.065 -0.1026  1.4954  2.1737
18739TIP3    H277709   1.036   6.447  15.927 -1.0608 -1.3057  1.2891
18740TIP3   OH277710   1.814   4.204  14.610 -0.0051 -0.6702 -0.1726
18740TIP3    H177711   1.757   4.183  14.536  0.2002  0.0710 -0.5584
18740TIP3    H277712   1.816   4.300  14.611  1.2304 -0.6843 -0.1756
18741TIP3   OH277713   0.525   2.273  15.472  0.4540 -0.2751  0.2151
18741TIP3    H177714   0.616   2.244  15.463  0.8994  1.0254  0.2675
18741TIP3    H277715   0.473   2.203  15.433  1.5407 -0.5642 -0.7552
18742TIP3   OH277716   6.224   4.128  13.067 -0.1205 -0.2399 -0.0606
18742TIP3    H177717   6.308   4.096  13.035 -0.0439  1.4818 -1.8073
18742TIP3    H277718   6.243   4.217  13.098 -1.2088  0.0301 -0.1340
18743TIP3   OH277719   1.338   3.989  12.979 -0.6910  0.7067  0.5582
18743TIP3    H177720   1.335   4.009  13.073 -0.7274 -0.6238  0.8728
18743TIP3    H277721   1.427   4.011  12.952 -0.3263  0.0597  1.1840
18744TIP3   OH277722   0.796   6.469  12.040  0.0444 -0.1865 -0.0369
18744TIP3    H177723   0.817   6.412  11.966  1.5903 -0.2942  0.4384
18744TIP3    H277724   0.782   6.555  12.001 -0.2531 -0.4673 -0.5557
18745TIP3   OH277725   2.406   5.337  16.750  0.1240  0.3963 -0.0198
18745TIP3    H177726   2.393   5.247  16.721 -0.5556  0.2937  0.5797
18745TIP3    H277727   2.501   5.349  16.748  0.2043 -0.2299 -0.3971
18746TIP3   OH277728   1.377   2.170   3.083 -0.7026  0.0324  0.4467
18746TIP3    H177729   1.307   2.174   3.018 -2.6102  0.2351  2.3969
18746TIP3    H277730   1.393   2.261   3.107 -0.0456 -0.0403  0.2890
18747TIP3   OH277731   0.615   0.886   6.196  0.2002 -0.3864 -0.0672
18747TIP3    H177732   0.648   0.816   6.252 -1.0089 -1.5184 -0.7185
18747TIP3    H277733   0.537   0.918   6.240  0.4912  0.2469 -0.0026
18748TIP3   OH277734   2.263   6.197   2.783  0.1020  0.1980  0.0371
18748TIP3    H177735   2.172   6.189   2.812  0.1111 -1.5013 -0.3250
18748TIP3    H277736   2.257   6.197   2.687  0.5156 -0.5798  0.0059
18749TIP3   OH277737   1.404   5.152   5.832 -0.0098  0.4319 -0.1242
18749TIP3    H177738   1.449   5.073   5.802  0.3216  1.4004 -2.3652
18749TIP3    H277739   1.319   5.121   5.863  0.0466 -0.7814 -1.1257
18750TIP3   OH277740   3.448   3.970   5.592 -0.5631  0.1306 -0.8414
18750TIP3    H177741   3.497   3.888   5.587 -1.9963 -0.9685  1.4043
18750TIP3    H277742   3.514   4.038   5.575  1.3661 -1.3436  0.3186
18751TIP3   OH277743   4.260   1.971  13.448 -0.2106  0.1102  0.1000
18751TIP3    H177744   4.195   1.995  13.381  1.2247  0.5111 -1.2049
18751TIP3    H277745   4.208   1.936  13.520 -1.8005 -0.7212 -1.3845
18752TIP3   OH277746   0.555   4.028  11.534  0.2258  0.2080 -0.0144
18752TIP3    H177747   0.554   4.061  11.445  0.7192 -0.7428 -0.3962
18752TIP3    H277748   0.646   4.041  11.563 -0.1711  1.4392  0.7259
18753TIP3   OH277749   0.689   0.520  11.815 -0.0424 -0.6094  0.3404
18753TIP3    H177750   0.631   0.536  11.740 -0.5545 -0.4558  0.7633
18753TIP3    H277751   0.767   0.572  11.795  0.6805 -2.1632 -1.0506
18754TIP3   OH277752   3.335   4.331  11.065 -0.3002 -0.5006 -0.2154
18754TIP3    H177753   3.281   4.401  11.102  0.4457  1.1088 -2.0086
18754TIP3    H277754   3.404   4.319  11.130  0.2306  1.3025 -0.3739
18755TIP3   OH277755   3.213   0.671   2.075 -0.4290  0.2051 -0.4280
18755TIP3    H177756   3.278   0.680   2.144 -0.2288 -1.3329 -0.3956
18755TIP3    H277757   3.221   0.752   2.024  0.6102  0.5888  0.3130
18756TIP3   OH277758   2.568   2.800   4.201 -0.1296 -0.0129  0.0987
18756TIP3    H177759   2.626   2.817   4.126 -0.4431 -0.1477 -0.1775
18756TIP3    H277760   2.609   2.847   4.274  2.0325 -2.5544  0.6887
18757TIP3   OH277761   5.427   5.705   0.303  0.0546  0.4839 -0.1428
18757TIP3    H177762   5.387   5.791   0.316  0.1066  0.4949 -0.0589
18757TIP3    H277763   5.423   5.664   0.390 -0.4410  0.2036 -0.2892
18758TIP3   OH277764   0.745   2.559   4.644  0.2388 -0.2157  0.5289
18758TIP3    H177765   0.831   2.589   4.613 -1.1987  1.3708 -2.4214
18758TIP3    H277766   0.714   2.630   4.701 -0.3021  0.7583 -0.9043
18759TIP3   OH277767   0.128   4.145   0.089  0.2774  0.4356 -0.5340
18759TIP3    H177768   0.199   4.104   0.138  1.0428 -0.1708 -2.1123
18759TIP3    H277769   0.061   4.163   0.155  1.3753 -0.1137  0.7727
18760TIP3   OH277770   3.657   6.303  13.997 -0.2907  0.1165 -0.6501
18760TIP3    H177771   3.689   6.307  13.907  0.9513 -0.2892 -0.2396
18760TIP3    H277772   3.566   6.332  13.991 -0.6511 -1.2004 -2.2437
18761TIP3   OH277773   2.430   4.358   1.199  0.0269 -0.1770  0.2345
18761TIP3    H177774   2.415   4.280   1.253  0.4913  0.4174  1.2420
18761TIP3    H277775   2.357   4.357   1.137 -0.8944 -0.5358  1.2812
18762TIP3   OH277776   1.757   1.749   4.093  0.7265 -0.5058  0.2043
18762TIP3    H177777   1.710   1.829   4.069 -0.1843 -1.1059 -0.0279
18762TIP3    H277778   1.846   1.763   4.059  0.1719 -0.2331 -1.2003
18763TIP3   OH277779   1.942   3.143   2.734  0.3539  0.9808  0.4102
18763TIP3    H177780   1.899   3.159   2.650 -2.1775 -0.1606  1.3785
18763TIP3    H277781   1.960   3.049   2.734 -0.0779  0.8854  1.2832
18764TIP3   OH277782   0.944   3.225   1.316  0.0307  0.0975  0.0956
18764TIP3    H177783   0.972   3.207   1.406  0.0369  0.5642  0.1863
18764TIP3    H277784   1.018   3.270   1.275 -0.6772  1.6286  0.4365
18765TIP3   OH277785   4.230   0.946  14.147 -0.0467 -0.1801 -0.4325
18765TIP3    H177786   4.284   0.999  14.206 -1.5499  0.7627  0.1562
18765TIP3    H277787   4.180   0.888  14.205 -1.0671  0.3120 -0.7858
18766TIP3   OH277788   0.000   6.682  13.887 -0.0847 -0.1926 -0.0752
18766TIP3    H177789  -0.072   6.619  13.881  2.1985 -2.8297 -2.5095
18766TIP3    H277790   0.041   6.663  13.972 -1.2591  0.2994  0.6368
18767TIP3   OH277791   3.519   0.404  12.986 -0.4552 -0.3919 -0.3948
18767TIP3    H177792   3.487   0.430  12.900 -0.3482 -1.6293 -0.8143
18767TIP3    H277793   3.605   0.364  12.969  0.5419  1.2291  0.5165
18768TIP3   OH277794   1.150   2.483  14.906 -0.5701  0.0741 -0.1254
18768TIP3    H177795   1.093   2.420  14.860 -0.6683 -0.5216  0.7862
18768TIP3    H277796   1.167   2.551  14.841 -0.4787 -0.8813 -1.1435
18769TIP3   OH277797   3.058   3.984   0.503  0.2197 -0.0239 -0.0198
18769TIP3    H177798   3.036   3.912   0.444  0.4711 -1.1421  1.2002
18769TIP3    H277799   3.145   4.012   0.476 -0.3337  0.5812 -1.2158
18770TIP3   OH277800   6.634   4.433  14.390 -0.0242 -0.3073 -0.2609
18770TIP3    H177801   6.708   4.494  14.392 -2.2426  2.5719  0.5101
18770TIP3    H277802   6.644   4.381  14.470 -0.2539  1.9804  1.3596
18771TIP3   OH277803   5.707   0.582   6.080 -0.5325 -0.3743 -0.6003
18771TIP3    H177804   5.637   0.645   6.098 -0.7122 -0.6899 -0.1665
18771TIP3    H277805   5.720   0.536   6.163  0.1638 -0.3499 -0.6852
18772TIP3   OH277806   0.148   2.450  15.769  0.4205 -0.1117 -0.4318
18772TIP3    H177807   0.090   2.412  15.835  1.2263  0.2709  0.5180
18772TIP3    H277808   0.102   2.436  15.686 -0.8025 -0.2355  0.2437
18773TIP3   OH277809   5.688   4.131   3.057  0.4614  0.0478 -0.7597
18773TIP3    H177810   5.737   4.140   3.139 -3.2845  0.2788  1.7046
18773TIP3    H277811   5.651   4.219   3.042  0.2034 -0.2726 -2.0851
18774TIP3   OH277812   0.834   4.084  15.394 -0.6597 -0.0554  0.2541
18774TIP3    H177813   0.856   4.171  15.361 -0.9988 -0.8818 -2.4288
18774TIP3    H277814   0.875   4.024  15.331 -3.5345 -1.7671 -0.1633
18775TIP3   OH277815   6.342   4.060  11.210 -0.4777  0.2746  0.1185
18775TIP3    H177816   6.319   4.077  11.301  0.9792 -1.2921  0.8534
18775TIP3    H277817   6.277   3.996  11.181 -0.3390 -0.0118  0.4194
18776TIP3   OH277818   4.561   3.233   2.734 -0.8344  1.0432  0.0712
18776TIP3    H177819   4.587   3.267   2.648  1.1500 -0.0546  0.1687
18776TIP3    H277820   4.472   3.266   2.747 -0.8886  1.9107 -2.0378
18777TIP3   OH277821   2.719   0.381   0.990 -0.7348  0.1669 -0.1292
18777TIP3    H177822   2.814   0.375   1.000 -0.6565  2.1196  0.8220
18777TIP3    H277823   2.685   0.306   1.038  0.2530  1.3746  2.6738
18778TIP3   OH277824   2.018   0.503   4.678 -0.0689  0.5406 -0.2049
18778TIP3    H177825   2.111   0.479   4.677 -0.3773 -0.7556 -1.6479
18778TIP3    H277826   1.973   0.422   4.657 -1.5551  1.1539  0.4866
18779TIP3   OH277827   1.387   3.216  14.965 -0.1608  0.3393 -0.1252
18779TIP3    H177828   1.412   3.259  14.883 -1.5800 -1.4236 -1.5826
18779TIP3    H277829   1.466   3.169  14.992  0.0235  0.0377 -1.1311
18780TIP3   OH277830   4.004   1.126   4.647  0.1018  0.5068 -0.5189
18780TIP3    H177831   3.998   1.170   4.731  0.0024  0.3043 -0.4187
18780TIP3    H277832   4.020   1.034   4.670 -2.0246  0.0522 -0.6598
18781TIP3   OH277833   4.864   3.570  14.402  0.5652 -0.9471  0.5447
18781TIP3    H177834   4.907   3.646  14.443 -1.0695  1.0630 -1.2383
18781TIP3    H277835   4.782   3.560  14.452 -0.4273  0.1595 -0.7930
18782TIP3   OH277836   1.335   0.134  11.758  0.0599  0.6212  0.1132
18782TIP3    H177837   1.316   0.100  11.670  1.1489  1.1598 -0.3588
18782TIP3    H277838   1.385   0.064  11.800 -0.6209  0.2890  0.3731
18783TIP3   OH277839   1.085   3.858  15.688  0.0508  0.2012  0.4916
18783TIP3    H177840   1.131   3.847  15.605 -0.7033 -0.9451  0.2069
18783TIP3    H277841   1.013   3.796  15.684 -0.1482  0.3104  1.9083
18784TIP3   OH277842   6.396   4.379  15.268 -0.1614  0.1583  0.3263
18784TIP3    H177843   6.330   4.314  15.247  0.3718 -0.0185 -0.8940
18784TIP3    H277844   6.414   4.422  15.185  0.0826  1.3144  0.9635
18785TIP3   OH277845   0.955   3.943  13.081 -0.4648 -0.2668 -0.1297
18785TIP3    H177846   1.014   3.942  13.006  1.7142  2.2934  1.3971
18785TIP3    H277847   0.970   3.859  13.125  1.1670 -0.1692 -0.4512
18786TIP3   OH277848   5.741   0.859   2.000  0.4116 -0.0972 -0.4787
18786TIP3    H177849   5.748   0.764   2.005  1.0757 -0.0252  0.1091
18786TIP3    H277850   5.702   0.876   1.914 -2.6454 -1.0212  0.5917
18787TIP3   OH277851   5.722   0.770  14.744 -0.2027  0.4416 -0.4187
18787TIP3    H177852   5.714   0.863  14.723 -1.2097  0.4760  0.0878
18787TIP3    H277853   5.652   0.753  14.807  1.6822 -0.0347  1.6869
18788TIP3   OH277854   1.824   6.887   1.575 -0.4046  0.0229 -0.2003
18788TIP3    H177855   1.786   6.929   1.652  1.1230  1.5427 -0.2306
18788TIP3    H277856   1.861   6.959   1.524  2.6696 -1.3283 -0.0714
18789TIP3   OH277857   1.624   5.364   0.864 -0.1661  0.3736  0.4998
18789TIP3    H177858   1.564   5.397   0.796  0.5807  1.4154  0.3173
18789TIP3    H277859   1.616   5.269   0.859  1.4185  0.2687 -2.5522
18790TIP3   OH277860   0.177   3.493  13.789  0.2688 -0.2478 -0.8361
18790TIP3    H177861   0.236   3.470  13.861  0.0777  0.5898 -0.4008
18790TIP3    H277862   0.222   3.564  13.743 -0.4051  0.4226 -0.4803
18791TIP3   OH277863   3.877   5.782   9.913 -0.3166 -0.0943 -0.0865
18791TIP3    H177864   3.817   5.812   9.845 -0.0531 -2.1735 -1.3251
18791TIP3    H277865   3.820   5.762   9.988 -0.5471  2.7413  0.6119
18792TIP3   OH277866   0.159   2.801   4.964  0.3287  0.5819  0.0309
18792TIP3    H177867   0.238   2.766   4.924  0.1283  0.3545 -0.1705
18792TIP3    H277868   0.128   2.731   5.021 -1.2376 -0.4538 -1.9491
18793TIP3   OH277869   0.864   5.774   2.308  0.3265  0.2414 -0.0529
18793TIP3    H177870   0.930   5.814   2.252 -1.0268 -0.0958 -1.9704
18793TIP3    H277871   0.825   5.705   2.255 -0.0995 -1.0213  1.8045
18794TIP3   OH277872   3.029   4.917  12.748  0.3832 -0.5205 -0.6189
18794TIP3    H177873   3.026   4.993  12.689  1.8365 -1.0492 -1.4305
18794TIP3    H277874   2.978   4.850  12.702 -1.9283  0.2615  0.6498
18795TIP3   OH277875   0.497   5.816  14.182  0.1828  0.2091  0.0573
18795TIP3    H177876   0.574   5.798  14.128  0.3449  1.8178 -0.2997
18795TIP3    H277877   0.443   5.874  14.129 -1.2900 -0.8712  0.3144
18796TIP3   OH277878   4.340   6.009  15.771 -0.1857 -0.1470  0.0253
18796TIP3    H177879   4.343   5.913  15.775 -2.6565 -0.2978  0.1695
18796TIP3    H277880   4.431   6.037  15.778  0.4074 -2.3816  2.6637
18797TIP3   OH277881   2.040   4.199  11.072  0.3629  0.7548  0.7090
18797TIP3    H177882   2.109   4.195  11.006 -0.3742  0.3664 -0.0678
18797TIP3    H277883   2.067   4.136  11.139  1.3174  1.4493  0.9789
18798TIP3   OH277884   0.933   5.290   3.815 -0.1232 -0.0404 -0.0018
18798TIP3    H177885   0.945   5.233   3.739  0.7689  0.1410 -0.0067
18798TIP3    H277886   0.946   5.232   3.890 -2.4080 -0.5524  0.0913
18799TIP3   OH277887   3.598   1.134  16.603 -0.0556 -0.3186 -0.2438
18799TIP3    H177888   3.620   1.193  16.676  0.5524 -2.7358  1.6656
18799TIP3    H277889   3.510   1.160  16.577 -0.5143  0.3084  1.7459
18800TIP3   OH277890   1.163   1.006  16.510  0.5329  0.1715  0.7804
18800TIP3    H177891   1.117   0.954  16.576 -2.7293  0.9869 -0.6751
18800TIP3    H277892   1.174   1.092  16.551  1.0437 -0.0992  1.2281
18801TIP3   OH277893   3.606   1.464  10.410 -0.1135 -0.3248 -0.2734
18801TIP3    H177894   3.567   1.552  10.412  0.9785  0.2542 -1.9123
18801TIP3    H277895   3.588   1.428  10.496 -2.0326  0.8654 -0.1080
18802TIP3   OH277896   1.564   4.014  12.822 -1.0967  0.0698 -0.1392
18802TIP3    H177897   1.654   3.987  12.842 -1.4159 -1.9024 -1.1325
18802TIP3    H277898   1.568   4.044  12.731 -1.6060 -1.0140 -0.5363
18803TIP3   OH277899   0.315   4.626  15.520 -0.4320  0.0484 -0.1699
18803TIP3    H177900   0.317   4.539  15.560 -0.5255  0.7347  1.4022
18803TIP3    H277901   0.332   4.686  15.593 -3.3746  1.5332 -0.5603
18804TIP3   OH277902   1.350   6.842   3.711 -0.5367 -0.1510 -0.3513
18804TIP3    H177903   1.295   6.915   3.682 -1.3786 -0.6265  0.0249
18804TIP3    H277904   1.306   6.808   3.789 -0.5613 -1.5186 -0.9301
18805TIP3   OH277905   1.661   3.172   1.753 -0.4991 -0.4172 -0.8280
18805TIP3    H177906   1.619   3.258   1.751 -0.9822 -0.6210  0.0809
18805TIP3    H277907   1.636   3.131   1.670  0.0990  0.4657 -1.4755
18806TIP3   OH277908   0.490   5.818  11.531 -0.5991  0.4343  0.4472
18806TIP3    H177909   0.499   5.741  11.475  0.3868  0.7686  0.1418
18806TIP3    H277910   0.418   5.868  11.492 -0.2755  0.3968 -0.1979
18807TIP3   OH277911   0.542   4.277   2.937 -0.2262  0.2269 -0.5631
18807TIP3    H177912   0.495   4.294   3.019  1.9500 -0.6048  0.9503
18807TIP3    H277913   0.555   4.363   2.898 -0.5446  0.7307  0.4209
18808TIP3   OH277914   5.799   5.625  15.782  0.2798  0.2883  0.1059
18808TIP3    H177915   5.804   5.562  15.709 -0.7027 -2.3376  2.1510
18808TIP3    H277916   5.890   5.636  15.810  0.5333  0.2922 -0.6829
18809TIP3   OH277917   3.891   1.543  16.599 -0.7839 -0.6570 -0.3449
18809TIP3    H177918   3.885   1.613  16.534 -0.3950  1.1360  1.4541
18809TIP3    H277919   3.801   1.532  16.629 -0.3995  2.0763  2.2670
18810TIP3   OH277920   3.117   4.361   1.333  0.6868  0.3302 -0.4898
18810TIP3    H177921   3.110   4.270   1.305 -0.2708 -0.2007  1.3371
18810TIP3    H277922   3.071   4.411   1.264 -0.6453 -0.7954 -0.4653
18811TIP3   OH277923   0.844   4.952   0.663 -0.9844  0.5743 -0.3952
18811TIP3    H177924   0.912   4.965   0.729  0.5849  0.5100 -1.9387
18811TIP3    H277925   0.850   5.029   0.607 -1.6979  0.2031 -0.9946
18812TIP3   OH277926   4.999   2.529  11.142 -0.3613  0.0382 -0.7382
18812TIP3    H177927   5.026   2.442  11.113  0.1477 -0.9288  2.2364
18812TIP3    H277928   4.905   2.533  11.125 -0.2142 -0.6565 -1.8159
18813TIP3   OH277929   6.007   0.070   0.719  0.2716 -0.4822  0.3204
18813TIP3    H177930   5.988   0.015   0.796  2.0344 -1.5144  0.0863
18813TIP3    H277931   6.098   0.049   0.698  0.1179  0.5143 -1.4724
18814TIP3   OH277932   6.337   3.013   3.141 -0.1073 -0.3150 -0.3648
18814TIP3    H177933   6.372   2.940   3.090 -0.0968 -0.2823 -0.4046
18814TIP3    H277934   6.391   3.088   3.115  2.4970 -0.9909  2.4568
18815TIP3   OH277935   5.703   3.225   1.675  0.0466  0.0479  0.5086
18815TIP3    H177936   5.640   3.157   1.653  0.3172 -0.5643  1.5400
18815TIP3    H277937   5.754   3.188   1.747 -0.0555  1.4962  1.3748
18816TIP3   OH277938   6.208   0.679   4.445  0.4462  0.0207  0.2817
18816TIP3    H177939   6.159   0.761   4.455  0.9063  0.1050  2.2497
18816TIP3    H277940   6.143   0.615   4.417 -0.3177  0.6322  0.6346
18817TIP3   OH277941   4.341   2.376  14.498 -0.5024 -0.3346 -0.2626
18817TIP3    H177942   4.368   2.386  14.589 -1.2453 -0.3433 -0.0342
18817TIP3    H277943   4.273   2.443  14.486  0.8306  0.9052 -1.3277
18818TIP3   OH277944   1.907   1.521  15.526  0.1252 -0.1940  0.4054
18818TIP3    H177945   1.918   1.477  15.442 -0.3637 -1.2525  0.8749
18818TIP3    H277946   1.914   1.614  15.505  1.0747 -0.4688 -0.6366
18819TIP3   OH277947   4.391   5.829  12.775 -0.4826  0.4408 -0.1927
18819TIP3    H177948   4.469   5.855  12.825 -1.7789  1.7894  1.2305
18819TIP3    H277949   4.393   5.733  12.777  1.8935  0.3892 -1.4977
18820TIP3   OH277950   5.078   6.825   5.899 -0.0053 -0.3680  0.2141
18820TIP3    H177951   5.009   6.806   5.963  0.4919  1.2156  1.2811
18820TIP3    H277952   5.153   6.774   5.929 -0.0144 -0.2505  0.4397
18821TIP3   OH277953   0.152   5.241   3.528  0.4537  0.2681  0.2937
18821TIP3    H177954   0.223   5.205   3.474 -0.7856 -2.7612  0.5253
18821TIP3    H277955   0.072   5.203   3.492 -0.8069  1.3248  1.8307
18822TIP3   OH277956   4.560   0.367   0.765 -0.2278  0.4050 -0.1498
18822TIP3    H177957   4.486   0.427   0.763 -0.3627  0.2366 -0.1599
18822TIP3    H277958   4.629   0.416   0.811  0.1169  1.0923 -1.3746
18823TIP3   OH277959   3.688   1.115  11.650 -0.3181  0.0590 -0.1376
18823TIP3    H177960   3.621   1.066  11.602  0.4984 -1.2668  0.0193
18823TIP3    H277961   3.769   1.098  11.602  0.3575 -0.5219  1.1527
18824TIP3   OH277962   1.203   1.545  15.780 -0.0796 -0.2039 -0.6466
18824TIP3    H177963   1.212   1.525  15.687  0.3149  0.2146 -0.6996
18824TIP3    H277964   1.118   1.588  15.787 -0.5784 -1.1669 -0.6543
18825TIP3   OH277965   5.100   1.107  11.115 -0.1208 -0.8675  0.5834
18825TIP3    H177966   5.070   1.186  11.160  0.9559 -0.3662  0.4408
18825TIP3    H277967   5.183   1.132  11.075 -0.8955 -1.3644 -1.4786
18826TIP3   OH277968   3.232   3.096   2.117 -0.1498 -0.6817  0.7479
18826TIP3    H177969   3.236   3.064   2.027 -0.3320 -0.2315  0.5751
18826TIP3    H277970   3.276   3.181   2.114 -0.4963 -0.4895  0.9993
18827TIP3   OH277971   3.999   2.695   4.497  0.4790  0.4602  0.1183
18827TIP3    H177972   3.981   2.757   4.427  4.3118 -1.2085 -2.7502
18827TIP3    H277973   4.024   2.750   4.571 -0.7334  2.3066 -0.7631
18828TIP3   OH277974   3.608   2.905   5.749 -0.1688  0.3252 -0.0093
18828TIP3    H177975   3.577   2.943   5.666  0.1190  3.0520  1.0385
18828TIP3    H277976   3.672   2.839   5.722 -1.5577 -0.3102 -1.9968
18829TIP3   OH277977   4.690   2.007   0.852  0.3114  0.5226 -0.0861
18829TIP3    H177978   4.605   1.966   0.870 -0.7622  2.6943  0.1457
18829TIP3    H277979   4.676   2.055   0.770  0.8142  2.0998  0.7103
18830TIP3   OH277980   2.148   0.285   3.640 -0.6527  0.2903  0.3190
18830TIP3    H177981   2.077   0.235   3.678 -0.5955  0.9837  1.3856
18830TIP3    H277982   2.178   0.342   3.711  1.2792 -0.3139  0.0418
18831TIP3   OH277983   6.782   0.895   2.150 -0.0614 -0.8423  0.1095
18831TIP3    H177984   6.717   0.924   2.214 -2.4681 -0.8028 -2.2327
18831TIP3    H277985   6.797   0.803   2.171 -1.5918 -1.1063  0.1146
18832TIP3   OH277986   5.932   6.145  12.894 -0.2522  0.2624  0.2559
18832TIP3    H177987   5.920   6.226  12.844  1.5242  0.5471  0.2240
18832TIP3    H277988   5.988   6.171  12.967  1.5880 -1.1948 -0.5624
18833TIP3   OH277989   6.330   0.684  16.022  0.2023 -0.2726 -0.3991
18833TIP3    H177990   6.269   0.754  16.045  1.2221  0.5887 -0.2473
18833TIP3    H277991   6.309   0.612  16.082 -1.5860 -0.5494 -1.2654
18834TIP3   OH277992   6.023   2.842  13.683 -0.3345 -0.2076 -0.4253
18834TIP3    H177993   6.000   2.928  13.717  1.3024 -0.6130  2.0548
18834TIP3    H277994   5.993   2.781  13.751  0.8105 -1.3348 -0.8710
18835TIP3   OH277995   4.411   4.911  16.617  0.0798 -0.6648  0.0605
18835TIP3    H177996   4.335   4.969  16.609 -0.9954 -1.7588  1.5948
18835TIP3    H277997   4.485   4.970  16.629 -0.8112  0.4246  0.4305
18836TIP3   OH277998   4.158   6.540  11.772 -0.1968  0.4303 -0.1888
18836TIP3    H177999   4.092   6.563  11.707 -0.6842 -0.2635  0.0428
18836TIP3    H278000   4.142   6.447  11.790  1.9023 -0.2258 -1.3653
18837TIP3   OH278001   0.012   4.584  12.430  0.1476  0.2750 -0.2637
18837TIP3    H178002   0.012   4.562  12.336  1.0187 -0.9032 -0.0062
18837TIP3    H278003   0.088   4.643  12.440  0.5765 -0.2933 -0.1516
18838TIP3   OH278004   4.719   6.416   1.310 -0.0382 -0.1679 -0.3420
18838TIP3    H178005   4.661   6.398   1.384 -0.0880 -2.1112 -0.7973
18838TIP3    H278006   4.778   6.341   1.306  2.4958  1.6845  0.0222
18839TIP3   OH278007   0.831   5.163   2.153  0.2882 -0.6885 -0.1565
18839TIP3    H178008   0.834   5.087   2.211 -2.7266  0.1917  1.3955
18839TIP3    H278009   0.902   5.219   2.183  1.4152 -2.0491 -0.1394
18840TIP3   OH278010   6.826   0.021   0.692  0.1215 -0.0118 -0.6137
18840TIP3    H178011   6.749  -0.031   0.715 -0.8381  1.4571 -0.3661
18840TIP3    H278012   6.869  -0.028   0.623 -0.2156 -1.5855  0.2544
18841TIP3   OH278013   0.116   2.151   1.929 -0.3540  0.3074 -0.0472
18841TIP3    H178014   0.124   2.065   1.888 -0.2691  0.4853 -0.4015
18841TIP3    H278015   0.206   2.176   1.949 -0.3987  0.1885  0.3239
18842TIP3   OH278016   0.452   3.092   2.402 -0.3504 -0.1508 -0.4275
18842TIP3    H178017   0.525   3.078   2.343  0.4094  0.1290  0.4275
18842TIP3    H278018   0.382   3.126   2.347  0.6469  0.9998 -1.0116
18843TIP3   OH278019   2.240   1.675   5.305 -0.1301 -0.0298  0.3853
18843TIP3    H178020   2.283   1.664   5.390  0.5149 -0.0152  0.0658
18843TIP3    H278021   2.196   1.592   5.290 -0.4349  0.0444  0.8365
18844TIP3   OH278022   4.521   2.064   4.944 -0.3136 -0.1291 -0.0605
18844TIP3    H178023   4.464   2.033   4.874 -1.5189 -0.6347  1.1039
18844TIP3    H278024   4.501   2.157   4.952 -1.0553 -0.3237  0.4039
18845TIP3   OH278025   1.365   0.238  10.996  0.1996 -0.7570  0.2448
18845TIP3    H178026   1.450   0.274  11.020 -0.3291  0.2408  0.6550
18845TIP3    H278027   1.330   0.299  10.932 -0.3261 -1.0129  0.2809
18846TIP3   OH278028   0.712   1.904   3.660 -0.5949  0.0982  0.0056
18846TIP3    H178029   0.690   1.818   3.625 -0.4883 -0.1929  0.6389
18846TIP3    H278030   0.729   1.958   3.583  0.2965 -0.6994 -0.3718
18847TIP3   OH278031   3.144   1.598  13.199 -0.0872 -0.1295  0.0765
18847TIP3    H178032   3.227   1.642  13.180 -0.0125  0.1646  1.0327
18847TIP3    H278033   3.129   1.613  13.293 -0.9706 -0.6046  0.0284
18848TIP3   OH278034   2.805   0.602  12.110 -0.0785 -0.3057 -0.4119
18848TIP3    H178035   2.798   0.677  12.170 -0.6206  0.1872 -1.0843
18848TIP3    H278036   2.797   0.526  12.167 -1.9076  0.1553  0.0033
18849TIP3   OH278037   2.832   3.068   2.881 -0.6242 -0.1349 -0.1647
18849TIP3    H178038   2.868   3.147   2.922 -1.2039  0.4530 -0.7786
18849TIP3    H278039   2.742   3.090   2.860 -0.5378 -0.6470 -1.1527
18850TIP3   OH278040   0.971   6.482   5.445 -0.1170  0.5260  0.0941
18850TIP3    H178041   0.995   6.503   5.355  0.0793  1.0340  0.2568
18850TIP3    H278042   0.965   6.387   5.447 -0.1144  0.5107 -0.4521
18851TIP3   OH278043   6.227   6.265   5.667 -0.9945 -0.4471  0.0428
18851TIP3    H178044   6.254   6.351   5.635  0.2946 -0.8530 -0.0311
18851TIP3    H278045   6.189   6.281   5.753  0.8133  0.0447  0.8040
18852TIP3   OH278046   2.232   1.231  14.182  0.3769 -0.0277  0.2836
18852TIP3    H178047   2.168   1.175  14.226 -2.2314  0.6723 -2.2930
18852TIP3    H278048   2.282   1.171  14.127 -0.8780 -0.2005 -0.7386
18853TIP3   OH278049   1.763   6.595   3.806  0.1169 -0.3734 -0.6791
18853TIP3    H178050   1.756   6.667   3.869 -1.8883  0.1153 -1.3785
18853TIP3    H278051   1.733   6.518   3.854 -0.0278 -0.2722 -0.6037
18854TIP3   OH278052   4.626   6.369  14.976 -0.3894  0.7801 -0.5958
18854TIP3    H178053   4.541   6.347  14.938 -0.7334  1.8508 -0.4892
18854TIP3    H278054   4.664   6.430  14.914 -0.7755  2.2245  0.5332
18855TIP3   OH278055   3.706   1.050  10.899 -0.3499  0.2439 -0.3253
18855TIP3    H178056   3.781   1.101  10.868 -0.5543  0.0579 -1.1727
18855TIP3    H278057   3.710   0.969  10.848 -0.4854 -0.2430  0.4337
18856TIP3   OH278058   3.944   5.684  13.423  0.3433 -0.2709  0.3644
18856TIP3    H178059   3.897   5.752  13.375  3.3754  1.0293 -0.9888
18856TIP3    H278060   3.969   5.621  13.356  2.5462  0.3209  0.5758
18857TIP3   OH278061   3.259   2.890   2.280  0.1828 -0.6043  0.1188
18857TIP3    H178062   3.244   2.976   2.240  0.0972 -1.2582 -1.3043
18857TIP3    H278063   3.292   2.911   2.368  1.0756  0.8955 -0.5254
18858TIP3   OH278064   3.429   2.188   3.395 -0.2567 -0.3703  0.4492
18858TIP3    H178065   3.453   2.258   3.335  1.7646 -1.7911 -0.5195
18858TIP3    H278066   3.428   2.229   3.481  0.9886  0.8195 -0.0756
18859TIP3   OH278067   3.102   1.060   2.484 -0.2428 -0.0168  0.0099
18859TIP3    H178068   3.057   1.011   2.416 -0.6496 -0.7763  0.8044
18859TIP3    H278069   3.172   1.001   2.513 -0.7212 -0.1384  0.9583
18860TIP3   OH278070   3.414   2.489   2.572  0.3398  0.0686  0.0996
18860TIP3    H178071   3.398   2.408   2.525 -0.0052  0.9817 -1.4166
18860TIP3    H278072   3.350   2.489   2.643  0.2610 -0.9149  0.0363
18861TIP3   OH278073   5.304   2.966  15.027 -0.9403  0.0711  0.2018
18861TIP3    H178074   5.282   3.045  14.978 -0.1758 -0.3730 -0.9060
18861TIP3    H278075   5.274   2.894  14.972  0.7801 -0.4685 -0.1079
18862TIP3   OH278076   5.528   0.400   1.197  0.0604 -0.0420 -0.0511
18862TIP3    H178077   5.445   0.398   1.150  0.7927 -0.4419 -1.3526
18862TIP3    H278078   5.561   0.310   1.192  0.0155 -0.1808  1.5179
18863TIP3   OH278079   2.438   0.138   1.524 -0.3613  0.1534  0.1801
18863TIP3    H178080   2.432   0.059   1.577  1.5800  0.5811  1.1249
18863TIP3    H278081   2.415   0.209   1.584  1.8642  0.6419  0.5367
18864TIP3   OH278082   5.254   3.741   1.841 -0.2903  0.0925 -0.1332
18864TIP3    H178083   5.269   3.672   1.906  2.4145 -0.9911 -1.7228
18864TIP3    H278084   5.336   3.790   1.840 -0.2849  0.1331 -2.6269
18865TIP3   OH278085   3.278   2.979   3.258  0.4078  0.3718 -0.2047
18865TIP3    H178086   3.185   2.999   3.247  0.1650 -0.9498 -0.7495
18865TIP3    H278087   3.311   3.048   3.316 -1.3481 -0.2155  1.6150
18866TIP3   OH278088   0.260   3.066  12.705 -0.4217  0.3565  0.0663
18866TIP3    H178089   0.259   3.161  12.691  1.7273  0.3674 -0.3248
18866TIP3    H278090   0.318   3.053  12.779 -0.2641 -0.6876 -0.2239
18867TIP3   OH278091   1.015   2.294  12.540  0.1407 -0.0009 -0.0802
18867TIP3    H178092   0.967   2.214  12.521 -0.8372  0.8076 -1.1040
18867TIP3    H278093   1.048   2.324  12.455 -1.3100  1.7980 -0.0739
18868TIP3   OH278094   6.073   6.316   5.889 -0.1777  0.1569 -0.8276
18868TIP3    H178095   6.093   6.410   5.880  0.7387  0.0724  0.1295
18868TIP3    H278096   5.980   6.314   5.907  0.0528  1.0049  0.6028
18869TIP3   OH278097   6.219   3.634   1.126  0.3983  0.1023  0.3646
18869TIP3    H178098   6.172   3.627   1.043  0.4463  2.4369  0.0553
18869TIP3    H278099   6.256   3.547   1.141  0.1131 -0.4647 -1.8805
18870TIP3   OH278100   5.725   3.058  16.731  1.0619 -0.0054  0.4319
18870TIP3    H178101   5.672   2.981  16.747  1.5196 -0.2491  0.8015
18870TIP3    H278102   5.744   3.093  16.818 -0.2291  1.2874  0.2307
18871TIP3   OH278103   4.316   2.572   2.770  0.5943 -0.1037 -0.2948
18871TIP3    H178104   4.388   2.563   2.832  0.7478  0.8879 -0.3102
18871TIP3    H278105   4.240   2.535   2.815  1.2386 -1.8470 -0.5617
18872TIP3   OH278106   0.844   0.842  15.151 -0.2670  0.5202 -0.1060
18872TIP3    H178107   0.797   0.837  15.235  0.5677 -0.1853  0.3319
18872TIP3    H278108   0.814   0.925  15.113 -1.6348  0.2421  0.2824
18873TIP3   OH278109   2.727   5.776   5.602  0.7287 -0.3050  0.3442
18873TIP3    H178110   2.721   5.790   5.507 -0.1076 -1.5941  0.1737
18873TIP3    H278111   2.742   5.863   5.638  1.2213  0.1891 -0.9836
18874TIP3   OH278112   3.444   0.993   3.153  0.2007  0.6140  0.8018
18874TIP3    H178113   3.454   1.086   3.173  0.4440  0.7989 -0.1397
18874TIP3    H278114   3.350   0.977   3.160 -0.1475  1.4860 -1.2554
18875TIP3   OH278115   4.021   5.450   1.375 -0.1930 -0.5510  0.4232
18875TIP3    H178116   3.996   5.538   1.349  1.4351 -0.6087 -1.6238
18875TIP3    H278117   4.092   5.462   1.437  0.8587 -0.3629 -0.7689
18876TIP3   OH278118   1.477   0.091   2.739 -0.0314  0.5626 -0.6165
18876TIP3    H178119   1.546   0.025   2.738  0.6608  1.1566  1.2920
18876TIP3    H278120   1.490   0.141   2.658 -0.2310 -1.2481 -1.8123
18877TIP3   OH278121   5.293   0.843  15.190 -0.4459 -0.2000  0.1618
18877TIP3    H178122   5.366   0.869  15.134  1.0547 -1.6953  1.3286
18877TIP3    H278123   5.251   0.926  15.215  1.7046  0.8458  0.5602
18878TIP3   OH278124   4.913   6.113  15.287  0.3559 -0.3381 -0.0779
18878TIP3    H178125   4.917   6.178  15.217 -1.6518 -2.2250 -2.1171
18878TIP3    H278126   4.888   6.162  15.365  2.6287  1.8299 -0.6063
18879TIP3   OH278127   5.058   5.619  14.762  0.4545 -0.4617  0.4485
18879TIP3    H178128   5.127   5.677  14.794  0.4307 -0.5014  0.5714
18879TIP3    H278129   5.088   5.590  14.675  0.2604  0.0807  0.1976
18880TIP3   OH278130   5.826   0.386  13.439 -0.8602  0.4234 -0.1494
18880TIP3    H178131   5.882   0.321  13.482 -0.7802  0.1224 -0.6960
18880TIP3    H278132   5.738   0.366  13.470 -0.5352  1.7784  1.8219
18881TIP3   OH278133   6.770   2.008   4.352 -0.1238  0.5519  0.9102
18881TIP3    H178134   6.689   2.057   4.361 -1.2880 -0.8483 -0.9611
18881TIP3    H278135   6.742   1.916   4.352  1.0798  0.0534 -1.9484
18882TIP3   OH278136   3.499   4.873   2.381 -0.9747 -0.8590 -0.0734
18882TIP3    H178137   3.558   4.933   2.335 -2.1619 -0.4721 -1.1582
18882TIP3    H278138   3.557   4.814   2.430  0.2634  0.0276 -0.4396
18883TIP3   OH278139   6.436   2.434  16.566 -0.5616  0.0316  0.3201
18883TIP3    H178140   6.515   2.487  16.554 -0.7714  0.3066  0.1295
18883TIP3    H278141   6.457   2.349  16.528 -0.6034  0.3323 -0.3933
18884TIP3   OH278142   4.126   6.776   2.031 -0.0610 -0.3259  0.3956
18884TIP3    H178143   4.131   6.686   2.064  0.0740 -0.0814  1.0561
18884TIP3    H278144   4.034   6.800   2.041 -0.1911 -0.5500 -0.2236
18885TIP3   OH278145   2.116   6.185  13.743  0.0475  1.2734 -0.5650
18885TIP3    H178146   2.030   6.222  13.764 -0.3334  0.4679 -0.6904
18885TIP3    H278147   2.170   6.262  13.724 -0.0444  1.9423  1.6072
18886TIP3   OH278148   2.043   0.886   2.766  0.5609 -0.1462  0.0263
18886TIP3    H178149   2.121   0.867   2.818  1.3682 -0.8931 -1.3760
18886TIP3    H278150   2.050   0.827   2.691 -1.1254  0.1083 -0.3617
18887TIP3   OH278151   4.891   2.051   1.043 -0.1523 -0.2186 -0.8065
18887TIP3    H178152   4.832   2.035   0.969 -1.3243  0.9828 -0.1632
18887TIP3    H278153   4.977   2.029   1.009 -0.7854 -0.7071 -2.2043
18888TIP3   OH278154   0.319   4.235   3.729  0.2153  0.1615  0.0154
18888TIP3    H178155   0.249   4.234   3.664  1.7448  1.5593 -1.7740
18888TIP3    H278156   0.378   4.165   3.702 -0.1445 -0.5743  1.1149
18889TIP3   OH278157   1.553   5.144  10.563 -0.1193  0.0155  0.0059
18889TIP3    H178158   1.540   5.192  10.481 -0.7869  0.7677  0.5429
18889TIP3    H278159   1.465   5.131  10.598  0.2347  0.8900  1.2717
18890TIP3   OH278160   3.040   6.068  11.986 -0.0217  0.9258  0.1947
18890TIP3    H178161   3.006   6.151  12.020  1.7890  2.2338 -0.9735
18890TIP3    H278162   3.082   6.026  12.062 -1.0261  1.0223  0.8163
18891TIP3   OH278163   6.055   0.403  11.444 -0.6191 -0.0477 -0.1653
18891TIP3    H178164   6.051   0.376  11.352 -0.7755  0.0731 -0.1934
18891TIP3    H278165   6.130   0.355  11.480 -0.2246  0.3141 -0.4927
18892TIP3   OH278166   2.997   6.192   0.363 -0.6565 -0.2715  0.3947
18892TIP3    H178167   3.059   6.210   0.434 -1.6112  0.9839  0.9379
18892TIP3    H278168   2.912   6.220   0.397 -1.1434  0.2981 -1.2177
18893TIP3   OH278169   5.874   6.379   3.514  0.6517  0.1780 -0.0777
18893TIP3    H178170   5.970   6.370   3.511  0.6928  0.6842 -0.4876
18893TIP3    H278171   5.842   6.292   3.536  1.2585  0.2287  1.0518
18894TIP3   OH278172   4.872   2.351  16.378  0.0554  0.3714  0.0279
18894TIP3    H178173   4.787   2.314  16.353  0.1101  0.9238 -1.0570
18894TIP3    H278174   4.850   2.431  16.426 -0.0543 -0.7578  1.9492
18895TIP3   OH278175   3.461   5.625  16.847  0.6993  0.1374 -0.3890
18895TIP3    H178176   3.528   5.663  16.903 -0.0667  1.4789 -0.3524
18895TIP3    H278177   3.417   5.700  16.807 -1.8521 -0.5977  0.8308
18896TIP3   OH278178   3.142   2.180  14.289 -0.3799  0.2138  0.1044
18896TIP3    H178179   3.144   2.257  14.232 -0.2384  0.2923  0.2147
18896TIP3    H278180   3.089   2.116  14.242  1.3505 -0.4604 -1.0220
18897TIP3   OH278181   6.292   6.156  12.070  0.2668  0.4824 -0.4414
18897TIP3    H178182   6.332   6.218  12.132  2.4608 -1.0728 -0.1576
18897TIP3    H278183   6.331   6.180  11.985 -0.7738  1.0031 -0.7833
18898TIP3   OH278184   4.594   1.466   0.071  0.4112 -0.1975  0.1082
18898TIP3    H178185   4.517   1.523   0.070 -0.9164 -1.8474 -2.4119
18898TIP3    H278186   4.668   1.525   0.052 -0.7483  0.8907 -1.2347
18899TIP3   OH278187   1.531   0.503   5.667 -0.2580  0.0759  0.2762
18899TIP3    H178188   1.594   0.563   5.706 -1.4732  1.4125  0.2970
18899TIP3    H278189   1.483   0.557   5.604 -2.2094 -0.5112  1.1650
18900TIP3   OH278190   0.143   6.201  11.321 -0.5133  0.3903  0.3995
18900TIP3    H178191   0.081   6.211  11.249  0.2134 -2.1393 -0.6893
18900TIP3    H278192   0.096   6.233  11.398 -2.4725  0.2383 -0.6786
18901TIP3   OH278193   5.803   3.252  11.979 -0.0373  0.3186  0.1245
18901TIP3    H178194   5.784   3.167  12.018  0.0906  0.6648  0.9536
18901TIP3    H278195   5.884   3.239  11.930  1.3671  0.5603  2.2849
18902TIP3   OH278196   2.299   6.357  13.445  0.0783 -0.0399  0.0863
18902TIP3    H178197   2.380   6.306  13.438 -0.7375 -1.4839  0.8738
18902TIP3    H278198   2.270   6.369  13.354 -0.4406 -2.2253 -0.0789
18903TIP3   OH278199   2.802   6.332  15.580 -0.4782  1.0397  0.3882
18903TIP3    H178200   2.839   6.340  15.493 -0.0610  0.6670  0.5227
18903TIP3    H278201   2.734   6.264  15.572 -0.9017  1.4823  0.2140
18904TIP3   OH278202   0.555   2.665   3.788  0.4205  0.5475 -0.0977
18904TIP3    H178203   0.552   2.720   3.866 -1.6464 -0.2232  0.4362
18904TIP3    H278204   0.502   2.712   3.723  1.2355  0.6628 -0.7046
18905TIP3   OH278205   0.365   2.436   4.643  0.0559 -0.3573  0.2070
18905TIP3    H178206   0.382   2.529   4.657  0.6348 -0.3624 -0.4438
18905TIP3    H278207   0.288   2.417   4.697  1.4082 -0.0713  2.3485
18906TIP3   OH278208   3.823   6.852  10.131 -0.4171  0.0076 -0.3903
18906TIP3    H178209   3.760   6.834  10.200  0.3828 -1.6887 -0.0706
18906TIP3    H278210   3.810   6.781  10.068  0.1475  0.4990 -1.0722
18907TIP3   OH278211   3.826   0.913   0.057  0.2839  0.0750 -0.1383
18907TIP3    H178212   3.818   0.857  -0.021  0.5118 -0.1782  0.0176
18907TIP3    H278213   3.760   0.981   0.045  0.8127  0.4598 -0.9082
18908TIP3   OH278214   2.544   0.003   1.308 -0.5636  0.2540  0.3363
18908TIP3    H178215   2.535   0.069   1.376  0.7592  1.2837 -0.4219
18908TIP3    H278216   2.588   0.049   1.236 -1.7381 -0.8289 -1.1497
18909TIP3   OH278217   5.930   2.891  11.051  0.3956 -0.5268 -0.2691
18909TIP3    H178218   5.984   2.968  11.068  0.4683 -0.4866 -0.6718
18909TIP3    H278219   5.992   2.818  11.049  0.5362 -0.3903 -1.4248
18910TIP3   OH278220   3.786   5.484  15.582  0.0375  0.0264 -0.3726
18910TIP3    H178221   3.786   5.464  15.489 -1.5138  0.3911 -0.4743
18910TIP3    H278222   3.794   5.399  15.625  0.6494 -0.1515 -0.8265
18911TIP3   OH278223   6.748   1.674   4.074 -0.5367  0.5820 -0.4922
18911TIP3    H178224   6.773   1.764   4.093  0.2520  0.2851 -0.0788
18911TIP3    H278225   6.811   1.620   4.123 -2.1814 -0.2066  0.8587
18912TIP3   OH278226   3.389   4.877  15.268 -0.0211 -0.0887  0.3000
18912TIP3    H178227   3.412   4.965  15.238  1.7317 -0.5937  0.0719
18912TIP3    H278228   3.373   4.887  15.362  1.5307  0.2431  0.5450
18913TIP3   OH278229   6.635   6.823  15.268 -0.1872 -0.0455 -0.1949
18913TIP3    H178230   6.591   6.771  15.200  0.6935  1.2014 -1.7899
18913TIP3    H278231   6.606   6.784  15.350 -4.0737  0.5024 -1.1053
18914TIP3   OH278232   5.098   0.047   4.735  0.2189  0.0345  0.0950
18914TIP3    H178233   5.023   0.005   4.778 -0.1047 -0.8688 -1.3007
18914TIP3    H278234   5.077   0.045   4.642  2.3244 -0.9218 -0.4145
18915TIP3   OH278235   1.377   5.899  13.184  0.1179  0.4090 -0.8406
18915TIP3    H178236   1.457   5.847  13.175  1.5954  2.1343  1.4033
18915TIP3    H278237   1.335   5.864  13.263  0.5193  1.7664  0.0034
18916TIP3   OH278238   2.346   0.837   4.114  0.3672  0.0885  0.1849
18916TIP3    H178239   2.331   0.895   4.188  1.2009 -0.1942  0.5904
18916TIP3    H278240   2.318   0.750   4.145  1.8697 -0.2715  0.6384
18917TIP3   OH278241   3.170   6.782  12.831  0.6872 -0.3112  0.1767
18917TIP3    H178242   3.140   6.703  12.876  1.7565 -1.5419 -1.1516
18917TIP3    H278243   3.095   6.842  12.836 -0.5870 -1.8223  0.2734
18918TIP3   OH278244   4.713   6.436  13.414 -0.1836 -0.2446 -0.0242
18918TIP3    H178245   4.775   6.363  13.403  1.6726  1.3464 -0.7528
18918TIP3    H278246   4.660   6.411  13.490  0.5940 -2.1929 -0.0552
18919TIP3   OH278247   2.053   5.964   0.192 -0.3986  0.1007 -0.1466
18919TIP3    H178248   1.981   5.903   0.178  0.8286 -1.2618 -0.8345
18919TIP3    H278249   2.111   5.950   0.117  0.0656  1.9506 -0.1895
18920TIP3   OH278250   2.065   5.236   2.770  0.6325  0.0827 -0.3145
18920TIP3    H178251   2.143   5.218   2.822 -0.5347 -1.4792  1.0014
18920TIP3    H278252   2.028   5.314   2.810  1.1170  0.4001 -0.4753
18921TIP3   OH278253   6.420   3.651   3.995 -0.4536  0.1204  0.2826
18921TIP3    H178254   6.420   3.636   3.901  0.2408  0.3472  0.2460
18921TIP3    H278255   6.343   3.603   4.026 -0.8736  0.3189 -0.4370
18922TIP3   OH278256   3.843   5.163   3.409  0.4008 -0.4455  0.1037
18922TIP3    H178257   3.785   5.123   3.345 -1.1063  0.9670  0.5276
18922TIP3    H278258   3.916   5.198   3.357  1.2486 -2.7550 -0.3673
18923TIP3   OH278259   3.067   1.005   3.854 -0.0853 -0.0065 -0.0034
18923TIP3    H178260   3.116   0.938   3.807 -1.6933 -0.4577 -1.1078
18923TIP3    H278261   2.979   1.002   3.816 -0.6727  1.5429  1.1268
18924TIP3   OH278262   4.859   1.138  13.508 -0.1214 -0.1345  0.3818
18924TIP3    H178263   4.873   1.233  13.514 -0.6006  0.0143 -0.6724
18924TIP3    H278264   4.894   1.104  13.591  1.0723  0.8317  0.3068
18925TIP3   OH278265   6.058   3.640   5.652 -0.1621 -0.0126  0.0977
18925TIP3    H178266   6.128   3.704   5.671 -0.6291  0.9323 -1.1942
18925TIP3    H278267   5.977   3.689   5.668 -0.5245 -0.5093 -0.2248
18926TIP3   OH278268   5.186   0.366  13.193  0.0708 -0.5634  0.1232
18926TIP3    H178269   5.227   0.444  13.155  0.0236 -1.6051 -2.2043
18926TIP3    H278270   5.093   0.376  13.174  0.2889 -2.1088 -2.1174
18927TIP3   OH278271   2.092   2.257  16.433 -0.0602 -0.6187 -0.1894
18927TIP3    H178272   2.082   2.202  16.355 -0.5030 -0.4199 -0.2754
18927TIP3    H278273   2.021   2.229  16.490 -0.0555 -0.4002 -0.0770
18928TIP3   OH278274   4.414   0.631  15.818  0.0384 -0.4864  0.4993
18928TIP3    H178275   4.340   0.580  15.784  1.2495 -2.1821  0.2899
18928TIP3    H278276   4.394   0.641  15.911 -0.1038 -1.6066  0.6031
18929TIP3   OH278277   2.676   1.828  15.079  0.1894  0.2406  0.3437
18929TIP3    H178278   2.698   1.921  15.093 -0.4736  0.7709 -1.7484
18929TIP3    H278279   2.584   1.821  15.107 -0.1142  0.5118 -0.5477
18930TIP3   OH278280   2.201   4.848   2.820 -0.5487  0.0604 -0.2749
18930TIP3    H178281   2.238   4.926   2.777  2.0111 -0.9228 -0.0102
18930TIP3    H278282   2.199   4.871   2.913 -2.6341  0.8319 -0.4473
18931TIP3   OH278283   1.947   0.216   3.804  0.5741 -0.1015  0.1006
18931TIP3    H178284   1.899   0.299   3.809 -0.5423 -0.7935  2.3874
18931TIP3    H278285   1.925   0.171   3.886 -0.0063 -3.2828 -1.6314
18932TIP3   OH278286   0.540   0.085   0.918  0.0007 -0.1750 -0.6906
18932TIP3    H178287   0.585   0.119   0.995  2.3992  0.0327 -2.0828
18932TIP3    H278288   0.491   0.160   0.883  2.4531  1.0484 -1.7685
18933TIP3   OH278289   3.833   6.791   2.284  0.2832 -0.4102 -0.1065
18933TIP3    H178290   3.868   6.839   2.359 -0.3242 -1.6827  1.0225
18933TIP3    H278291   3.865   6.840   2.208  1.0233  0.8365  0.9603
18934TIP3   OH278292   5.358   5.591   2.402 -0.4084 -0.3084  0.3932
18934TIP3    H178293   5.264   5.586   2.418 -0.6315 -2.6458 -1.1591
18934TIP3    H278294   5.398   5.569   2.486 -1.2449 -0.0497  0.8763
18935TIP3   OH278295   6.519   0.218   5.441  0.1926 -0.5276  0.1531
18935TIP3    H178296   6.440   0.226   5.493  0.4691 -0.0772  0.5088
18935TIP3    H278297   6.568   0.146   5.483 -0.2470 -1.1455 -0.3677
18936TIP3   OH278298   4.262   1.859  11.541 -0.3682  0.5266 -0.0675
18936TIP3    H178299   4.274   1.864  11.636 -0.3517 -1.2914  0.0715
18936TIP3    H278300   4.176   1.820  11.530  0.0715 -0.2903 -0.7517
18937TIP3   OH278301   4.523   0.859  14.688  0.3158 -0.5931 -0.1076
18937TIP3    H178302   4.618   0.861  14.695  0.5809  1.4431 -2.6790
18937TIP3    H278303   4.494   0.939  14.731  0.2375  0.9566 -2.7897
18938TIP3   OH278304   6.135   0.042  12.917  0.1032 -0.7391 -0.1791
18938TIP3    H178305   6.114   0.104  12.848 -0.9134 -1.1284 -0.2460
18938TIP3    H278306   6.072  -0.030  12.905  0.9756 -1.5839  0.1447
18939TIP3   OH278307   2.160   3.788   1.076  0.0697 -0.2739 -0.3427
18939TIP3    H178308   2.198   3.868   1.110  1.2053 -0.8730 -0.1818
18939TIP3    H278309   2.084   3.818   1.025  0.2892  0.8678 -0.0258
18940TIP3   OH278310   6.189   3.122   1.781  0.0178  0.3034  0.3415
18940TIP3    H178311   6.164   3.107   1.690  0.9763 -2.0881  0.3902
18940TIP3    H278312   6.274   3.165   1.775  0.3806 -0.4280  0.0708
18941TIP3   OH278313   6.388   0.524  11.635 -0.1140 -0.1513  0.4919
18941TIP3    H178314   6.326   0.582  11.591 -0.0978 -0.5627 -0.0851
18941TIP3    H278315   6.338   0.446  11.656 -0.5129  0.5790  2.5370
18942TIP3   OH278316   5.501   6.488  16.572  0.1907 -0.5784  0.0409
18942TIP3    H178317   5.520   6.493  16.479  0.7193 -0.4549  0.1507
18942TIP3    H278318   5.501   6.394  16.592 -0.3465 -0.6248 -0.1638
18943TIP3   OH278319   2.232   1.795   6.151  0.1140  0.4466 -0.0980
18943TIP3    H178320   2.279   1.773   6.231 -0.3371  2.7769  0.8872
18943TIP3    H278321   2.139   1.786   6.175 -0.1271  3.6270  0.5526
18944TIP3   OH278322   6.523   3.895   5.901 -0.2204 -0.1100  0.1894
18944TIP3    H178323   6.464   3.866   5.971 -0.7626  1.3128  0.3413
18944TIP3    H278324   6.563   3.975   5.934  1.0692 -0.4994 -0.3255
18945TIP3   OH278325   3.431   6.714   5.750 -0.2174 -0.6930 -0.5859
18945TIP3    H178326   3.499   6.677   5.807 -0.1917 -0.7810 -0.6740
18945TIP3    H278327   3.366   6.644   5.741 -0.5401 -0.4612 -0.1438
18946TIP3   OH278328   1.600   2.840  15.865  0.3890  0.1512  0.4728
18946TIP3    H178329   1.621   2.910  15.803  2.1873  0.3278  1.2225
18946TIP3    H278330   1.658   2.856  15.939  0.6416 -1.9830  0.7851
18947TIP3   OH278331   2.740   4.840   1.332  0.0161  0.0135 -0.1578
18947TIP3    H178332   2.663   4.811   1.283 -0.4624  0.0691  0.5413
18947TIP3    H278333   2.715   4.830   1.424  0.8936 -0.0875  0.0768
18948TIP3   OH278334   0.823   5.578   2.094 -0.9502  0.1996 -0.1887
18948TIP3    H178335   0.874   5.618   2.025  0.1060  0.4322  0.7020
18948TIP3    H278336   0.878   5.507   2.127 -2.0791 -0.9262 -0.5940
18949TIP3   OH278337   0.756   1.931   3.021 -0.1435  0.5635  0.3241
18949TIP3    H178338   0.791   1.961   3.105 -0.4944 -0.5098  0.8628
18949TIP3    H278339   0.678   1.985   3.007 -0.6855  0.0457  1.2146
18950TIP3   OH278340   6.817   3.500   2.236 -0.1457 -0.4614 -0.0133
18950TIP3    H178341   6.722   3.489   2.236 -0.2679  0.1436 -1.9191
18950TIP3    H278342   6.831   3.585   2.277 -0.3176 -1.0466  1.3013
18951TIP3   OH278343   3.226   0.922  15.164 -0.1527  0.0124 -0.1308
18951TIP3    H178344   3.287   0.996  15.173  0.9793 -0.6666 -1.5953
18951TIP3    H278345   3.270   0.849  15.207 -0.5548 -0.1822 -0.0430
18952TIP3   OH278346   3.821   5.103  10.344  0.2727  0.6863  0.3594
18952TIP3    H178347   3.726   5.107  10.351  0.2139 -0.3455  0.3403
18952TIP3    H278348   3.841   5.143  10.260 -0.3719 -1.3016 -0.8070
18953TIP3   OH278349   3.444   1.398  16.102 -0.1464  0.6600  0.0345
18953TIP3    H178350   3.361   1.382  16.057 -1.0942 -2.8909  2.5473
18953TIP3    H278351   3.426   1.375  16.194  3.2027  1.4666  1.0404
18954TIP3   OH278352   6.866   1.062  11.255  0.1673  0.1046  0.6735
18954TIP3    H178353   6.941   1.091  11.204  2.2921 -3.0742  1.6751
18954TIP3    H278354   6.853   0.971  11.229 -1.9688 -0.0679  2.0992
18955TIP3   OH278355   2.231   2.151   3.110 -0.2574 -0.3379  0.1626
18955TIP3    H178356   2.244   2.065   3.070 -0.2583 -0.5614  0.6411
18955TIP3    H278357   2.212   2.132   3.202 -0.3306  0.1699  0.2529
18956TIP3   OH278358   2.034   0.532   5.120  0.0709 -0.6467 -0.4152
18956TIP3    H178359   2.064   0.482   5.196 -0.0220  1.1468  0.8664
18956TIP3    H278360   1.938   0.527   5.124  0.0245  0.4482  0.3395
18957TIP3   OH278361   0.631   6.445  13.526  0.1574  0.3083  0.6949
18957TIP3    H178362   0.688   6.466  13.452  0.3520 -0.9212  0.4729
18957TIP3    H278363   0.545   6.476  13.500  0.4139  0.7390  0.3547
18958TIP3   OH278364   6.050   4.503   3.786 -0.3053 -0.0312  0.3923
18958TIP3    H178365   6.028   4.582   3.836 -0.6182 -0.8296  1.5605
18958TIP3    H278366   5.998   4.434   3.828 -1.2195 -0.5954 -1.5807
18959TIP3   OH278367   6.155   6.764   4.380 -0.0291  0.1155 -0.1565
18959TIP3    H178368   6.222   6.701   4.350 -1.1531 -2.5973  2.4732
18959TIP3    H278369   6.171   6.842   4.328  2.2497 -1.9349 -2.8884
18960TIP3   OH278370   4.239   0.722   4.865  0.8290 -0.5679  0.2969
18960TIP3    H178371   4.318   0.766   4.834  0.1614 -0.2742 -1.0222
18960TIP3    H278372   4.212   0.773   4.942  0.1137  1.3618 -1.1466
18961TIP3   OH278373   6.734   4.323   2.752 -0.2942 -0.4928 -0.0232
18961TIP3    H178374   6.742   4.383   2.678 -2.6370  0.2437  0.2238
18961TIP3    H278375   6.656   4.352   2.799  0.2396 -1.8790  1.8888
18962TIP3   OH278376   2.045   3.402   2.279 -0.2985 -0.1053  0.8179
18962TIP3    H178377   2.023   3.311   2.262 -1.2352  0.2619 -0.0629
18962TIP3    H278378   1.968   3.437   2.325 -0.2791  0.4322  0.4485
18963TIP3   OH278379   3.275   6.243   4.860 -0.3498  0.4348 -0.2017
18963TIP3    H178380   3.363   6.278   4.850 -0.9340  1.7348 -0.9807
18963TIP3    H278381   3.230   6.267   4.779 -1.7741  0.8733  0.6825
18964TIP3   OH278382   1.060   0.004   5.584  0.3015 -0.3584 -0.4575
18964TIP3    H178383   1.130   0.004   5.649  0.9614  2.1151 -1.0684
18964TIP3    H278384   0.997  -0.061   5.616  0.1687  1.3274  3.1216
18965TIP3   OH278385   0.635   6.205  12.103  0.2267  0.3087  0.0712
18965TIP3    H178386   0.569   6.244  12.045  1.1626 -0.7053 -1.7866
18965TIP3    H278387   0.674   6.279  12.147 -2.2534  0.9356  1.4158
18966TIP3   OH278388   1.075   6.376   4.588 -0.4745  0.3925  0.5081
18966TIP3    H178389   1.118   6.412   4.510 -1.8949 -1.1994 -1.1057
18966TIP3    H278390   1.081   6.281   4.577 -3.8989  0.0483  0.3489
18967TIP3   OH278391   6.247   3.854  12.259 -0.3796  0.2407 -0.4119
18967TIP3    H178392   6.157   3.842  12.227 -0.3270 -2.2342  0.1241
18967TIP3    H278393   6.246   3.812  12.345  0.6577  2.5780  0.8090
18968TIP3   OH278394   6.123   4.130  15.717  0.2468  0.3541  0.1072
18968TIP3    H178395   6.143   4.040  15.692 -1.1536  0.5423 -2.0371
18968TIP3    H278396   6.136   4.133  15.812  0.8100 -1.9506  0.1540
18969TIP3   OH278397   5.533   2.755   1.694  0.0550  0.0384  0.7073
18969TIP3    H178398   5.457   2.754   1.635  1.7283 -0.4770 -1.5497
18969TIP3    H278399   5.579   2.836   1.672  1.9686 -1.2866 -0.4652
18970TIP3   OH278400   2.335   6.244   4.883  0.0402  0.5127  0.0435
18970TIP3    H178401   2.410   6.201   4.843 -1.3845 -1.5769 -0.5527
18970TIP3    H278402   2.342   6.336   4.857  0.2599 -0.3628 -3.3862
18971TIP3   OH278403   4.615   4.527   2.330  0.1000  0.1806 -0.5372
18971TIP3    H178404   4.618   4.529   2.425  0.3053 -1.4948 -0.4698
18971TIP3    H278405   4.544   4.586   2.306  0.2114  0.8052  0.6312
18972TIP3   OH278406   5.697   1.691   1.784  0.2356  0.3385 -0.9020
18972TIP3    H178407   5.631   1.739   1.835 -0.3255 -0.5067 -0.8215
18972TIP3    H278408   5.724   1.754   1.717  0.7146  1.3434  0.1845
18973TIP3   OH278409   0.614   1.346  14.430 -0.4630 -0.3718 -0.2610
18973TIP3    H178410   0.626   1.429  14.476  1.0155 -0.8541  0.2930
18973TIP3    H278411   0.653   1.361  14.343  2.5096 -1.2606  0.7836
18974TIP3   OH278412   4.334   4.609  14.920  0.3995 -0.2076  0.0646
18974TIP3    H178413   4.398   4.663  14.872 -1.6202  3.2528  0.9213
18974TIP3    H278414   4.332   4.647  15.007 -2.5135 -0.4054  0.1667
18975TIP3   OH278415   6.217   6.559  10.499 -0.2484  0.2119 -0.3449
18975TIP3    H178416   6.156   6.626  10.468 -0.4508 -0.6830 -1.9763
18975TIP3    H278417   6.293   6.608  10.531 -2.1976  1.4597  2.8915
18976TIP3   OH278418   5.353   3.197  12.945 -0.4526 -0.4081 -0.2148
18976TIP3    H178419   5.417   3.150  12.891  0.7377 -0.7626  1.4281
18976TIP3    H278420   5.338   3.279  12.898  0.2821 -0.8531 -1.2538
18977TIP3   OH278421   3.641   5.684  14.062 -0.1412  0.1393 -0.3908
18977TIP3    H178422   3.657   5.771  14.100 -3.4654 -0.1570  2.1771
18977TIP3    H278423   3.681   5.623  14.123  1.1329 -0.2475 -1.5570
18978TIP3   OH278424   2.784   0.769  13.840  0.1320 -0.2701 -0.5292
18978TIP3    H178425   2.877   0.791  13.830  0.2565  1.5732  3.1069
18978TIP3    H278426   2.738   0.851  13.825 -0.8018 -0.8401 -0.8724
18979TIP3   OH278427   5.846   0.527   6.316  0.0826  0.1734 -0.1187
18979TIP3    H178428   5.822   0.436   6.335  0.7090  0.0943  0.3342
18979TIP3    H278429   5.847   0.570   6.402  1.3380  0.2145 -0.1288
18980TIP3   OH278430   1.596   0.212  14.255  0.5860  0.2848  0.4593
18980TIP3    H178431   1.649   0.278  14.299  0.8085 -0.1643  0.8749
18980TIP3    H278432   1.508   0.223  14.290  0.0281  1.9864 -1.2697
18981TIP3   OH278433   0.574   1.464   5.003 -0.0032 -0.4065  0.8541
18981TIP3    H178434   0.513   1.453   5.076  0.9605  0.4836  1.8320
18981TIP3    H278435   0.572   1.558   4.985  1.2715 -0.3189  1.0977
18982TIP3   OH278436   0.135   1.654   0.175  0.1886 -0.1308 -0.5858
18982TIP3    H178437   0.119   1.601   0.097 -1.2726  0.4429 -0.6993
18982TIP3    H278438   0.133   1.591   0.247 -1.9141 -0.2511 -0.6774
18983TIP3   OH278439   2.216   6.020  11.093  0.2065  0.4875  0.0804
18983TIP3    H178440   2.307   5.997  11.113 -0.0117 -1.6618 -1.0726
18983TIP3    H278441   2.218   6.045  11.000 -0.6065 -1.2561 -0.4441
18984TIP3   OH278442   2.281   3.652  13.349 -0.5588  0.2719 -0.0493
18984TIP3    H178443   2.314   3.621  13.434  0.7689 -1.0244 -1.0026
18984TIP3    H278444   2.343   3.720  13.322  0.8895 -1.4810 -1.3813
18985TIP3   OH278445   6.213   4.156  15.971 -0.6077 -0.2795 -0.3018
18985TIP3    H178446   6.188   4.129  16.059 -0.3160 -0.5304 -0.2937
18985TIP3    H278447   6.242   4.247  15.981 -2.1883  0.2727 -0.4327
18986TIP3   OH278448   3.920   6.025   0.839  0.3087 -0.5884 -0.3881
18986TIP3    H178449   3.911   5.932   0.859 -0.6418 -0.5471 -0.5695
18986TIP3    H278450   3.954   6.027   0.749 -0.5859 -0.7718 -0.7439
18987TIP3   OH278451   3.591   3.730   6.630  0.2489  0.2236  0.0049
18987TIP3    H178452   3.657   3.680   6.582 -0.1104 -1.0411  0.7714
18987TIP3    H278453   3.521   3.667   6.646 -0.6592  1.2538  0.1593
18988TIP3   OH278454   2.769   0.391   0.738 -0.3443  0.4246 -0.8595
18988TIP3    H178455   2.723   0.387   0.822  0.4362 -2.5228 -0.4840
18988TIP3    H278456   2.860   0.409   0.761 -0.6479  3.0124 -1.3887
18989TIP3   OH278457   3.973   2.853  13.562  0.4122  0.2760  0.0027
18989TIP3    H178458   4.016   2.768  13.548 -1.8725 -0.8871 -0.3814
18989TIP3    H278459   3.999   2.906  13.487 -1.0940 -1.3898 -1.7773
18990TIP3   OH278460   4.641   2.278  15.715  0.3386  0.3549 -1.0107
18990TIP3    H178461   4.633   2.255  15.622 -3.8054  0.5233 -0.8931
18990TIP3    H278462   4.656   2.194  15.759 -4.0984 -0.9829 -1.4889
18991TIP3   OH278463   2.308   3.502   0.396 -0.2234 -0.5026  0.6698
18991TIP3    H178464   2.387   3.538   0.354 -0.4072 -0.0044  0.7359
18991TIP3    H278465   2.313   3.408   0.381 -0.2130 -0.3492 -0.3474
18992TIP3   OH278466   3.901   3.653   2.696  0.8150  0.0607  0.2456
18992TIP3    H178467   3.991   3.638   2.725  0.9584 -0.7440 -0.5539
18992TIP3    H278468   3.908   3.663   2.601  0.1547  0.8486  0.2746
18993TIP3   OH278469   3.547   3.693   1.777  0.6134  0.3501  0.1707
18993TIP3    H178470   3.627   3.641   1.791  0.0661 -0.3463  0.8148
18993TIP3    H278471   3.563   3.740   1.696  0.8578 -1.4064 -0.8595
18994TIP3   OH278472   3.956   0.556   6.265 -0.1533  0.2471 -0.0186
18994TIP3    H178473   3.967   0.513   6.350  1.6593  1.1683  0.2793
18994TIP3    H278474   3.954   0.485   6.201  2.2656 -0.3852  0.4951
18995TIP3   OH278475   6.851   4.671   3.483  0.3714  0.2187  0.6101
18995TIP3    H178476   6.910   4.743   3.458 -0.6016  1.1165  0.8181
18995TIP3    H278477   6.770   4.715   3.510 -1.4088 -1.0445 -2.2201
18996TIP3   OH278478   5.908   2.380   0.239 -0.0263  0.2114 -0.5351
18996TIP3    H178479   5.858   2.337   0.309 -0.7658 -0.0782 -1.2291
18996TIP3    H278480   5.950   2.308   0.192 -1.6312  0.1563 -1.9797
18997TIP3   OH278481   2.919   3.379   2.454  0.2769 -0.1339 -0.6362
18997TIP3    H178482   2.978   3.309   2.424  0.4967  0.6586 -2.1364
18997TIP3    H278483   2.972   3.429   2.516 -0.3253 -2.0560  1.5971
18998TIP3   OH278484   5.271   5.364   3.022  0.0337 -0.3596 -0.1760
18998TIP3    H178485   5.355   5.380   2.978 -0.6111  0.0800 -1.2910
18998TIP3    H278486   5.295   5.342   3.112  1.2501  2.0457  0.1667
18999TIP3   OH278487   1.003   4.834  14.694  0.1307 -0.2376 -0.7250
18999TIP3    H178488   0.995   4.870  14.606 -0.8873  0.5347 -0.3300
18999TIP3    H278489   0.919   4.790  14.710  0.8096 -1.5725 -0.6448
19000TIP3   OH278490   1.931   3.664   3.708 -0.0259 -0.0660 -0.1939
19000TIP3    H178491   1.848   3.659   3.755  0.0681  0.2197  0.0059
19000TIP3    H278492   1.908   3.703   3.624  0.1898  1.8612  0.5923
19001TIP3   OH278493   4.450   2.903  10.895 -0.3478 -0.8956 -0.5906
19001TIP3    H178494   4.505   2.937  10.966 -0.8647 -1.1720 -0.0401
19001TIP3    H278495   4.378   2.859  10.941 -0.7641 -0.9573 -1.2937
19002TIP3   OH278496   2.511   5.678   0.765 -0.3080 -0.4207 -0.5783
19002TIP3    H178497   2.592   5.635   0.793 -0.0210 -0.4141 -1.3596
19002TIP3    H278498   2.467   5.614   0.710  0.2159  0.3254 -1.9077
19003TIP3   OH278499   6.272   6.386  11.375 -0.4244 -0.0271 -0.4335
19003TIP3    H178500   6.364   6.405  11.392 -0.9104  1.9112  0.3036
19003TIP3    H278501   6.253   6.430  11.293 -0.5950 -0.8240 -0.8320
19004TIP3   OH278502   1.397   5.609  12.208 -0.0477  0.3011  0.8752
19004TIP3    H178503   1.458   5.659  12.262 -0.8847  0.9268  1.2786
19004TIP3    H278504   1.424   5.518  12.219  1.9564  0.6883 -0.4400
19005TIP3   OH278505   3.033   3.625   5.825 -0.1664 -0.1732 -0.3800
19005TIP3    H178506   2.951   3.651   5.866  0.4964  0.0032  0.8650
19005TIP3    H278507   3.021   3.533   5.803 -0.1103 -0.5996  1.3099
19006TIP3   OH278508   1.441   3.976  14.172 -0.0837 -0.0241 -0.3079
19006TIP3    H178509   1.467   4.063  14.143 -1.1481  0.5020  0.2446
19006TIP3    H278510   1.348   3.971  14.150 -0.0768 -0.9491 -0.1538
19007TIP3   OH278511   3.307   4.708  14.443  0.0675  0.0661  0.6814
19007TIP3    H178512   3.328   4.620  14.476 -1.5156 -1.4491 -2.0439
19007TIP3    H278513   3.389   4.737  14.402  1.0832  0.6554  2.9097
19008TIP3   OH278514   5.822   1.018  14.980 -0.1176 -0.1078 -0.4371
19008TIP3    H178515   5.783   1.025  14.893  0.8268  0.3866 -0.8250
19008TIP3    H278516   5.915   1.000  14.964  0.5567  2.2846  0.4106
19009TIP3   OH278517   2.916   3.819   4.804  0.7451 -0.1788 -0.5614
19009TIP3    H178518   2.867   3.752   4.852  1.7263 -0.6322 -0.1638
19009TIP3    H278519   2.892   3.901   4.847 -1.7033 -0.0177 -2.0484
19010TIP3   OH278520   6.415   1.451  14.542 -0.4403 -0.3614 -1.0817
19010TIP3    H178521   6.401   1.542  14.570  0.0677 -0.1004 -1.6516
19010TIP3    H278522   6.453   1.408  14.618 -2.1202 -0.5010 -0.2798
19011TIP3   OH278523   2.066   1.993  13.855 -0.3583  0.2902 -0.7133
19011TIP3    H178524   2.013   2.066  13.821 -0.5228  0.5257  0.0264
19011TIP3    H278525   2.109   1.957  13.778 -0.9471  0.6272 -1.2137
19012TIP3   OH278526   5.181   5.605   3.245 -0.4098 -0.7786 -0.4416
19012TIP3    H178527   5.236   5.577   3.318  0.8614 -0.9922 -1.4371
19012TIP3    H278528   5.224   5.568   3.167 -0.7962  0.8175 -1.4558
19013TIP3   OH278529   4.641   4.074   1.788 -0.1222  0.0316 -0.2534
19013TIP3    H178530   4.644   4.005   1.855 -1.1667 -0.3579 -0.5860
19013TIP3    H278531   4.730   4.110   1.787  0.4988 -1.4157 -0.1809
19014TIP3   OH278532   1.056   4.115  11.561  0.3927 -0.0231  0.0820
19014TIP3    H178533   1.041   4.062  11.482  1.2155 -1.1630  0.6739
19014TIP3    H278534   0.968   4.142  11.588 -0.5193 -3.8492  1.6126
19015TIP3   OH278535   1.850   0.886   5.916 -0.6163  0.5880 -0.1028
19015TIP3    H178536   1.886   0.865   6.002 -0.4072 -0.3411 -0.4017
19015TIP3    H278537   1.917   0.940   5.875  0.2314 -0.6752 -0.4453
19016TIP3   OH278538   2.919   3.878  14.555 -0.0883  0.0962  0.5396
19016TIP3    H178539   2.986   3.891  14.622 -1.3948  0.1451  1.8888
19016TIP3    H278540   2.891   3.787  14.565  1.4276 -0.7003 -1.6484
19017TIP3   OH278541   6.425   3.193  13.713  0.0434  0.1461 -0.3768
19017TIP3    H178542   6.470   3.183  13.629  2.1818 -2.4591  0.9433
19017TIP3    H278543   6.346   3.141  13.703  0.6094 -0.6957 -0.5924
19018TIP3   OH278544   3.648   5.872   4.006  1.1765  0.1792 -0.0919
19018TIP3    H178545   3.566   5.834   4.039  0.4840  2.2521  0.7037
19018TIP3    H278546   3.639   5.871   3.911 -0.9917  2.7583 -0.0145
19019TIP3   OH278547   5.181   4.716   1.065  0.2987  0.1920  0.9638
19019TIP3    H178548   5.225   4.639   1.030  0.1025  0.8418 -0.7926
19019TIP3    H278549   5.105   4.729   1.009  0.7186  2.0750  0.7610
19020TIP3   OH278550   0.911   6.487   0.241  0.0044 -0.2294 -0.0265
19020TIP3    H178551   0.876   6.573   0.217  1.7321  0.7169  0.6392
19020TIP3    H278552   0.899   6.482   0.336 -1.0658 -1.2174 -0.1965
19021TIP3   OH278553   6.001   3.306   1.951  0.0070 -0.3887 -0.2479
19021TIP3    H178554   5.959   3.220   1.944  0.3613 -0.5203 -0.7994
19021TIP3    H278555   6.094   3.286   1.962  0.1354 -0.0725 -0.7491
19022TIP3   OH278556   2.458   2.284  13.516  0.0797 -0.4724 -0.1575
19022TIP3    H178557   2.379   2.232  13.529 -0.7313  0.4976 -1.0638
19022TIP3    H278558   2.457   2.348  13.586 -0.0671 -0.3123 -0.3047
19023TIP3   OH278559   5.047   6.071  12.689  0.8188 -0.3084  0.3372
19023TIP3    H178560   4.999   6.007  12.742  0.5083 -1.3499 -1.1320
19023TIP3    H278561   5.001   6.071  12.605  1.5433  0.9836 -0.0760
19024TIP3   OH278562   6.499   0.773  12.664 -0.0929  1.0863  0.1979
19024TIP3    H178563   6.545   0.781  12.581 -0.2956 -1.0740 -0.1696
19024TIP3    H278564   6.433   0.705  12.649  0.1145  0.3718  2.1986
19025TIP3   OH278565   5.489   4.042  14.169  0.0246  0.2309  0.1062
19025TIP3    H178566   5.539   4.115  14.205  0.5575 -0.6236  1.1360
19025TIP3    H278567   5.453   3.996  14.245  1.5790 -1.8986 -0.3513
19026TIP3   OH278568   0.539   3.203   2.073 -0.4542 -0.2671 -0.1425
19026TIP3    H178569   0.537   3.298   2.061  1.5158 -0.2975 -1.2856
19026TIP3    H278570   0.518   3.168   1.986  0.8177 -0.7998 -0.2644
19027TIP3   OH278571   6.680   2.770  15.032 -0.3453 -0.2228  0.1422
19027TIP3    H178572   6.699   2.864  15.037  2.9900 -0.7683 -0.2028
19027TIP3    H278573   6.636   2.760  14.948  2.8499  0.6696 -1.8209
19028TIP3   OH278574   1.337   3.727   3.401 -0.3004 -0.2134  0.2446
19028TIP3    H178575   1.411   3.680   3.440  1.4616  2.1901 -0.0236
19028TIP3    H278576   1.278   3.657   3.372  2.1080 -2.2759 -0.0331
19029TIP3   OH278577   5.077   1.062   0.500  0.2780 -0.0547  0.3186
19029TIP3    H178578   5.073   1.043   0.406  2.5507  0.2456  0.0917
19029TIP3    H278579   5.042   1.150   0.508  2.6103  1.0395 -0.7132
19030TIP3   OH278580   5.731   4.168  11.288 -0.4378  0.1404 -0.0052
19030TIP3    H178581   5.686   4.209  11.215 -0.1556  0.1837 -0.1539
19030TIP3    H278582   5.749   4.240  11.349 -1.5649 -0.0411  0.5793
19031TIP3   OH278583   5.303   1.715   0.312 -0.2892  0.1240  0.2834
19031TIP3    H178584   5.217   1.702   0.353 -0.0912 -0.0964  0.6398
19031TIP3    H278585   5.285   1.716   0.218 -1.2291  3.9373  0.3715
19032TIP3   OH278586   6.363   1.826  11.241  0.3582 -0.3338  0.0289
19032TIP3    H178587   6.288   1.800  11.189  0.5816 -0.3451 -0.2877
19032TIP3    H278588   6.416   1.881  11.183  0.2796  0.1931  0.4479
19033TIP3   OH278589   4.085   1.563   5.217 -0.5943  0.0217  0.3606
19033TIP3    H178590   4.142   1.631   5.253  0.0581 -0.2840 -0.0729
19033TIP3    H278591   4.082   1.496   5.285 -0.5761  0.1110  0.4511
19034TIP3   OH278592   5.662   1.475   0.790  0.0049  0.0456  0.0241
19034TIP3    H178593   5.635   1.477   0.698  1.1337 -1.6749 -0.3881
19034TIP3    H278594   5.603   1.411   0.830  0.0435  0.1996  0.3231
19035TIP3   OH278595   4.450   0.276  13.451  0.4685 -0.4041  0.3598
19035TIP3    H178596   4.464   0.365  13.485  0.2467 -0.6111  1.0153
19035TIP3    H278597   4.373   0.285  13.394  0.7680 -0.0738  0.0070
19036TIP3   OH278598   3.508   1.747   2.865 -0.9011  0.2242 -0.1558
19036TIP3    H178599   3.536   1.829   2.826  0.0403  0.7123  1.4894
19036TIP3    H278600   3.530   1.680   2.799 -0.5205  1.1302 -0.9660
19037TIP3   OH278601   1.671   5.865   0.027  0.1692  0.1226 -0.2257
19037TIP3    H178602   1.602   5.903   0.082 -1.2199 -0.4752 -1.5042
19037TIP3    H278603   1.738   5.838   0.089 -0.2162  1.7548  0.9718
19038TIP3   OH278604   1.944   2.287  14.092  0.0672  0.3091  0.2221
19038TIP3    H178605   2.013   2.241  14.139 -1.2830 -1.2829  0.7385
19038TIP3    H278606   1.986   2.366  14.059  2.5289 -1.2847 -0.7563
19039TIP3   OH278607   1.141   2.240   5.350  0.2778  0.4962  0.4381
19039TIP3    H178608   1.222   2.193   5.328  0.9300  2.3984 -1.6535
19039TIP3    H278609   1.169   2.306   5.413  0.0544  0.2218  0.8247
19040TIP3   OH278610   3.102   2.044   3.439 -0.1800  0.3791  0.0568
19040TIP3    H178611   3.128   2.118   3.384 -1.7637  0.4749 -0.6228
19040TIP3    H278612   3.058   1.983   3.379 -0.7938 -0.1164  0.9808
19041TIP3   OH278613   0.120   1.367  13.633  0.3405 -0.0644  0.0293
19041TIP3    H178614   0.044   1.329  13.676 -0.7671 -0.6433 -2.3039
19041TIP3    H278615   0.181   1.294  13.622 -0.0774 -0.2967 -0.8212
19042TIP3   OH278616   2.691   5.695  12.707  0.1946 -0.2598 -0.1890
19042TIP3    H178617   2.773   5.723  12.665  0.8805 -2.6226 -0.6116
19042TIP3    H278618   2.707   5.604  12.731 -1.4641 -0.0480  2.0329
19043TIP3   OH278619   2.710   6.820  10.086  0.7164 -0.1017 -0.5633
19043TIP3    H178620   2.805   6.807  10.095  0.9499  2.1555  1.1964
19043TIP3    H278621   2.676   6.811  10.175 -0.7251 -0.7055 -1.1479
19044TIP3   OH278622   2.265   3.271   4.308 -0.3690  0.0452 -0.5328
19044TIP3    H178623   2.271   3.260   4.403 -1.9264  0.6575 -0.3439
19044TIP3    H278624   2.341   3.223   4.274  0.0103 -0.4957  0.9863
19045TIP3   OH278625   0.444   6.004   0.562 -0.2371  0.0971  0.6171
19045TIP3    H178626   0.515   5.985   0.500  0.0536 -0.4118  1.0914
19045TIP3    H278627   0.365   5.978   0.516 -0.3108  2.1298 -0.5346
19046TIP3   OH278628   0.159   1.469  16.029  0.1625  0.4567  0.3744
19046TIP3    H178629   0.086   1.421  15.991  0.0814 -0.1835  1.3210
19046TIP3    H278630   0.138   1.561  16.013 -1.1998  0.3246  1.2394
19047TIP3   OH278631   2.194   1.675   1.337  0.1517  0.4734 -0.7085
19047TIP3    H178632   2.250   1.699   1.411 -1.7513  0.8911  0.6992
19047TIP3    H278633   2.160   1.758   1.305 -2.3352  0.1356  0.7697
19048TIP3   OH278634   3.543   0.916  11.506  0.0277 -0.3708  0.0342
19048TIP3    H178635   3.613   0.880  11.452 -0.9061 -2.1622 -0.0871
19048TIP3    H278636   3.523   0.846  11.568 -1.0177  0.4480  0.6481
19049TIP3   OH278637   0.375   4.880  15.126  0.1339  0.8032 -0.2435
19049TIP3    H178638   0.419   4.826  15.060 -1.5337 -0.1422 -0.6421
19049TIP3    H278639   0.341   4.955  15.077 -2.9055 -0.8886 -1.0465
19050TIP3   OH278640   1.702   1.003  11.880 -0.5469  0.6865  0.4005
19050TIP3    H178641   1.720   0.911  11.865  0.2756  0.8382  0.4163
19050TIP3    H278642   1.752   1.025  11.959 -0.0223  1.3558 -0.1072
19051TIP3   OH278643   0.377   4.626   4.093 -0.1831 -0.3460  0.1542
19051TIP3    H178644   0.362   4.713   4.056  1.1095  0.2766  1.0145
19051TIP3    H278645   0.360   4.637   4.187 -0.1538 -1.0582  0.2461
19052TIP3   OH278646   2.111   1.018  14.809  0.1594 -0.3551  0.0263
19052TIP3    H178647   2.108   1.114  14.806 -1.6553 -0.3881 -1.8331
19052TIP3    H278648   2.023   0.992  14.835  0.9026 -1.5457  1.4667
19053TIP3   OH278649   6.677   4.182   5.577  0.0799  0.0569  0.4085
19053TIP3    H178650   6.702   4.109   5.634  0.6946  0.1531  0.2789
19053TIP3    H278651   6.697   4.149   5.489  0.7037  0.5124  0.3765
19054TIP3   OH278652   3.321   4.881   1.052 -0.0010 -0.1110 -0.3868
19054TIP3    H178653   3.276   4.823   1.114  0.1164  0.5639  0.3498
19054TIP3    H278654   3.413   4.859   1.062 -0.0270 -0.3861 -0.7335
19055TIP3   OH278655   2.104   4.362  14.875 -0.1413 -0.4671 -0.4583
19055TIP3    H178656   2.135   4.439  14.826  0.8845 -0.1172  0.7012
19055TIP3    H278657   2.038   4.397  14.934  1.1869 -0.2281  0.9311
19056TIP3   OH278658   4.243   3.971   3.767 -0.0657  0.4238  0.6288
19056TIP3    H178659   4.184   3.925   3.708  1.1582  0.0592 -0.3418
19056TIP3    H278660   4.278   3.903   3.824  0.8184  0.3178 -0.0174
19057TIP3   OH278661   6.478   5.490   4.784  0.0871  0.5295  0.0865
19057TIP3    H178662   6.499   5.574   4.744  0.5023  0.6996  0.6329
19057TIP3    H278663   6.438   5.439   4.715 -0.9712  1.4824 -0.0271
19058TIP3   OH278664   6.703   1.427   0.448 -0.3251 -0.1463  0.2867
19058TIP3    H178665   6.622   1.394   0.410 -0.8638  0.8649  0.5406
19058TIP3    H278666   6.738   1.487   0.383 -1.3755  1.7847  1.4216
19059TIP3   OH278667   1.010   5.360   6.257  0.7860 -0.0578  0.5343
19059TIP3    H178668   1.077   5.416   6.218 -1.2222  1.4521 -0.9596
19059TIP3    H278669   1.030   5.360   6.350  3.0173  0.0451  0.1111
19060TIP3   OH278670   2.354   4.688  11.777 -0.2277 -0.0580  0.0831
19060TIP3    H178671   2.337   4.637  11.698 -0.9581  0.7314 -0.2903
19060TIP3    H278672   2.413   4.633  11.830  0.3697 -0.5399 -1.0591
19061TIP3   OH278673   0.859   1.063   5.207  0.2333 -0.4169 -0.7456
19061TIP3    H178674   0.890   1.142   5.163  1.6422 -0.5080  0.0030
19061TIP3    H278675   0.771   1.085   5.237  0.9315  1.2359  0.2581
19062TIP3   OH278676   1.326   1.739  12.907 -0.3806  0.3138  0.2063
19062TIP3    H178677   1.289   1.657  12.874  0.4680  0.0573 -0.1396
19062TIP3    H278678   1.263   1.769  12.972 -1.4085  0.1242 -0.6760
19063TIP3   OH278679   5.101   1.540  15.741 -0.0292 -0.1560  0.2564
19063TIP3    H178680   5.076   1.457  15.782 -0.5338 -1.0539 -1.7434
19063TIP3    H278681   5.073   1.531  15.650 -2.5440  3.2579  0.4987
19064TIP3   OH278682   5.892   5.584  11.959  0.9330 -0.1788 -0.2026
19064TIP3    H178683   5.879   5.675  11.931 -0.4457 -0.5792 -0.9434
19064TIP3    H278684   5.931   5.591  12.046  0.2803  1.1294  0.0047
19065TIP3   OH278685   0.914   2.943   2.803 -0.2255  0.1922 -0.2718
19065TIP3    H178686   1.004   2.973   2.791 -0.3931  0.6675 -0.3537
19065TIP3    H278687   0.863   2.992   2.739 -0.5496 -0.0632 -0.2160
19066TIP3   OH278688   4.243   6.558  11.183  0.5334  0.8575 -0.4704
19066TIP3    H178689   4.162   6.544  11.133  0.1455 -1.7486  0.6883
19066TIP3    H278690   4.308   6.503  11.139  0.6058 -0.1762  0.8806
19067TIP3   OH278691   1.781   0.201  16.673  0.5347 -0.2475 -0.4235
19067TIP3    H178692   1.868   0.201  16.632  0.5383  1.9484 -0.5779
19067TIP3    H278693   1.798   0.189  16.766  0.8454 -1.5560 -0.6393
19068TIP3   OH278694   1.292   5.327  16.009  0.0731  0.4478  0.1057
19068TIP3    H178695   1.239   5.334  16.088  0.8238 -0.9040  0.7582
19068TIP3    H278696   1.356   5.398  16.016 -1.2844  1.7851 -0.4521
19069TIP3   OH278697   4.228   5.522  11.106  0.3071  0.4269 -0.2840
19069TIP3    H178698   4.139   5.549  11.087 -0.5349 -0.9941  1.3661
19069TIP3    H278699   4.240   5.440  11.058 -0.4431 -1.0482  1.8878
19070TIP3   OH278700   6.294   4.335   1.260  0.0258  0.0795  0.2161
19070TIP3    H178701   6.281   4.355   1.353  0.3967  1.4146  0.0147
19070TIP3    H278702   6.381   4.296   1.256  0.7233  1.5513  0.2698
19071TIP3   OH278703   3.365   1.766  13.114  0.2291  0.4962 -0.3641
19071TIP3    H178704   3.387   1.835  13.176 -0.5188 -0.3257  0.8709
19071TIP3    H278705   3.292   1.800  13.063  0.5584  1.0089 -0.4974
19072TIP3   OH278706   2.152   1.330  15.692  0.3190  0.4759  0.6873
19072TIP3    H178707   2.176   1.340  15.600 -2.6770  0.0080 -0.2388
19072TIP3    H278708   2.148   1.419  15.726 -0.2708  0.7772 -0.1491
19073TIP3   OH278709   2.412   3.250  16.431  0.9811  0.2251 -0.6700
19073TIP3    H178710   2.506   3.261  16.421  1.1037 -1.8486 -2.5832
19073TIP3    H278711   2.391   3.175  16.377 -1.6108 -0.1606  0.7157
19074TIP3   OH278712   6.715   3.161  16.361 -0.1845 -0.0425  0.1392
19074TIP3    H178713   6.768   3.081  16.362  0.5982  0.4596  1.6955
19074TIP3    H278714   6.641   3.141  16.419  0.9316  0.9128  1.9668
19075TIP3   OH278715   3.024   6.208  16.559 -0.0852 -0.1432 -0.7596
19075TIP3    H178716   2.971   6.129  16.551  0.6609 -0.8984  1.3315
19075TIP3    H278717   3.107   6.186  16.518 -0.0198 -0.2781 -0.5495
19076TIP3   OH278718   6.615   5.139   5.583 -0.1787  0.1060 -0.4210
19076TIP3    H178719   6.653   5.051   5.590  1.8226  1.0455  1.7136
19076TIP3    H278720   6.523   5.126   5.607  0.5525 -1.1469  2.0966
19077TIP3   OH278721   6.169   1.266  16.271  0.8185 -0.3504 -0.5039
19077TIP3    H178722   6.095   1.327  16.276  0.3624 -0.7691 -1.7361
19077TIP3    H278723   6.244   1.316  16.305  0.5761  1.1346 -2.0245
19078TIP3   OH278724   5.019   4.703   0.832 -0.6302 -0.0310 -0.2183
19078TIP3    H178725   5.071   4.745   0.763 -0.0352  2.0781  1.4180
19078TIP3    H278726   4.929   4.708   0.799 -0.2073 -0.5139 -1.5256
19079TIP3   OH278727   2.223   6.638  10.785 -0.0814 -0.0930 -0.1407
19079TIP3    H178728   2.182   6.718  10.818 -1.8308 -1.1862  0.4959
19079TIP3    H278729   2.315   6.646  10.810  0.3678  2.7857 -2.2250
19080TIP3   OH278730   6.263   4.451  16.077 -0.2728 -0.4372 -0.1294
19080TIP3    H178731   6.168   4.448  16.067 -0.2228 -1.0501 -0.4800
19080TIP3    H278732   6.290   4.528  16.028 -0.4325 -1.2281 -1.5124
19081TIP3   OH278733   1.344   0.996   5.976  0.5463  0.1389  0.2311
19081TIP3    H178734   1.324   1.034   5.890  0.4941 -1.8251 -0.6813
19081TIP3    H278735   1.439   0.998   5.981  0.5230  1.1292  0.5794
19082TIP3   OH278736   4.742   2.770   0.987  0.3321 -0.4608  0.4881
19082TIP3    H178737   4.768   2.678   0.987  1.6329 -0.1234  1.4691
19082TIP3    H278738   4.823   2.818   1.008 -0.1556  0.9638 -0.6674
19083TIP3   OH278739   5.303   0.569   3.936 -0.4797  0.0412 -0.1034
19083TIP3    H178740   5.223   0.622   3.941 -0.6593 -0.2160 -0.2262
19083TIP3    H278741   5.335   0.582   3.847 -2.1455 -2.3685 -1.1476
19084TIP3   OH278742   4.801   4.351   5.966  0.6176  0.1887  0.0320
19084TIP3    H178743   4.800   4.445   5.953  1.6526  0.3265  0.8106
19084TIP3    H278744   4.727   4.333   6.024  0.4966  0.5315 -0.0159
19085TIP3   OH278745   1.039   2.742  12.889  0.4125  0.2903 -0.5462
19085TIP3    H178746   1.047   2.702  12.976  0.6741  0.3244 -0.5545
19085TIP3    H278747   1.009   2.670  12.832 -0.1726  0.3700 -0.3452
19086TIP3   OH278748   3.602   2.284  13.259 -0.2203  0.6742  0.5043
19086TIP3    H178749   3.672   2.222  13.239  0.4609  1.5655  0.0054
19086TIP3    H278750   3.523   2.231  13.267  0.0899 -0.1107 -1.2898
19087TIP3   OH278751   2.715   3.042   3.954 -0.0992  0.0792  0.2535
19087TIP3    H178752   2.793   3.039   3.898  0.2239 -2.0280  0.7469
19087TIP3    H278753   2.666   2.963   3.932 -1.1608  0.4257  1.2761
19088TIP3   OH278754   3.737   4.743   1.411 -0.1871  0.8163  0.6835
19088TIP3    H178755   3.691   4.810   1.461 -1.4615  0.0898  0.5239
19088TIP3    H278756   3.739   4.666   1.469 -0.4444  0.3992  0.1438
19089TIP3   OH278757   2.952   3.082  14.688  0.6148  0.2138  0.4852
19089TIP3    H178758   2.877   3.024  14.699  0.3408  0.8148  2.0924
19089TIP3    H278759   2.954   3.133  14.769  1.4893  1.6868 -0.4271
19090TIP3   OH278760   2.877   4.582   1.773 -0.4064  0.1158 -0.1106
19090TIP3    H178761   2.806   4.645   1.763  0.2721  0.5996 -2.7581
19090TIP3    H278762   2.947   4.631   1.818 -0.8024  0.4410  0.1550
19091TIP3   OH278763   6.359   5.436   3.150  1.0022 -0.3988  0.1689
19091TIP3    H178764   6.388   5.414   3.239  0.9199 -0.5855  0.1503
19091TIP3    H278765   6.280   5.384   3.137  0.9826 -0.3296  0.0061
19092TIP3   OH278766   5.457   1.062   3.229 -0.7488 -0.7126 -0.7330
19092TIP3    H178767   5.440   1.042   3.137 -0.5526 -1.1755 -0.6741
19092TIP3    H278768   5.399   1.004   3.277 -0.0391 -1.3009 -0.5539
19093TIP3   OH278769   1.514   4.385   4.291 -0.1057 -0.2349 -0.2734
19093TIP3    H178770   1.590   4.331   4.268  0.8068  0.4784  0.9198
19093TIP3    H278771   1.503   4.444   4.217 -1.9964 -2.8836 -2.2548
19094TIP3   OH278772   2.436   5.087  16.644 -0.6038 -0.0254 -0.0765
19094TIP3    H178773   2.480   5.021  16.698  3.8588  1.9657 -0.8319
19094TIP3    H278774   2.449   5.057  16.554  1.6176  1.7787 -0.4382
19095TIP3   OH278775   0.754   0.684   6.368  0.3563  0.5590  0.5207
19095TIP3    H178776   0.827   0.660   6.426  1.2908  2.7797  0.3943
19095TIP3    H278777   0.753   0.617   6.301  1.3819 -0.2852  1.3079
19096TIP3   OH278778   2.472   0.619  14.880  0.0534 -0.1844 -0.2136
19096TIP3    H178779   2.385   0.654  14.862 -0.0049 -0.0639  0.2791
19096TIP3    H278780   2.531   0.693  14.862  0.1387 -0.5273 -1.3956
19097TIP3   OH278781   0.198   1.859  14.880  0.4558  0.0611  0.1401
19097TIP3    H178782   0.226   1.825  14.795 -0.9332  0.9096 -0.6943
19097TIP3    H278783   0.102   1.861  14.875  0.3687  0.6514  1.5231
19098TIP3   OH278784   3.528   1.247   3.179 -0.6557  0.5114  0.0635
19098TIP3    H178785   3.532   1.338   3.207  0.2268  0.1749  1.0891
19098TIP3    H278786   3.619   1.219   3.175 -0.9108 -0.2798 -0.4044
19099TIP3   OH278787   5.493   6.855  12.819  0.4607 -0.1831  0.0917
19099TIP3    H178788   5.508   6.840  12.913 -0.0862 -0.7206  0.0993
19099TIP3    H278789   5.450   6.775  12.789  2.5823 -0.9688 -1.1055
19100TIP3   OH278790   0.355   2.360   1.091 -0.4025  0.6537 -1.2411
19100TIP3    H178791   0.300   2.383   1.166 -0.7543 -1.4914 -0.7915
19100TIP3    H278792   0.395   2.443   1.065 -1.5937  1.7503  0.2413
19101TIP3   OH278793   5.373   0.555   0.509 -0.6305 -0.3659 -0.5185
19101TIP3    H178794   5.407   0.527   0.594  1.4911  2.3883 -0.3261
19101TIP3    H278795   5.448   0.549   0.450 -1.1661  0.9574 -1.3800
19102TIP3   OH278796   1.905   5.510   4.644  0.2202 -0.1318  0.4966
19102TIP3    H178797   1.901   5.571   4.571 -0.6900 -0.3679  0.3464
19102TIP3    H278798   1.927   5.425   4.604 -1.3702 -0.4955  0.3401
19103TIP3   OH278799   2.154   1.417   0.966  0.1589 -0.2875 -0.2402
19103TIP3    H178800   2.203   1.482   1.016  1.2410 -0.4295 -1.0866
19103TIP3    H278801   2.075   1.402   1.018  0.5167  0.7079  0.6358
19104TIP3   OH278802   1.856   5.775   0.226  0.3225 -0.1586 -0.5732
19104TIP3    H178803   1.936   5.724   0.215  0.1633 -0.5121 -0.0975
19104TIP3    H278804   1.789   5.711   0.248 -0.0569  0.1593 -0.7926
19105TIP3   OH278805   1.287   5.899  11.449  0.5043 -0.0287  0.3638
19105TIP3    H178806   1.301   5.964  11.380  2.9817 -2.5106 -1.7242
19105TIP3    H278807   1.200   5.863  11.431 -0.5395  2.0278  1.0568
19106TIP3   OH278808   3.486   5.149   1.147 -0.1517  0.2846  1.1029
19106TIP3    H178809   3.503   5.225   1.201  0.0038 -0.5208  2.2159
19106TIP3    H278810   3.565   5.095   1.154  0.1388  0.4620 -0.4613
19107TIP3   OH278811   3.510   3.584  13.222 -0.4648 -0.4000 -0.3910
19107TIP3    H178812   3.576   3.536  13.171 -1.0223 -1.2143 -0.3565
19107TIP3    H278813   3.452   3.516  13.256 -0.9257  0.2589  0.1497
19108TIP3   OH278814   0.886   4.204  11.192  0.3604 -0.7967  0.0789
19108TIP3    H178815   0.887   4.262  11.116 -1.7060 -0.6791  0.0841
19108TIP3    H278816   0.827   4.247  11.254  0.8653 -1.6157  1.1523
19109TIP3   OH278817   2.717   1.608  11.822  0.5121  0.5438 -0.2087
19109TIP3    H178818   2.805   1.619  11.859  0.4176 -0.7369  0.4559
19109TIP3    H278819   2.658   1.612  11.898  0.0956  0.3137 -0.5138
19110TIP3   OH278820   3.435   4.782   4.069  0.0695 -0.6222 -0.6101
19110TIP3    H178821   3.529   4.764   4.065  0.1450 -0.0776 -2.5107
19110TIP3    H278822   3.419   4.805   4.160  1.6340 -1.4397 -0.0901
19111TIP3   OH278823   6.170   3.728  13.691 -0.2619  0.4199  0.4754
19111TIP3    H178824   6.139   3.817  13.679 -2.4910 -0.3827 -0.3386
19111TIP3    H278825   6.178   3.693  13.602 -0.9258 -0.6316  0.8022
19112TIP3   OH278826   2.535   6.178  16.316  0.4831  0.2747  0.4852
19112TIP3    H178827   2.590   6.216  16.248  1.5404 -2.7365 -0.4981
19112TIP3    H278828   2.447   6.209  16.295  0.6150 -1.1832 -2.9160
19113TIP3   OH278829   2.556   6.537   5.657  0.2062 -0.2966  0.0204
19113TIP3    H178830   2.463   6.554   5.642  0.4356  0.2063 -0.9307
19113TIP3    H278831   2.576   6.580   5.740 -0.5483 -0.9576  0.5601
19114TIP3   OH278832   4.378   6.350  14.848 -0.0787 -0.5622 -0.2914
19114TIP3    H178833   4.377   6.405  14.770 -2.4495  0.3921  0.3163
19114TIP3    H278834   4.330   6.271  14.823 -2.2030  0.3815  0.5099
19115TIP3   OH278835   0.780   0.700   5.584 -0.2825  0.1419 -0.0401
19115TIP3    H178836   0.863   0.659   5.609 -0.2913 -0.8317 -1.4752
19115TIP3    H278837   0.795   0.730   5.494 -1.8392 -1.0896 -0.7465
19116TIP3   OH278838   0.685   0.245  12.465  0.0587  0.2009  0.2860
19116TIP3    H178839   0.669   0.155  12.494 -0.0699 -0.0728 -0.5794
19116TIP3    H278840   0.645   0.248  12.377 -2.6288  1.9660  1.4403
19117TIP3   OH278841   4.836   1.297  14.284  0.1920 -0.1308  0.1359
19117TIP3    H178842   4.775   1.332  14.350 -1.3167 -0.4681 -1.0167
19117TIP3    H278843   4.917   1.281  14.332 -0.8296 -0.2799  1.8889
19118TIP3   OH278844   5.635   5.898  15.189  0.1244  0.3250  0.1532
19118TIP3    H178845   5.647   5.806  15.165 -2.2957 -0.1190  0.4173
19118TIP3    H278846   5.561   5.898  15.250  0.3945  2.4110  0.5762
19119TIP3   OH278847   0.618   3.889  15.790  0.0132  0.1028  0.2304
19119TIP3    H178848   0.526   3.872  15.811  0.2545 -0.5908  0.7662
19119TIP3    H278849   0.615   3.938  15.707 -0.7222 -4.1545 -2.5718
19120TIP3   OH278850   5.150   1.666   3.052  0.2466 -0.1028  0.4049
19120TIP3    H178851   5.186   1.683   3.139 -1.1888  0.4815  0.9141
19120TIP3    H278852   5.152   1.571   3.043 -0.4917 -0.2435  1.4918
19121TIP3   OH278853   3.515   0.854   1.097  1.0578  0.2166 -0.9706
19121TIP3    H178854   3.464   0.809   1.029 -0.3185 -0.1471  0.2430
19121TIP3    H278855   3.479   0.942   1.099  0.2362 -0.1177  0.0756
19122TIP3   OH278856   4.729   5.496   1.819  0.0522  0.1281  0.6596
19122TIP3    H178857   4.690   5.539   1.896 -0.5468  1.1009 -0.1661
19122TIP3    H278858   4.687   5.410   1.816  0.7009 -0.2619  1.8923
19123TIP3   OH278859   3.520   6.123   4.410 -0.1540  0.0575  0.4264
19123TIP3    H178860   3.539   6.029   4.413  1.3688  0.3507  0.6367
19123TIP3    H278861   3.571   6.155   4.336 -0.8287  0.6978  0.2285
19124TIP3   OH278862   4.559   1.597  12.774  0.0515 -0.3630 -0.1009
19124TIP3    H178863   4.470   1.596  12.809  0.3991  0.0846  0.8452
19124TIP3    H278864   4.605   1.530  12.825  0.6793  0.5958  0.6426
19125TIP3   OH278865   4.097   0.224  11.685  0.2421  0.9626 -0.2668
19125TIP3    H178866   4.116   0.140  11.728 -0.6613  0.6633 -0.4235
19125TIP3    H278867   4.120   0.290  11.750  0.2965  0.5643  0.1208
19126TIP3   OH278868   3.773   3.727   0.395  0.2026 -0.2589  0.5380
19126TIP3    H178869   3.765   3.668   0.320  1.3185 -0.5289  0.6200
19126TIP3    H278870   3.866   3.748   0.400  0.0679  0.1789  1.5340
19127TIP3   OH278871   4.761   2.064   1.796 -0.0584  0.2524 -0.2234
19127TIP3    H178872   4.821   2.109   1.855 -0.8389  0.2299  0.6017
19127TIP3    H278873   4.819   2.016   1.736  0.7564 -0.3764  1.0182
19128TIP3   OH278874   2.147   4.723  12.534 -0.5415  0.1589  0.0229
19128TIP3    H178875   2.107   4.637  12.522  0.5955 -0.6270  1.4367
19128TIP3    H278876   2.179   4.748  12.447  0.1034 -1.3842 -0.2119
19129TIP3   OH278877   1.566   2.223  14.718  0.1482 -0.3239 -0.4525
19129TIP3    H178878   1.649   2.175  14.717  0.3950  0.0978 -0.8633
19129TIP3    H278879   1.564   2.269  14.634 -0.6283 -0.5305 -0.5560
19130TIP3   OH278880   1.061   2.504  15.953 -0.1222 -0.2444 -0.3869
19130TIP3    H178881   0.992   2.446  15.921  0.7551 -0.1199 -2.6622
19130TIP3    H278882   1.023   2.592  15.947 -0.6196 -0.3625  0.7941
19131TIP3   OH278883   0.662   4.708  16.487  0.1540  0.2411  0.0361
19131TIP3    H178884   0.601   4.761  16.537 -2.0884 -0.8568 -1.3433
19131TIP3    H278885   0.616   4.625  16.473  1.8719 -0.5590 -1.3119
19132TIP3   OH278886   2.096   6.886  11.253  1.0801 -0.2624  0.7856
19132TIP3    H178887   2.140   6.830  11.316  1.5357  0.4931  1.1560
19132TIP3    H278888   2.057   6.956  11.305 -2.7362 -2.1603  0.7807
19133TIP3   OH278889   4.987   4.065   6.452 -0.2343 -0.5135  0.1032
19133TIP3    H178890   4.981   3.971   6.467 -0.8901 -0.4335  0.3638
19133TIP3    H278891   4.904   4.087   6.408  0.1742 -0.1600 -0.5020
19134TIP3   OH278892   5.077   0.028  15.689  0.2932 -0.0124  0.1958
19134TIP3    H178893   5.117   0.082  15.621 -1.6664  1.5294  0.1581
19134TIP3    H278894   5.038  -0.046  15.642 -1.6332  1.3889 -0.5386
19135TIP3   OH278895   3.730   3.372   3.712  0.0211 -0.3259 -0.0919
19135TIP3    H178896   3.686   3.452   3.741 -0.0492 -0.9785  1.7590
19135TIP3    H278897   3.788   3.350   3.785  2.1353 -0.4643 -1.7105
19136TIP3   OH278898   1.322   0.266   4.984  0.0611  0.5635  0.2472
19136TIP3    H178899   1.385   0.280   4.914 -1.2269  0.4260 -1.0013
19136TIP3    H278900   1.305   0.353   5.019 -0.2146  0.8144 -0.4829
19137TIP3   OH278901   1.490   6.366   5.434 -0.3014 -0.2387 -0.1957
19137TIP3    H178902   1.460   6.280   5.404 -2.3078 -0.6706  2.6178
19137TIP3    H278903   1.411   6.420   5.435  0.9529  1.7536 -2.0565
19138TIP3   OH278904   5.065   1.087  16.679 -0.0012  0.4245 -0.4254
19138TIP3    H178905   5.074   1.165  16.735  1.9531 -1.3632  1.9973
19138TIP3    H278906   5.103   1.113  16.595 -2.0580  2.9068 -0.6930
19139TIP3   OH278907   0.509   4.059  13.169  0.6017 -0.1023  0.2144
19139TIP3    H178908   0.566   4.127  13.135  2.2182 -1.0686  0.8384
19139TIP3    H278909   0.483   4.008  13.093 -0.2817  0.9369 -0.2002
19140TIP3   OH278910   3.158   4.743   0.466  0.0474 -0.3013 -0.4278
19140TIP3    H178911   3.070   4.779   0.475  0.6988  1.1596  0.4250
19140TIP3    H278912   3.147   4.649   0.481 -1.3131 -0.1092 -0.0459
19141TIP3   OH278913   2.579   0.574  11.963  0.3432 -0.4785 -0.1292
19141TIP3    H178914   2.520   0.514  12.009 -1.2065 -1.7922 -3.4781
19141TIP3    H278915   2.666   0.551  11.996 -0.5191 -2.1402  1.2188
19142TIP3   OH278916   1.453   6.765  13.786  0.0727  0.4756 -0.2480
19142TIP3    H178917   1.359   6.777  13.795  0.0128 -0.2865  0.1715
19142TIP3    H278918   1.485   6.749  13.875  0.9346  2.8735 -0.0555
19143TIP3   OH278919   0.416   0.962   1.538  0.7998 -0.2182  0.1469
19143TIP3    H178920   0.339   1.018   1.553 -0.2742 -1.7342  0.5883
19143TIP3    H278921   0.463   1.004   1.466  0.9528  2.1292  1.5017
19144TIP3   OH278922   5.495   0.294   0.346 -0.4577  0.0337 -0.6331
19144TIP3    H178923   5.556   0.281   0.273 -0.9443 -1.9902 -0.7462
19144TIP3    H278924   5.546   0.276   0.424 -0.5473 -0.3406 -0.6542
19145TIP3   OH278925   0.510   1.590  16.160 -0.0147 -0.8176  0.2627
19145TIP3    H178926   0.540   1.657  16.098 -1.3681 -1.0030 -0.6348
19145TIP3    H278927   0.480   1.638  16.236  0.2058 -0.4799  0.1384
19146TIP3   OH278928   6.256   1.491   2.791 -0.0883  0.5426 -0.2198
19146TIP3    H178929   6.230   1.492   2.883  0.0401 -1.0965 -0.1463
19146TIP3    H278930   6.190   1.436   2.748  0.0620  0.9927 -1.0549
19147TIP3   OH278931   5.116   2.841   0.819 -0.3390 -0.4935  0.2984
19147TIP3    H178932   5.070   2.878   0.743  0.1317 -0.6854 -0.0894
19147TIP3    H278933   5.077   2.884   0.894 -0.5619 -0.0230 -0.0805
19148TIP3   OH278934   3.694   4.410  16.306 -0.1507  0.0632  0.0502
19148TIP3    H178935   3.775   4.403  16.256  0.4282  0.4708  0.9021
19148TIP3    H278936   3.662   4.499  16.288  1.7758  1.4806  2.8389
19149TIP3   OH278937   6.763   6.090  15.045  0.1088  0.1826 -0.0222
19149TIP3    H178938   6.771   6.035  15.123 -0.8989  0.5199  0.3216
19149TIP3    H278939   6.669   6.096  15.029  0.2729  0.7607 -0.8100
19150TIP3   OH278940   2.815   6.791   0.467 -1.0447  0.3405 -0.2428
19150TIP3    H178941   2.778   6.851   0.403 -0.3820 -1.3028 -2.2681
19150TIP3    H278942   2.902   6.826   0.486 -1.2038  0.7770 -0.3090
19151TIP3   OH278943   0.225   4.746   4.661  0.0584 -0.6332 -0.1214
19151TIP3    H178944   0.177   4.768   4.741  1.3943  3.4630 -0.2256
19151TIP3    H278945   0.169   4.684   4.615 -1.8430 -1.3186  2.8627
19152TIP3   OH278946   4.878   6.042   2.588  0.1737  0.2383 -0.0294
19152TIP3    H178947   4.784   6.060   2.583 -0.0467 -0.2633  1.7752
19152TIP3    H278948   4.910   6.102   2.655  1.1701  0.4395 -0.6653
19153TIP3   OH278949   3.652   5.266  12.713 -0.0862 -0.1725  0.2763
19153TIP3    H178950   3.732   5.213  12.716  0.7042  1.0486  1.5433
19153TIP3    H278951   3.657   5.312  12.629  1.1149  0.7226  0.8118
19154TIP3   OH278952   0.841   4.795   1.526  0.2209  0.1324  0.3368
19154TIP3    H178953   0.748   4.817   1.537 -0.0435 -1.4172  1.7141
19154TIP3    H278954   0.877   4.800   1.615  1.1755 -0.3870 -0.0068
19155TIP3   OH278955   3.460   3.293  13.922 -0.2167 -0.6405 -0.0172
19155TIP3    H178956   3.550   3.303  13.954 -0.0059 -1.0392 -0.4816
19155TIP3    H278957   3.407   3.340  13.987  0.5354  1.9193 -1.1178
19156TIP3   OH278958   0.661   5.916  11.063  0.1467 -0.3142 -0.0364
19156TIP3    H178959   0.728   5.849  11.050  0.7319  0.2635 -0.0535
19156TIP3    H278960   0.584   5.882  11.018  0.4878 -0.8945 -0.1921
19157TIP3   OH278961   0.237   5.370   4.238 -0.2404  0.5752  0.4975
19157TIP3    H178962   0.277   5.394   4.154 -0.6173  0.5532  0.3095
19157TIP3    H278963   0.151   5.334   4.214 -0.0193 -0.2046  0.8290
19158TIP3   OH278964   1.438   3.693   0.388 -0.0788  0.3860 -0.3705
19158TIP3    H178965   1.416   3.767   0.331 -1.8655  1.2814  1.3553
19158TIP3    H278966   1.391   3.619   0.351 -1.5598  1.0523  0.0987
19159TIP3   OH278967   0.704   6.166  16.197  0.8812  0.5262 -0.1771
19159TIP3    H178968   0.766   6.112  16.245  0.7659  1.9778  1.7272
19159TIP3    H278969   0.727   6.154  16.105  0.1352 -3.6009 -0.0280
19160TIP3   OH278970   2.401   2.185   5.032 -0.0391 -0.1658 -0.3591
19160TIP3    H178971   2.463   2.123   4.992 -0.7521  0.1979 -2.1503
19160TIP3    H278972   2.321   2.134   5.044  0.3645 -0.4574  1.3348
19161TIP3   OH278973   6.396   6.490  15.860 -0.0939 -0.1526 -0.5242
19161TIP3    H178974   6.399   6.584  15.876  3.1462 -0.1094 -0.6230
19161TIP3    H278975   6.458   6.477  15.788  0.1621 -2.4296  0.0426
19162TIP3   OH278976   3.052   6.576   0.515 -0.2661 -0.1408 -0.2149
19162TIP3    H178977   3.095   6.491   0.508 -0.1666  0.0269 -1.9813
19162TIP3    H278978   3.124   6.639   0.522 -0.3412 -0.2055  1.9084
19163TIP3   OH278979   4.531   5.191   3.341  0.4063 -0.0067 -0.6173
19163TIP3    H178980   4.536   5.199   3.245 -3.1172  2.5700 -0.7891
19163TIP3    H278981   4.537   5.282   3.372 -0.0368 -0.6548  1.4706
19164TIP3   OH278982   3.452   5.847  12.831  0.0029  0.6151 -0.3438
19164TIP3    H178983   3.435   5.920  12.772  0.8153  0.8437 -0.3096
19164TIP3    H278984   3.434   5.882  12.918 -0.9071  0.3661 -0.4204
19165TIP3   OH278985   4.977   3.857   2.796 -0.5032 -0.2754  0.3103
19165TIP3    H178986   4.961   3.899   2.881  1.5613  1.2932 -0.0192
19165TIP3    H278987   4.891   3.852   2.755 -1.1536  1.3981  1.3930
19166TIP3   OH278988   6.401   3.625  14.264 -0.7589 -0.2874 -0.2777
19166TIP3    H178989   6.410   3.681  14.187  0.3445  0.2782  0.2351
19166TIP3    H278990   6.307   3.621  14.280 -1.0335 -0.6182 -1.7848
19167TIP3   OH278991   1.108   2.701   4.212 -0.0199  0.7613 -0.4001
19167TIP3    H178992   1.112   2.644   4.135  0.6228  1.0369 -0.5752
19167TIP3    H278993   1.199   2.722   4.232 -0.1216  0.0520  0.9353
19168TIP3   OH278994   1.236   3.192   6.029 -0.8975  0.5128  0.2365
19168TIP3    H178995   1.250   3.233   6.115 -0.3258  0.0259  0.3814
19168TIP3    H278996   1.205   3.103   6.050  0.8561 -0.2028 -0.0101
19169TIP3   OH278997   2.805   5.761   6.199  0.3216 -0.7641 -0.2267
19169TIP3    H178998   2.865   5.725   6.134  0.3763 -0.6403 -0.2469
19169TIP3    H278999   2.835   5.851   6.211 -0.2652 -0.4862 -0.7372
19170TIP3   OH279000   2.828   5.101   5.761  0.2398  0.3153 -0.1963
19170TIP3    H179001   2.750   5.098   5.817  0.7063  1.6708  0.5686
19170TIP3    H279002   2.809   5.041   5.689 -1.4023  0.4314  0.1191
19171TIP3   OH279003   0.117   0.008   2.517 -0.3589  0.1377 -0.0664
19171TIP3    H179004   0.132  -0.082   2.487 -1.1871  0.2699 -0.9251
19171TIP3    H279005   0.147   0.008   2.608  1.2291 -0.5561 -0.5438
19172TIP3   OH279006   1.836   1.075  13.791  0.2473 -0.2410 -0.3196
19172TIP3    H179007   1.768   1.142  13.801  1.7785  1.5956 -1.7173
19172TIP3    H279008   1.876   1.068  13.878  0.4650  1.1260 -0.2919
19173TIP3   OH279009   3.471   0.220   0.189 -0.2639  0.5097  0.0478
19173TIP3    H179010   3.449   0.155   0.255 -1.2826 -0.7365 -1.4449
19173TIP3    H279011   3.408   0.291   0.203 -0.9840 -0.0979 -0.0556
19174TIP3   OH279012   3.928   1.971   1.127 -0.1107 -0.2157  0.0367
19174TIP3    H179013   3.888   1.974   1.214 -1.3850  1.7958 -0.5388
19174TIP3    H279014   3.858   2.000   1.068  1.5372  1.2674 -1.2953
19175TIP3   OH279015   0.059   3.584  11.820 -0.2312  0.0483 -0.1429
19175TIP3    H179016  -0.012   3.562  11.881 -0.2219 -1.8118 -0.7428
19175TIP3    H279017   0.130   3.524  11.844 -1.1733 -2.8254 -3.6731
19176TIP3   OH279018   5.647   1.657  16.757  0.7325 -0.0931 -0.1852
19176TIP3    H179019   5.661   1.745  16.792 -0.1130 -0.7828  2.0327
19176TIP3    H279020   5.713   1.603  16.801  0.2731 -0.8348 -0.3833
19177TIP3   OH279021   0.861   1.558   2.677  0.6643  0.0734  0.2387
19177TIP3    H179022   0.859   1.594   2.766  4.8793 -0.6046  0.8252
19177TIP3    H279023   0.913   1.621   2.627 -2.0871  0.7286 -2.0543
19178TIP3   OH279024   2.144   1.947  10.364 -0.8977  0.1301  0.0603
19178TIP3    H179025   2.121   1.988  10.446 -1.0287  1.5551 -0.6624
19178TIP3    H279026   2.102   2.000  10.297  0.3879 -0.1277 -1.0072
19179TIP3   OH279027   3.778   4.693   3.562 -0.5803 -0.3037 -0.2180
19179TIP3    H179028   3.749   4.710   3.651 -1.8467 -1.4683 -0.3810
19179TIP3    H279029   3.813   4.777   3.532 -0.2080  0.1179  1.3314
19180TIP3   OH279030   3.144   4.444  15.934 -0.3881 -0.3229  0.3266
19180TIP3    H179031   3.104   4.363  15.900  0.2092 -0.3557 -0.3097
19180TIP3    H279032   3.135   4.436  16.029 -0.9492 -0.8175  0.2435
19181TIP3   OH279033   0.165   4.116  15.704 -0.1224  0.2144  0.2512
19181TIP3    H179034   0.202   4.150  15.786  1.2532 -1.3221  0.3426
19181TIP3    H279035   0.071   4.131  15.712  0.2260  2.2186  1.0576
19182TIP3   OH279036   5.840   4.381  14.777 -0.4550 -0.0371  0.2080
19182TIP3    H179037   5.930   4.398  14.748 -1.1936  2.6052 -0.9182
19182TIP3    H279038   5.820   4.294  14.743  1.6396 -0.6747  0.4427
19183TIP3   OH279039   0.602   1.630  12.817 -0.2891  0.7981  0.2203
19183TIP3    H179040   0.532   1.693  12.834  0.2090  1.0361  1.5050
19183TIP3    H279041   0.638   1.609  12.903 -0.4773 -1.3191 -0.1489
19184TIP3   OH279042   4.234   5.933  16.136  0.0802  0.6425  0.1316
19184TIP3    H179043   4.259   5.840  16.135  1.5027  0.9422  2.1533
19184TIP3    H279044   4.156   5.937  16.082  0.9622 -1.4409 -1.4293
19185TIP3   OH279045   4.790   1.192   0.244  0.0004 -0.3356  0.8775
19185TIP3    H179046   4.783   1.286   0.224 -2.4655 -0.6565 -0.0341
19185TIP3    H279047   4.722   1.176   0.308 -0.8358 -1.8118 -0.3164
19186TIP3   OH279048   3.971   6.132   1.215  0.3974  0.7619 -0.1798
19186TIP3    H179049   3.906   6.063   1.220 -0.5924  1.7070  0.7024
19186TIP3    H279050   3.925   6.206   1.175  1.8953  0.4536 -2.7209
19187TIP3   OH279051   1.229   6.490   5.573  0.6143 -0.2341 -0.2814
19187TIP3    H179052   1.156   6.519   5.519  0.2711  0.9592  0.7826
19187TIP3    H279053   1.209   6.398   5.592  0.9392 -0.8045 -2.4325
19188TIP3   OH279054   3.157   4.920   3.574 -0.0070  0.1558  0.3560
19188TIP3    H179055   3.200   4.884   3.496 -0.0354  0.6964  0.0844
19188TIP3    H279056   3.223   4.914   3.643 -0.8161 -2.7401  0.9902
19189TIP3   OH279057   2.879   2.491   0.401  0.0571 -0.8487  0.3644
19189TIP3    H179058   2.821   2.477   0.326 -1.0092  0.5866  0.8668
19189TIP3    H279059   2.966   2.467   0.369  0.1333  2.2199 -2.2568
19190TIP3   OH279060   1.916   6.180  14.079  0.0911  0.0936 -0.1719
19190TIP3    H179061   1.865   6.103  14.106 -0.1117  0.2578 -0.0866
19190TIP3    H279062   2.006   6.158  14.103 -0.1429  0.4141  1.0429
19191TIP3   OH279063   3.498   3.056  13.722  0.3694  0.2457 -0.4234
19191TIP3    H179064   3.581   3.009  13.724 -0.2332 -0.9857 -2.3844
19191TIP3    H279065   3.515   3.132  13.666 -0.2871 -1.0820 -2.5287
19192TIP3   OH279066   5.283   4.270  12.140 -0.1350 -0.3846 -0.4607
19192TIP3    H179067   5.344   4.217  12.089  0.1685 -2.1413  1.5782
19192TIP3    H279068   5.321   4.272  12.228 -1.9496  0.2784  0.3550
19193TIP3   OH279069   2.912   1.061   2.707  0.3352  0.0507  0.2634
19193TIP3    H179070   2.869   0.975   2.704  2.8427 -1.3157  0.8473
19193TIP3    H279071   2.973   1.060   2.634 -0.0752  1.6749 -0.1493
19194TIP3   OH279072   4.949   5.050   0.898  0.2485  0.5116 -0.4868
19194TIP3    H179073   4.899   5.129   0.915 -0.4844 -0.4456  2.4161
19194TIP3    H279074   4.950   5.004   0.982  0.5946 -2.5922 -2.0456
19195TIP3   OH279075   2.634   1.478   4.796  0.5673  0.5950 -0.0573
19195TIP3    H179076   2.572   1.423   4.844  1.0666 -0.1491 -0.2302
19195TIP3    H279077   2.589   1.561   4.783 -0.9187 -0.3474 -1.3386
19196TIP3   OH279078   1.639   1.087   4.646 -0.5172  0.0651 -0.6053
19196TIP3    H179079   1.698   1.127   4.582  2.9194 -2.1552  0.8384
19196TIP3    H279080   1.609   1.006   4.603 -0.1863 -0.2028 -0.3415
19197TIP3   OH279081   1.333   3.040   0.066  0.1450 -0.5373  0.2469
19197TIP3    H179082   1.266   3.109   0.072  0.8638  0.0608  1.8507
19197TIP3    H279083   1.285   2.963   0.035 -1.3548 -0.1915  1.6193
19198TIP3   OH279084   1.402   3.027  13.527 -0.2965 -0.7578  1.2300
19198TIP3    H179085   1.489   3.009  13.491  0.0950  1.3556  0.9776
19198TIP3    H279086   1.416   3.100  13.588 -1.9565 -0.0638  0.8314
19199TIP3   OH279087   2.566   4.260   4.051 -0.9819 -0.4326  0.1892
19199TIP3    H179088   2.595   4.321   3.983 -0.7757  1.0603  1.5649
19199TIP3    H279089   2.577   4.308   4.133 -2.4666 -1.6976  1.1861
19200TIP3   OH279090   5.349   6.364   2.048 -0.0556  0.4622 -0.1673
19200TIP3    H179091   5.338   6.458   2.034 -0.1537  0.6364  1.0085
19200TIP3    H279092   5.293   6.344   2.122 -0.0099 -0.5290 -0.3880
19201TIP3   OH279093   3.150   5.309   5.199  0.3748  0.1037 -0.2073
19201TIP3    H179094   3.060   5.330   5.223  1.0062  0.2373  2.2711
19201TIP3    H279095   3.142   5.235   5.140 -1.3792  0.6140 -0.6850
19202TIP3   OH279096   2.185   2.097   3.378 -0.5154 -0.3931 -0.0873
19202TIP3    H179097   2.251   2.031   3.399 -1.2688 -0.9744  0.4895
19202TIP3    H279098   2.112   2.048   3.340 -0.7657  0.2027 -0.3990
19203TIP3   OH279099   2.452   3.762   4.835 -0.7136  0.1791  0.0758
19203TIP3    H179100   2.373   3.730   4.792 -0.6110  0.2481 -0.1660
19203TIP3    H279101   2.460   3.708   4.913 -0.0724 -0.9778 -0.7503
19204TIP3   OH279102   4.131   6.175  10.884 -0.4409  0.3724  0.3567
19204TIP3    H179103   4.148   6.128  10.802 -1.4990  3.2492 -1.6935
19204TIP3    H279104   4.047   6.218  10.870 -0.1436  1.8333  2.5370
19205TIP3   OH279105   4.732   4.139  15.305  0.0285 -0.4205 -0.0847
19205TIP3    H179106   4.808   4.083  15.321  0.3442 -0.1417 -0.5860
19205TIP3    H279107   4.682   4.135  15.387  0.7512 -0.3399  0.3713
19206TIP3   OH279108   1.836   2.735   1.309  0.4579  0.4919 -0.5229
19206TIP3    H179109   1.876   2.794   1.246 -1.1408  1.1422 -0.9872
19206TIP3    H279110   1.789   2.793   1.370 -1.1533 -0.2663 -0.9924
19207TIP3   OH279111   0.021   2.097  16.077 -0.2252  0.2186  0.5097
19207TIP3    H179112   0.018   2.090  16.173 -2.7485  2.3653  0.7134
19207TIP3    H279113   0.093   2.158  16.060 -0.8588  1.1940  1.2067
19208TIP3   OH279114   1.478   5.048   3.021 -0.3205 -0.0366  0.0929
19208TIP3    H179115   1.525   4.977   2.976 -0.4385  0.8982 -1.6078
19208TIP3    H279116   1.534   5.070   3.095  1.6134  0.5068 -1.4228
19209TIP3   OH279117   0.854   5.225  16.906 -0.5200  0.2063  0.2585
19209TIP3    H179118   0.821   5.151  16.957  0.7414 -0.9671 -0.5453
19209TIP3    H279119   0.867   5.295  16.970 -2.1371 -0.0957  0.9724
19210TIP3   OH279120   6.435   2.701   5.763 -0.3498  0.3487  0.5066
19210TIP3    H179121   6.407   2.699   5.854 -0.5729 -2.1901  0.4545
19210TIP3    H279122   6.382   2.634   5.719  1.3198 -0.1068 -0.9722
19211TIP3   OH279123   1.396   1.001   1.164 -0.1822  0.2332  0.0832
19211TIP3    H179124   1.418   1.091   1.186 -1.7216  0.9157 -1.0259
19211TIP3    H279125   1.383   0.958   1.249 -0.8679  1.4391  0.6076
19212TIP3   OH279126   6.619   3.381  15.578  0.2142  0.7241 -0.2915
19212TIP3    H179127   6.715   3.379  15.575  0.2949 -0.5120  1.4295
19212TIP3    H279128   6.592   3.300  15.535 -0.0182  0.7088 -0.1194
19213TIP3   OH279129   2.736   5.460  13.512 -0.0306  0.2355 -0.1514
19213TIP3    H179130   2.688   5.441  13.592 -0.6377  0.3017 -0.4920
19213TIP3    H279131   2.763   5.375  13.479  2.6209  0.3244  1.5356
19214TIP3   OH279132   2.488   0.607  11.042 -0.2248 -0.2132  0.1926
19214TIP3    H179133   2.579   0.636  11.033 -0.4354  0.3012 -0.3419
19214TIP3    H279134   2.479   0.535  10.979 -0.2889 -0.0105 -0.0320
19215TIP3   OH279135   2.391   6.652  14.418 -0.4864  0.5558  0.8876
19215TIP3    H179136   2.432   6.648  14.504  1.8598 -0.0899 -0.1629
19215TIP3    H279137   2.356   6.741  14.412 -2.4087  0.0528  3.1512
19216TIP3   OH279138   2.618   1.936   6.063 -0.0600 -0.3877 -0.0540
19216TIP3    H179139   2.596   1.842   6.062  0.5735 -0.5421 -0.0582
19216TIP3    H279140   2.641   1.953   6.155  1.9602 -0.7667 -0.4359
19217TIP3   OH279141   1.804   3.549   4.718  0.2812  0.6969  0.2047
19217TIP3    H179142   1.754   3.534   4.637 -2.3266 -1.9148  2.1061
19217TIP3    H279143   1.747   3.604   4.772  0.5210 -0.2740  1.4852
19218TIP3   OH279144   0.942   3.832   3.856 -0.0907 -0.0407  0.4092
19218TIP3    H179145   0.938   3.737   3.853 -2.0408  0.0135 -0.2173
19218TIP3    H279146   0.965   3.857   3.766 -1.3984  0.0961  0.0909
19219TIP3   OH279147   0.835   6.153  14.160  0.1695  0.4007  0.0187
19219TIP3    H179148   0.814   6.247  14.153  0.1914  0.3146 -1.2829
19219TIP3    H279149   0.845   6.123  14.070  0.9379 -0.6963  0.4468
19220TIP3   OH279150   5.479   3.428  13.370  0.0695 -0.1354 -0.3032
19220TIP3    H179151   5.487   3.340  13.332  0.9555  1.3421 -4.0272
19220TIP3    H279152   5.564   3.444  13.411 -0.0218 -0.9296  0.2046
19221TIP3   OH279153   1.138   0.444   2.547  0.1799 -0.0898 -0.3627
19221TIP3    H179154   1.070   0.482   2.603  0.3972 -1.6719  1.0901
19221TIP3    H279155   1.096   0.433   2.462 -0.8815  0.4111  0.0779
19222TIP3   OH279156   1.617   4.611   0.022  0.2162  0.0774  0.0774
19222TIP3    H179157   1.675   4.640  -0.048 -0.5182  0.2441 -0.4763
19222TIP3    H279158   1.536   4.586  -0.023  0.7403 -2.7693  0.4958
19223TIP3   OH279159   1.767   3.937   0.418  0.0902  0.0651  0.3736
19223TIP3    H179160   1.815   3.871   0.369 -0.9476 -0.7819  0.4620
19223TIP3    H279161   1.738   4.000   0.351 -0.6081 -0.6397 -0.0068
19224TIP3   OH279162   6.545   2.944   0.064 -0.7615 -0.1535 -0.7290
19224TIP3    H179163   6.535   3.038   0.077  0.8874 -0.3472  3.1028
19224TIP3    H279164   6.461   2.907   0.089 -1.0904  0.2231 -1.2630
19225TIP3   OH279165   4.223   3.019  16.425 -0.4673 -0.0745 -0.0486
19225TIP3    H179166   4.163   3.017  16.351 -0.6892 -0.5437  0.1372
19225TIP3    H279167   4.166   3.011  16.502 -0.2672  0.7338  0.1919
19226TIP3   OH279168   5.874   3.629  15.830  0.5505 -0.4101  0.2003
19226TIP3    H179169   5.873   3.647  15.736  0.9212 -1.2934  0.0173
19226TIP3    H279170   5.948   3.570  15.843  1.8342  1.3821  1.3917
19227TIP3   OH279171   3.132   0.841  12.845 -0.4265  0.5778 -0.1277
19227TIP3    H179172   3.098   0.777  12.908 -0.4069  1.6726  1.0340
19227TIP3    H279173   3.103   0.926  12.879 -2.9403  1.1200 -3.1002
19228TIP3   OH279174   3.519   1.633   1.970 -0.1627 -0.4623 -0.2477
19228TIP3    H179175   3.562   1.708   2.009  0.8367  0.1372 -2.3782
19228TIP3    H279176   3.515   1.653   1.877 -1.3320 -2.3502 -0.6611
19229TIP3   OH279177   2.424   1.866   1.033  0.2089 -0.3401 -0.1532
19229TIP3    H179178   2.450   1.861   1.125  0.7064  1.8926 -0.1267
19229TIP3    H279179   2.477   1.937   0.997 -0.3493 -0.8352 -2.0543
19230TIP3   OH279180   6.885   6.272  14.727  0.5173 -0.5300 -0.4022
19230TIP3    H179181   6.798   6.285  14.689  0.1439 -1.0333  0.2734
19230TIP3    H279182   6.939   6.341  14.687 -0.4116  0.3841 -0.1074
19231TIP3   OH279183   0.432   1.097   0.313  0.5199 -0.5199 -0.2646
19231TIP3    H179184   0.426   1.041   0.390 -0.6531 -2.0141 -1.3631
19231TIP3    H279185   0.521   1.131   0.314  0.4846 -0.3575  1.8133
19232TIP3   OH279186   3.575   5.627  15.661  0.4837 -0.0461  0.1828
19232TIP3    H179187   3.566   5.641  15.566  1.0655 -0.2055  0.0998
19232TIP3    H279188   3.659   5.583  15.670 -0.7011 -2.4119  0.5324
19233TIP3   OH279189   4.047   4.104  13.287 -0.2236  0.4700  0.0674
19233TIP3    H179190   4.020   4.029  13.234 -0.1895  0.5968 -0.1324
19233TIP3    H279191   3.987   4.104  13.362 -0.6387  0.6253 -0.2647
19234TIP3   OH279192   0.642   6.134   4.540  0.2946 -0.1361  0.7728
19234TIP3    H179193   0.629   6.046   4.505  1.5337  0.2250 -0.7118
19234TIP3    H279194   0.663   6.121   4.633 -0.9692 -1.2708  0.9254
19235TIP3   OH279195   4.040   0.361  10.479 -0.1589  0.6170 -0.1147
19235TIP3    H179196   4.113   0.298  10.479 -0.1739  0.5358  1.6957
19235TIP3    H279197   4.006   0.358  10.390  0.6766 -0.9708 -0.4212
19236TIP3   OH279198   3.989   2.243  10.933 -0.3427  0.1848 -0.4792
19236TIP3    H179199   3.947   2.157  10.928  0.8930 -0.5792  1.1696
19236TIP3    H279200   4.039   2.249  10.851 -2.4461  0.5011 -1.7992
19237TIP3   OH279201   0.510   5.301   1.198 -0.3931  0.0208  0.6025
19237TIP3    H179202   0.530   5.239   1.128  2.4528 -1.3889  2.4655
19237TIP3    H279203   0.524   5.387   1.158  0.5248 -0.7174 -0.7644
19238TIP3   OH279204   6.064   4.700  15.352 -0.4661  0.2574 -0.2913
19238TIP3    H179205   6.062   4.607  15.329  2.3205 -0.0416  0.3448
19238TIP3    H279206   5.977   4.718  15.389 -0.9950 -2.1226 -0.2501
19239TIP3   OH279207   0.911   0.728   4.769  0.2394  0.1543  0.0478
19239TIP3    H179208   0.883   0.659   4.829 -1.5376  0.8584  0.1009
19239TIP3    H279209   0.956   0.791   4.825 -0.2943  0.1993  0.4375
19240TIP3   OH279210   5.876   0.343  14.622  0.4018 -0.5981 -0.5369
19240TIP3    H179211   5.863   0.428  14.580  0.2584 -0.6188 -0.5336
19240TIP3    H279212   5.935   0.296  14.562  0.5560 -0.4640 -0.4933
19241TIP3   OH279213   3.726   2.313   1.273  0.1010 -0.0235  0.0450
19241TIP3    H179214   3.646   2.266   1.247  0.9689 -0.8287 -1.2444
19241TIP3    H279215   3.745   2.280   1.361 -0.8257 -0.0199  0.2636
19242TIP3   OH279216   0.427   5.796  13.659  0.1952  0.5372  0.1728
19242TIP3    H179217   0.386   5.758  13.582 -0.9913  1.3260  0.3885
19242TIP3    H279218   0.496   5.852  13.624  1.4971 -1.1951 -0.1711
19243TIP3   OH279219   2.883   0.747   4.335  0.4441  0.0506  0.2316
19243TIP3    H179220   2.893   0.820   4.274 -0.1872  0.6123  0.7785
19243TIP3    H279221   2.801   0.765   4.381  0.9546 -0.2969  1.3305
19244TIP3   OH279222   6.580   5.981   2.136  0.2676 -0.6862  0.5373
19244TIP3    H179223   6.530   5.901   2.148 -0.0194 -0.5280  0.4171
19244TIP3    H279224   6.623   5.996   2.220 -0.4957 -0.4134  0.8869
19245TIP3   OH279225   6.467   1.817  16.651  0.2124 -0.5778  0.0438
19245TIP3    H179226   6.449   1.794  16.742 -1.6200  1.4862  0.2963
19245TIP3    H279227   6.424   1.749  16.600 -2.5814  0.5094  0.7590
19246TIP3   OH279228   4.645   2.452   1.878 -0.2344  0.1219 -0.1707
19246TIP3    H179229   4.725   2.454   1.825  1.4443 -2.1287  2.0247
19246TIP3    H279230   4.593   2.381   1.841 -0.5003  0.5326 -0.6040
19247TIP3   OH279231   5.732   4.687   4.580  0.3300  0.3619 -0.0599
19247TIP3    H179232   5.805   4.665   4.638  0.5118  1.8415  0.2971
19247TIP3    H279233   5.657   4.694   4.639  0.2591  0.5826 -0.1759
19248TIP3   OH279234   3.129   2.236  13.563  0.2746 -0.3994 -0.2410
19248TIP3    H179235   3.052   2.274  13.606 -0.2347 -1.5968 -0.0421
19248TIP3    H279236   3.193   2.224  13.633  1.4111  2.2947 -0.6954
19249TIP3   OH279237   6.426   4.504  10.977  0.2393  0.5191  0.2838
19249TIP3    H179238   6.387   4.522  11.063 -0.1124  1.9907 -0.1648
19249TIP3    H279239   6.485   4.430  10.993  1.0446  1.4660  2.0405
19250TIP3   OH279240   3.433   2.654   5.381  0.0358  0.0104 -0.3548
19250TIP3    H179241   3.370   2.585   5.363  0.4608 -0.2800 -0.7695
19250TIP3    H279242   3.514   2.608   5.402 -0.1287  0.3627  1.1538
19251TIP3   OH279243   6.182   1.804   3.958  0.4542 -0.1553  0.5375
19251TIP3    H179244   6.165   1.871   4.024 -2.7991 -0.8227  0.5630
19251TIP3    H279245   6.199   1.725   4.009 -0.3343 -0.2934  0.6094
19252TIP3   OH279246   6.399   3.408  13.918  0.0193  0.4528  0.3003
19252TIP3    H179247   6.478   3.456  13.943 -0.2917  1.5843 -0.7974
19252TIP3    H279248   6.415   3.318  13.946  0.5895  1.1806  2.4994
19253TIP3   OH279249   5.040   1.997   4.410 -0.8387  0.3987 -0.2489
19253TIP3    H179250   5.020   2.058   4.339  1.2293  1.0643 -0.3133
19253TIP3    H279251   5.020   1.910   4.374 -1.4952  0.8513 -1.0055
19254TIP3   OH279252   1.283   3.625  10.990 -0.3169  0.1586 -0.1698
19254TIP3    H179253   1.317   3.648  10.903  0.2674  0.9189  0.2416
19254TIP3    H279254   1.358   3.587  11.035 -0.2047  1.1260  0.4875
19255TIP3   OH279255   2.861   6.412   1.400  0.1120  0.1874 -0.5557
19255TIP3    H179256   2.856   6.394   1.306  0.8107 -1.0545 -0.3809
19255TIP3    H279257   2.783   6.369   1.436  0.9293 -1.1912 -0.3400
19256TIP3   OH279258   3.988   4.949   3.660 -0.6150  0.8596  0.5060
19256TIP3    H179259   4.047   4.976   3.730 -0.1844  2.4874 -0.4464
19256TIP3    H279260   3.992   4.853   3.662  0.3162  0.8944  1.9043
19257TIP3   OH279261   3.039   1.335  14.520 -0.3270 -0.5299 -0.3561
19257TIP3    H179262   3.118   1.328  14.572 -1.0828  2.3815  1.3673
19257TIP3    H279263   3.006   1.245  14.513  1.2150 -1.3336  1.9380
19258TIP3   OH279264   3.216   0.286   0.876 -0.1214 -0.2431 -0.0419
19258TIP3    H179265   3.212   0.241   0.960 -0.5484  1.5796  0.9580
19258TIP3    H279266   3.309   0.282   0.851  0.4058  0.9829  1.5671
19259TIP3   OH279267   0.340   3.351  12.710 -0.0530  0.4172  0.2419
19259TIP3    H179268   0.380   3.431  12.676 -0.5138  0.5948  0.1208
19259TIP3    H279269   0.380   3.281  12.658  1.6507  0.3987  1.5001
19260TIP3   OH279270   3.026   5.924   3.997  0.4817  0.5504 -0.3503
19260TIP3    H179271   3.103   5.962   3.957 -1.2243  4.0641 -0.6924
19260TIP3    H279272   2.958   5.931   3.930 -0.9381  0.7667  1.0511
19261TIP3   OH279273   4.330   2.412   0.182 -0.5142 -0.4365 -0.3248
19261TIP3    H179274   4.401   2.444   0.127  0.7089  0.1624  1.5164
19261TIP3    H279275   4.297   2.490   0.226  0.0949 -1.1631  1.4987
19262TIP3   OH279276   5.337   2.515  14.140  0.4479  0.2206 -0.1050
19262TIP3    H179277   5.248   2.493  14.168  1.0218 -0.8222  1.0284
19262TIP3    H279278   5.351   2.604  14.172 -0.9895  1.3872 -2.4228
19263TIP3   OH279279   6.017   2.967   3.315  0.2878 -0.1001  0.0821
19263TIP3    H179280   5.966   2.890   3.290 -0.7560  0.6003 -0.0145
19263TIP3    H279281   6.028   2.958   3.410  0.4609 -0.5383  0.0220
19264TIP3   OH279282   1.153   2.594  14.627 -0.5834 -0.1245 -0.5317
19264TIP3    H179283   1.063   2.622  14.611 -0.6558 -0.0515 -0.0112
19264TIP3    H279284   1.181   2.554  14.545 -1.3524 -0.8390 -0.4595
19265TIP3   OH279285   6.211   3.702   5.051  0.1491 -0.1870 -0.4678
19265TIP3    H179286   6.264   3.711   4.973  0.4059  0.9837 -0.1676
19265TIP3    H279287   6.269   3.662   5.116  0.2549 -0.1650 -0.5503
19266TIP3   OH279288   6.762   2.199   5.476 -0.2196  0.5317  0.2264
19266TIP3    H179289   6.770   2.216   5.569  1.0821 -0.8325  0.3935
19266TIP3    H279290   6.725   2.280   5.440  0.7499  1.6639  1.6748
19267TIP3   OH279291   6.719   0.930  14.936 -0.4208  0.4145 -0.3650
19267TIP3    H179292   6.733   0.874  14.859 -0.6392  2.2703 -1.8270
19267TIP3    H279293   6.757   0.880  15.008 -0.8162 -1.7048 -1.5343
19268TIP3   OH279294   2.992   1.935  12.055 -0.3949 -0.2118  0.3881
19268TIP3    H179295   2.962   1.943  11.964 -0.0505 -0.6267  0.2319
19268TIP3    H279296   2.936   1.995  12.104  0.1488  0.8715 -0.2699
19269TIP3   OH279297   5.784   0.565   5.497  0.0038 -0.2079  0.5940
19269TIP3    H179298   5.813   0.487   5.545 -3.2853 -1.1627  1.3271
19269TIP3    H279299   5.766   0.629   5.566 -1.5714 -0.4362  0.4440
19270TIP3   OH279300   2.243   0.936  10.694  0.5246  0.7273  0.1073
19270TIP3    H179301   2.273   0.920  10.604 -0.2335  0.2466 -0.0674
19270TIP3    H279302   2.161   0.984  10.683 -0.7662 -1.3059  0.4683
19271TIP3   OH279303   6.400   3.465  12.946  0.1508  0.9155  0.8359
19271TIP3    H179304   6.435   3.534  13.002 -0.0367  0.2587  1.7750
19271TIP3    H279305   6.478   3.425  12.907  0.4713 -0.1855  2.4988
19272TIP3   OH279306   1.791   2.115  16.315  0.1643 -0.5703 -0.2773
19272TIP3    H179307   1.786   2.023  16.289  0.6528 -0.0254 -2.4746
19272TIP3    H279308   1.840   2.158  16.245 -0.4586  1.4732  0.4515
19273TIP3   OH279309   0.397   1.431  15.016 -0.4854  0.7345 -0.1457
19273TIP3    H179310   0.380   1.525  15.021 -0.0388  0.7789  0.5799
19273TIP3    H279311   0.465   1.415  15.081  1.3543  0.3427 -2.0615
19274TIP3   OH279312   2.087   4.719   4.302 -0.1590 -0.0262 -0.4691
19274TIP3    H179313   2.139   4.799   4.296 -0.4525  0.0942 -1.8675
19274TIP3    H279314   2.111   4.669   4.223 -0.6311 -0.9059 -0.0737
19275TIP3   OH279315   1.452   6.251   3.376  0.0246  0.7432 -0.2635
19275TIP3    H179316   1.391   6.247   3.301 -0.5463 -0.4107  0.2283
19275TIP3    H279317   1.458   6.344   3.398 -0.4179  1.0171 -1.2466
19276TIP3   OH279318   6.075   0.524  11.751 -0.1935 -0.8386 -0.2984
19276TIP3    H179319   6.125   0.571  11.818 -1.3965  1.3997 -0.8823
19276TIP3    H279320   6.097   0.568  11.669 -0.3996 -2.1372 -1.0717
19277TIP3   OH279321   5.415   3.498   0.211 -0.6656  0.1776 -0.6356
19277TIP3    H179322   5.491   3.473   0.264 -0.5831 -0.2607 -0.9516
19277TIP3    H279323   5.439   3.582   0.172 -0.4424  0.1620 -0.5330
19278TIP3   OH279324   3.819   0.542   0.158 -0.0753  0.0555 -0.2785
19278TIP3    H179325   3.766   0.565   0.082 -2.2061 -0.6073  0.9449
19278TIP3    H279326   3.874   0.619   0.173 -1.3197  1.1285 -1.0636
19279TIP3   OH279327   1.882   6.006  15.574  0.2847 -0.5583  0.6831
19279TIP3    H179328   1.820   5.940  15.543  0.8469 -0.6670 -0.2293
19279TIP3    H279329   1.842   6.090  15.553 -0.7287 -0.5524  2.4093
19280TIP3   OH279330   6.751   2.074  12.926  0.1802  0.2000  1.0326
19280TIP3    H179331   6.672   2.082  12.979  1.1896  0.1283  2.6121
19280TIP3    H279332   6.796   1.997  12.961 -0.3681 -1.5129 -1.7162
19281TIP3   OH279333   6.214   5.794   4.085  0.2612 -0.2442 -0.0245
19281TIP3    H179334   6.284   5.750   4.132  0.0749  1.7946  2.3771
19281TIP3    H279335   6.206   5.879   4.128 -2.2391  0.4431 -1.6241
19282TIP3   OH279336   2.120   5.755  12.266  0.1635 -0.4657  0.2429
19282TIP3    H179337   2.195   5.744  12.325 -1.2174  1.3924  2.5003
19282TIP3    H279338   2.125   5.846  12.238 -0.7491 -0.5864 -0.3311
19283TIP3   OH279339   3.669   2.646   5.154  0.0589  0.4590  0.3990
19283TIP3    H179340   3.636   2.556   5.151 -0.3068  0.6005  0.1660
19283TIP3    H279341   3.640   2.685   5.072  2.0029  0.1789 -0.4717
19284TIP3   OH279342   5.073   0.260   0.330  0.5136  0.5220  0.8285
19284TIP3    H179343   5.144   0.235   0.269  0.3778 -0.8165  1.1997
19284TIP3    H279344   5.024   0.327   0.282  1.1482  0.3886 -0.0445
19285TIP3   OH279345   0.261   6.368   0.191 -0.3196  0.0552 -0.1372
19285TIP3    H179346   0.255   6.373   0.095  0.8454  0.1709 -0.2274
19285TIP3    H279347   0.212   6.289   0.214  1.5296 -1.4641 -1.0992
19286TIP3   OH279348   1.577   6.688   9.962 -0.2041 -0.8186 -0.2015
19286TIP3    H179349   1.512   6.638  10.013  0.6813 -0.2359  1.5783
19286TIP3    H279350   1.524   6.746   9.908 -1.2109 -0.3834  1.1832
19287TIP3   OH279351   6.608   0.103  11.438 -0.8142 -0.0919 -0.0961
19287TIP3    H179352   6.680   0.111  11.376 -0.2896  0.5602  0.5806
19287TIP3    H279353   6.550   0.177  11.417 -1.9069 -1.2569 -1.3900
19288TIP3   OH279354   5.068   6.858   0.166  0.6603  0.3231 -0.1097
19288TIP3    H179355   4.973   6.873   0.170  0.4830 -0.5968 -0.7132
19288TIP3    H279356   5.098   6.913   0.093  0.5634  0.4771 -0.0340
19289TIP3   OH279357   1.512   1.563  10.363 -0.1910  0.3113  0.0348
19289TIP3    H179358   1.491   1.645  10.408 -0.9358 -0.2879  0.8048
19289TIP3    H279359   1.580   1.587  10.300 -1.9419  1.9994 -1.3549
19290TIP3   OH279360   4.716   6.252  11.590 -0.3584 -0.4353  0.2046
19290TIP3    H179361   4.793   6.298  11.625 -0.8082  2.3327 -2.0526
19290TIP3    H279362   4.720   6.165  11.630  2.5873  0.3754  2.0250
19291TIP3   OH279363   2.725   2.284  11.067  0.0980 -0.0417  0.4104
19291TIP3    H179364   2.785   2.210  11.059  1.8120  1.2771  0.5529
19291TIP3    H279365   2.676   2.284  10.984 -0.2541 -1.5511  0.5827
19292TIP3   OH279366   5.833   0.594  11.890 -0.0897 -0.0123  0.0815
19292TIP3    H179367   5.849   0.584  11.984 -0.7476 -1.3105  0.0800
19292TIP3    H279368   5.911   0.558  11.848  0.3781  0.9323  0.1192
19293TIP3   OH279369   0.440   2.252   4.447  0.0200 -0.8170 -0.4334
19293TIP3    H179370   0.432   2.300   4.365  0.3231  0.1867  0.1095
19293TIP3    H279371   0.402   2.311   4.513  1.3540 -0.8644  0.4065
19294TIP3   OH279372   2.376   2.703   3.758 -0.2371  0.5996 -0.1928
19294TIP3    H179373   2.344   2.746   3.678  0.2180 -1.4419 -1.5279
19294TIP3    H279374   2.340   2.756   3.829 -2.3673  1.3175 -1.7104
19295TIP3   OH279375   4.448   2.131  14.669  0.9494 -0.5707  0.6646
19295TIP3    H179376   4.374   2.171  14.714  0.2005 -2.0299  0.7996
19295TIP3    H279377   4.410   2.093  14.590  1.1131 -2.9919  1.6536
19296TIP3   OH279378   1.626   2.628  13.141 -0.2547 -0.2272  0.7652
19296TIP3    H179379   1.699   2.566  13.150 -0.4146 -0.5242  0.0831
19296TIP3    H279380   1.598   2.619  13.050 -2.9186 -2.1514  1.6482
19297TIP3   OH279381   0.798   2.537  12.251 -0.5730 -0.0388 -0.8201
19297TIP3    H179382   0.754   2.474  12.194 -1.8742 -0.3116  0.4173
19297TIP3    H279383   0.767   2.515  12.339  1.3069  0.4197  0.0042
19298TIP3   OH279384   6.824   2.836   6.761 -0.1502  0.2351 -0.3629
19298TIP3    H179385   6.798   2.831   6.669 -1.7214  1.0546  0.0058
19298TIP3    H279386   6.866   2.752   6.778  0.9786  0.4033 -2.0416
19299TIP3   OH279387   2.473   0.698  12.462 -0.1167  0.0413  0.4712
19299TIP3    H179388   2.413   0.650  12.519 -0.3062 -0.6727 -0.3117
19299TIP3    H279389   2.560   0.663  12.483  0.0118  0.8586  1.3867
19300TIP3   OH279390   4.029   3.727  13.386  0.5086  0.1663  0.4480
19300TIP3    H179391   3.984   3.783  13.448 -0.4460  0.0833 -0.1561
19300TIP3    H279392   3.993   3.751  13.301  1.5208  0.0133 -0.0408
19301TIP3   OH279393   0.150   4.477  15.839  0.2499  0.5643  0.2046
19301TIP3    H179394   0.146   4.533  15.761 -0.2690  1.2678  0.7312
19301TIP3    H279395   0.198   4.529  15.904 -0.2671  0.4102  0.7106
19302TIP3   OH279396   4.874   0.663   1.886  0.5041 -0.5632  0.0375
19302TIP3    H179397   4.913   0.717   1.955 -0.2562  1.1593 -0.8236
19302TIP3    H279398   4.828   0.594   1.933  2.5044 -1.2256  1.1469
19303TIP3   OH279399   4.585   0.491  11.270  0.6156 -0.3562 -0.1502
19303TIP3    H179400   4.656   0.533  11.318  1.2199  1.9428 -2.7546
19303TIP3    H279401   4.628   0.448  11.196 -0.4981 -1.1752 -0.3540
19304TIP3   OH279402   1.461   0.121   4.324  1.1339  0.0406 -0.1013
19304TIP3    H179403   1.390   0.092   4.267  1.1201  0.8705 -0.5166
19304TIP3    H279404   1.493   0.040   4.365 -1.7575 -0.1056  2.1314
19305TIP3   OH279405   6.088   3.976  13.524 -0.1693 -0.3837  0.3002
19305TIP3    H179406   6.066   4.059  13.482 -0.0112 -1.3698 -1.8910
19305TIP3    H279407   6.182   3.967  13.510  0.1129 -0.2501  1.9121
19306TIP3   OH279408   2.502   2.864   6.294  0.7641 -0.1715  0.2672
19306TIP3    H179409   2.457   2.940   6.331  2.4320  0.5916  0.8472
19306TIP3    H279410   2.593   2.892   6.288  1.1023 -1.4995 -1.2512
19307TIP3   OH279411   0.129   5.358   5.218  0.2978 -0.1262 -0.7299
19307TIP3    H179412   0.172   5.442   5.231  0.4455  0.3232 -3.4371
19307TIP3    H279413   0.040   5.371   5.249  0.9801  0.1898  1.2096
19308TIP3   OH279414   4.594   5.672  12.295  0.4568 -0.2915 -0.1731
19308TIP3    H179415   4.553   5.665  12.209  0.9643 -0.4762 -0.4048
19308TIP3    H279416   4.664   5.607  12.293 -1.2880 -2.4232  1.3999
19309TIP3   OH279417   2.524   6.473   0.476 -0.1693  0.6657  0.0538
19309TIP3    H179418   2.561   6.403   0.530 -0.1459  1.7261  1.4692
19309TIP3    H279419   2.430   6.464   0.487 -0.1516  1.1678  0.6724
19310TIP3   OH279420   0.470   1.204   1.712  0.4867  0.7021 -0.1322
19310TIP3    H179421   0.417   1.125   1.703  3.0896 -1.2526  0.3141
19310TIP3    H279422   0.507   1.218   1.625  0.9202  0.7054  0.0460
19311TIP3   OH279423   5.490   4.444   5.179  0.6698 -0.5372  0.3993
19311TIP3    H179424   5.505   4.350   5.188  0.0208 -0.5746  1.1698
19311TIP3    H279425   5.432   4.452   5.103 -2.2336 -1.0910  2.4180
19312TIP3   OH279426   1.719   3.383   2.851 -0.7426 -0.0293 -0.0085
19312TIP3    H179427   1.814   3.389   2.866 -0.7159  2.3953 -0.7743
19312TIP3    H279428   1.682   3.451   2.907 -1.8204  0.5234 -1.3522
19313TIP3   OH279429   4.408   2.024  15.405 -0.6515  0.2312 -0.7021
19313TIP3    H179430   4.363   2.025  15.490 -0.6472  2.4331 -0.6583
19313TIP3    H279431   4.465   1.948  15.408 -2.0883 -0.8447  0.4852
19314TIP3   OH279432   3.545   6.302   6.748  0.4353  0.1397  0.4113
19314TIP3    H179433   3.512   6.213   6.762 -0.4624  0.6518  1.8208
19314TIP3    H279434   3.636   6.298   6.779  0.4139 -0.2943  0.4314
19315TIP3   OH279435   4.812   3.931   2.108  0.1572  0.2377  0.0815
19315TIP3    H179436   4.726   3.898   2.085  0.0850 -2.0400  3.0218
19315TIP3    H279437   4.873   3.864   2.077  0.6977  0.8090 -0.1267
19316TIP3   OH279438   2.531   6.190  13.413 -0.2775 -0.2389  0.2393
19316TIP3    H179439   2.562   6.174  13.502 -0.8836 -1.6671  0.2171
19316TIP3    H279440   2.610   6.192  13.360  0.0943  0.6765  0.7936
19317TIP3   OH279441   3.543   5.921  16.317  0.0135  0.0951 -0.1686
19317TIP3    H179442   3.543   5.826  16.315  1.2458  0.0992 -1.2024
19317TIP3    H279443   3.602   5.944  16.389 -0.8848  0.1000  0.5901
19318TIP3   OH279444   1.367   1.898   3.202  0.2738 -0.7267  0.1441
19318TIP3    H179445   1.375   1.991   3.179  1.5513 -0.9255 -0.2856
19318TIP3    H279446   1.273   1.880   3.197  0.1290  0.2227 -1.0506
19319TIP3   OH279447   0.885   2.161   4.907  0.1254 -0.1238 -0.1358
19319TIP3    H179448   0.945   2.172   4.832 -0.5617  3.0759 -0.3402
19319TIP3    H279449   0.917   2.223   4.972 -0.1543 -1.8516  1.7433
19320TIP3   OH279450   2.343   5.924  13.200  0.1848  0.3112 -0.3177
19320TIP3    H179451   2.265   5.906  13.252  0.7838 -1.1499  0.1299
19320TIP3    H279452   2.341   6.019  13.186 -1.3790  0.3676  0.1179
19321TIP3   OH279453   2.954   0.094   1.762  0.2276  0.8298  0.2375
19321TIP3    H179454   2.916   0.148   1.830 -0.0393  0.0134  0.7544
19321TIP3    H279455   2.879   0.050   1.721  0.4875  0.2694  0.3450
19322TIP3   OH279456   5.770   2.222  15.592  0.0552  0.4643  0.6010
19322TIP3    H179457   5.717   2.195  15.667 -1.1221  0.1546 -0.3010
19322TIP3    H279458   5.833   2.152  15.581 -1.5245 -0.8840 -0.3291
19323TIP3   OH279459   4.705   0.396   2.501 -0.1221 -0.3886 -0.2102
19323TIP3    H179460   4.610   0.399   2.500 -0.1128 -0.0036  0.1185
19323TIP3    H279461   4.727   0.313   2.545 -0.3044 -0.8016 -0.8835
19324TIP3   OH279462   5.376   1.854  10.829  0.8115 -0.5824  0.2051
19324TIP3    H179463   5.391   1.768  10.791  2.1562 -0.8277  1.1849
19324TIP3    H279464   5.432   1.913  10.779  1.4738 -0.6609  0.8227
19325TIP3   OH279465   5.122   2.104  13.213 -0.3006 -0.5541  0.3142
19325TIP3    H179466   5.117   2.157  13.292  0.7635  0.3735 -0.2103
19325TIP3    H279467   5.112   2.167  13.141  4.2185 -0.3686 -0.4556
19326TIP3   OH279468   1.940   4.522  15.250  0.4710 -0.3276  0.2762
19326TIP3    H179469   1.968   4.440  15.210 -1.7101 -0.3215 -1.4308
19326TIP3    H279470   1.929   4.501  15.343 -0.8571 -2.2174 -0.2639
19327TIP3   OH279471   6.849   0.187  12.094 -0.3271 -0.6518 -0.1396
19327TIP3    H179472   6.891   0.251  12.037 -1.2758 -0.4250 -0.5936
19327TIP3    H279473   6.851   0.228  12.181 -0.8280 -0.0529 -0.4045
19328TIP3   OH279474   5.744   1.943   1.041  0.0923  0.1555 -0.7012
19328TIP3    H179475   5.726   1.864   0.990  0.5130  0.4486 -1.3092
19328TIP3    H279476   5.661   1.991   1.040 -0.3007 -0.4746  0.0488
19329TIP3   OH279477   4.086   4.670   3.071 -0.2413  0.0627  0.5125
19329TIP3    H179478   4.103   4.578   3.093  2.2378  0.9924  3.0918
19329TIP3    H279479   4.019   4.697   3.134 -1.8384 -0.1743 -0.9971
19330TIP3   OH279480   5.924   2.254   0.795 -0.4813 -0.0086  0.1188
19330TIP3    H179481   5.951   2.345   0.787  0.3663 -0.2686 -0.1744
19330TIP3    H279482   5.935   2.233   0.888  0.6518 -0.1859 -0.0371
19331TIP3   OH279483   1.992   1.667   2.815  0.5324  0.3815 -0.5216
19331TIP3    H179484   1.912   1.683   2.766  0.2487 -1.9773 -0.9753
19331TIP3    H279485   1.962   1.640   2.902  0.8108 -0.5080 -0.6916
19332TIP3   OH279486   0.277   4.679  16.930 -0.4097 -0.2728 -0.4276
19332TIP3    H179487   0.260   4.744  16.999  1.8086 -0.5311  0.4508
19332TIP3    H279488   0.201   4.621  16.932 -1.6193  1.2533 -0.0386
19333TIP3   OH279489   4.937   3.100   3.690 -0.9380  0.0868 -0.9112
19333TIP3    H179490   4.987   3.160   3.635  0.8545 -0.8711 -0.3932
19333TIP3    H279491   4.918   3.025   3.633  0.4186 -0.6507 -0.4206
19334TIP3   OH279492   4.788   5.331  13.714 -0.0179 -0.0613  0.1899
19334TIP3    H179493   4.711   5.342  13.769 -0.9275 -0.2788 -0.9957
19334TIP3    H279494   4.806   5.237  13.717  0.6971  0.0862  1.0791
19335TIP3   OH279495   3.612   6.100  10.016 -0.4959 -0.7317  0.0551
19335TIP3    H179496   3.658   6.051  10.083 -0.2516 -0.6152 -0.0251
19335TIP3    H279497   3.664   6.179  10.004 -0.4797 -0.8009 -0.3474
19336TIP3   OH279498   5.162   0.809   1.226  0.3659 -0.2053  0.5024
19336TIP3    H179499   5.209   0.756   1.162 -1.5066  0.4478 -1.5345
19336TIP3    H279500   5.102   0.748   1.268  0.5956 -0.3561  0.6139
19337TIP3   OH279501   1.297   1.832  16.542 -0.4744 -0.0651 -0.0293
19337TIP3    H179502   1.214   1.797  16.509 -0.4507 -0.1036 -0.0473
19337TIP3    H279503   1.275   1.866  16.629 -0.6126  0.3564 -0.2300
19338TIP3   OH279504   5.968   5.043   5.521 -0.3065 -1.0681  0.3101
19338TIP3    H179505   6.007   5.049   5.608  0.7844  0.1948 -0.2395
19338TIP3    H279506   5.905   5.115   5.518  0.0960 -0.7241 -0.1410
19339TIP3   OH279507   1.382   4.568   3.946  0.1741  0.5475  0.0496
19339TIP3    H179508   1.343   4.507   3.884  0.9336  1.0884 -1.0044
19339TIP3    H279509   1.308   4.607   3.992 -0.3075 -1.3727  0.9693
19340TIP3   OH279510   2.491   3.486   3.228  0.0055  0.2914  0.4242
19340TIP3    H179511   2.512   3.577   3.208  0.8280  0.0449  0.0952
19340TIP3    H279512   2.536   3.469   3.311 -0.3326  0.2494  0.5994
19341TIP3   OH279513   0.558   0.681  14.938  0.3700 -0.7690  0.3375
19341TIP3    H179514   0.597   0.723  14.861 -0.7215 -0.6512 -0.1876
19341TIP3    H279515   0.563   0.747  15.007 -1.0575  0.1796 -0.3948
19342TIP3   OH279516   4.144   6.322   5.887  0.0210 -0.2894 -1.0593
19342TIP3    H179517   4.155   6.398   5.944  0.3728  0.0877 -1.6288
19342TIP3    H279518   4.214   6.262   5.913  1.4220  0.6955 -2.3937
19343TIP3   OH279519   4.913   6.793  12.790  0.3705  0.4027 -0.0280
19343TIP3    H179520   4.996   6.834  12.764 -0.1556  0.7326 -1.2799
19343TIP3    H279521   4.907   6.807  12.884  2.7969 -1.5473  0.5359
19344TIP3   OH279522   1.812   2.017  15.215  0.0607 -0.3861  0.3745
19344TIP3    H179523   1.845   1.961  15.286  2.5045 -0.5601 -0.7919
19344TIP3    H279524   1.844   1.976  15.135 -1.7822  0.3640 -0.8088
19345TIP3   OH279525   6.016   4.151  16.908 -0.3474  0.1336 -0.2072
19345TIP3    H179526   5.996   4.239  16.875 -0.5813  0.4788  0.8400
19345TIP3    H279527   6.078   4.166  16.979 -0.3400 -0.5534 -0.0673
19346TIP3   OH279528   5.847   0.567  11.396 -0.7232  0.3786 -0.1703
19346TIP3    H179529   5.868   0.640  11.338  2.0200  1.7018  2.2579
19346TIP3    H279530   5.930   0.519  11.406 -1.8890 -1.7026  0.1770
19347TIP3   OH279531   2.560   4.860   3.523  0.5069  0.1623  0.0840
19347TIP3    H179532   2.490   4.911   3.483  0.2748  0.6678  1.0972
19347TIP3    H279533   2.638   4.882   3.472 -0.1234 -0.7567 -1.3456
19348TIP3   OH279534   1.342   0.122  14.612 -0.0040 -0.0164  0.4629
19348TIP3    H179535   1.337   0.178  14.535  1.6442 -0.5618 -0.0784
19348TIP3    H279536   1.255   0.083  14.619 -0.2258  0.1604 -1.0105
19349TIP3   OH279537   3.574   1.704  12.954  0.2945 -0.4540 -0.0617
19349TIP3    H179538   3.626   1.746  13.022  0.4438  0.4288 -0.6959
19349TIP3    H279539   3.486   1.700  12.990  0.2354  0.6000 -0.0415
19350TIP3   OH279540   5.532   4.937   4.677  0.2444 -0.2477  0.0494
19350TIP3    H179541   5.488   4.853   4.660 -2.0113  0.9096 -0.2347
19350TIP3    H279542   5.466   4.990   4.721  1.6056  1.4190  0.1789
19351TIP3   OH279543   2.626   4.154  16.684  0.2912  0.2956  0.0799
19351TIP3    H179544   2.648   4.231  16.736 -0.1770  1.7250 -1.6984
19351TIP3    H279545   2.656   4.176  16.596 -0.6390 -1.2060 -0.6525
19352TIP3   OH279546   1.102   2.116  10.414 -0.3147  0.4673  0.0887
19352TIP3    H179547   1.181   2.084  10.372 -1.2454 -1.3393 -0.3925
19352TIP3    H279548   1.032   2.062  10.378 -1.6730  1.4926  1.0695
19353TIP3   OH279549   6.429   4.122  14.962  0.1132  0.5762 -0.4287
19353TIP3    H179550   6.400   4.213  14.949  2.0981  1.4929  0.9479
19353TIP3    H279551   6.475   4.124  15.046  1.5115 -1.3774 -1.0838
19354TIP3   OH279552   2.984   0.728  14.094 -0.3801 -0.5373  0.5746
19354TIP3    H179553   3.002   0.668  14.167  0.4196 -0.4020  0.4984
19354TIP3    H279554   2.974   0.814  14.135  0.0282 -0.4682  0.5365
19355TIP3   OH279555   3.351   6.722   3.410  0.0722 -0.2783 -0.4237
19355TIP3    H179556   3.441   6.753   3.423 -0.3164  0.8914 -0.3766
19355TIP3    H279557   3.322   6.693   3.496 -0.6416  2.3202  0.2888
19356TIP3   OH279558   2.444   5.588  13.605 -0.0953  0.0025  0.1748
19356TIP3    H179559   2.443   5.499  13.640 -2.2164 -0.0734  0.1026
19356TIP3    H279560   2.453   5.577  13.510  0.2108 -0.1072  0.2180
19357TIP3   OH279561   1.499   6.324   3.037  0.4704  0.1217 -0.7217
19357TIP3    H179562   1.476   6.363   2.953 -0.6377 -0.6461 -0.7956
19357TIP3    H279563   1.415   6.296   3.074  1.0265 -0.2421  0.2934
19358TIP3   OH279564   4.899   4.691  15.499 -0.2239 -0.1013 -0.1495
19358TIP3    H179565   4.985   4.733  15.506 -1.1254  2.0150 -0.9013
19358TIP3    H279566   4.878   4.696  15.406 -1.8999  1.0553  0.2552
19359TIP3   OH279567   3.980   6.056   3.277  0.3498 -0.5124  0.0364
19359TIP3    H179568   3.918   5.993   3.313  0.2390 -0.4300 -0.0120
19359TIP3    H279569   4.013   6.103   3.354  2.4085 -2.3997  0.3956
19360TIP3   OH279570   1.560   6.067  13.888  0.4718 -0.4546 -0.4609
19360TIP3    H179571   1.533   6.030  13.972  1.3197 -1.3136 -0.5448
19360TIP3    H279572   1.640   6.115  13.907  0.6997 -0.6997 -0.7877
19361TIP3   OH279573   1.321   5.442  16.280  0.1194 -0.5621  0.9180
19361TIP3    H179574   1.241   5.486  16.250  0.0321 -1.6925 -0.6621
19361TIP3    H279575   1.290   5.369  16.333  0.1332 -0.5077  1.0016
19362TIP3   OH279576   3.076   5.721  14.994 -0.6588 -0.1889 -0.2213
19362TIP3    H179577   3.036   5.672  14.922 -0.1462 -0.0538 -0.6048
19362TIP3    H279578   3.170   5.714  14.978 -0.4771 -1.2749  1.1783
19363TIP3   OH279579   5.216   1.398   0.092  0.0224 -0.5151  0.5965
19363TIP3    H179580   5.254   1.400   0.180  0.9123  2.5708  0.2753
19363TIP3    H279581   5.136   1.450   0.099 -0.3744 -0.9998 -0.2254
19364TIP3   OH279582   4.775   0.421   2.001  0.0895 -0.0528  0.2026
19364TIP3    H179583   4.842   0.384   1.943 -0.0402  0.6566 -0.4104
19364TIP3    H279584   4.735   0.345   2.042  0.3934 -0.5532 -0.4098
19365TIP3   OH279585   0.914   2.733   0.751  0.2866 -0.5285  0.2158
19365TIP3    H179586   0.821   2.739   0.726  0.9767  1.0102 -2.3457
19365TIP3    H279587   0.926   2.641   0.776 -1.3869 -1.4027 -1.9009
19366TIP3   OH279588   4.727   2.642   2.748  0.0213 -0.2104  0.2570
19366TIP3    H179589   4.666   2.708   2.714  0.7855 -1.1176 -3.2292
19366TIP3    H279590   4.717   2.648   2.843 -2.3286  2.6138 -0.0091
19367TIP3   OH279591   6.614   6.209  16.785  0.2058 -0.5667 -0.2455
19367TIP3    H179592   6.659   6.143  16.838  2.2496  0.2355 -0.8955
19367TIP3    H279593   6.682   6.246  16.730 -1.4340  0.2056 -1.8435
19368TIP3   OH279594   0.699   0.998  14.189  0.1995  0.0398  0.0391
19368TIP3    H179595   0.748   1.060  14.134  0.2656 -0.2182 -0.1926
19368TIP3    H279596   0.761   0.928  14.207  0.8117  1.0131  2.0228
19369TIP3   OH279597   0.688   2.138  12.128 -0.0397  0.3043  0.8134
19369TIP3    H179598   0.658   2.226  12.103 -0.9383 -0.2670 -0.2154
19369TIP3    H279599   0.657   2.128  12.219 -5.1217 -1.0174 -0.7377
19370TIP3   OH279600   4.262   1.069   4.364  0.1116 -0.6522 -0.8036
19370TIP3    H179601   4.177   1.109   4.347  0.6135  0.7007 -0.2289
19370TIP3    H279602   4.243   0.976   4.374 -1.8240 -0.0710  2.3060
19371TIP3   OH279603   2.997   2.339  11.296  0.5426  0.1834 -0.5426
19371TIP3    H179604   2.986   2.296  11.212  1.4880  1.2117 -1.2206
19371TIP3    H279605   2.950   2.422  11.287  0.3553  0.1519  0.0696
19372TIP3   OH279606   2.501   3.049  15.974  0.6552  0.0386  0.5082
19372TIP3    H179607   2.596   3.044  15.962  0.6526  1.8928 -0.6507
19372TIP3    H279608   2.482   3.143  15.976 -1.0649 -0.2862  1.6650
19373TIP3   OH279609   4.736   0.050  15.430 -0.4076 -0.0004  0.1265
19373TIP3    H179610   4.787   0.130  15.438  0.1509 -0.2130 -1.1418
19373TIP3    H279611   4.645   0.079  15.421 -0.2261  0.4760 -0.1684
19374TIP3   OH279612   1.722   5.061  15.756 -0.3500 -0.1518 -0.3263
19374TIP3    H179613   1.757   4.995  15.696 -1.1946 -0.1661 -0.8249
19374TIP3    H279614   1.686   5.010  15.829  2.8963 -0.0646  1.5277
19375TIP3   OH279615   1.486   2.905  11.110  0.2605  0.0635  0.3959
19375TIP3    H179616   1.436   2.932  11.033  0.6876 -0.5595 -0.1075
19375TIP3    H279617   1.528   2.823  11.084 -0.1290 -0.5125  1.5310
19376TIP3   OH279618   6.007   0.360  11.164  0.2442  0.0653  0.0731
19376TIP3    H179619   5.991   0.399  11.078  0.6826  1.5605  0.6543
19376TIP3    H279620   5.926   0.311  11.182 -0.6774  1.3696 -0.3253
19377TIP3   OH279621   4.712   3.562  12.632  0.8599 -0.4887  0.1602
19377TIP3    H179622   4.749   3.593  12.549  2.3065 -0.8969  0.6122
19377TIP3    H279623   4.632   3.516  12.607  0.5747  0.5235 -0.8656
19378TIP3   OH279624   1.215   4.144  13.827 -0.1291  0.0631 -0.3825
19378TIP3    H179625   1.274   4.119  13.756 -0.3924  1.8176 -1.2786
19378TIP3    H279626   1.128   4.120  13.796 -0.1422 -0.1859 -0.1606
19379TIP3   OH279627   0.468   5.495   3.319  0.5381  0.1534  0.3128
19379TIP3    H179628   0.486   5.567   3.380 -0.6791  0.3727  0.4583
19379TIP3    H279629   0.393   5.526   3.268 -1.1810 -1.6626  1.5738
19380TIP3   OH279630   4.126   0.321  16.918 -0.0071  0.1911 -0.1110
19380TIP3    H179631   4.097   0.230  16.914 -0.2669  0.3027 -0.8208
19380TIP3    H279632   4.070   0.361  16.984 -2.7647  0.8530 -2.6842
19381TIP3   OH279633   1.493   1.410  13.360 -0.0556 -0.3874 -0.2799
19381TIP3    H179634   1.500   1.319  13.387  2.4537  0.0186  0.6454
19381TIP3    H279635   1.544   1.459  13.424  0.8367  1.3643 -2.2086
19382TIP3   OH279636   3.166   0.422   4.350  0.4048  0.1793  0.1581
19382TIP3    H179637   3.237   0.357   4.354 -1.3343 -1.7870  1.0915
19382TIP3    H279638   3.210   0.505   4.336  2.8592 -1.0185  0.2860
19383TIP3   OH279639   6.250   3.608  16.081 -0.2090 -0.0477 -0.5544
19383TIP3    H179640   6.295   3.631  16.000  0.8880  0.5448  0.1935
19383TIP3    H279641   6.320   3.604  16.147 -1.0598 -0.6137  0.3428
19384TIP3   OH279642   1.101   3.630   3.309 -0.0964 -0.7139  0.0699
19384TIP3    H179643   1.034   3.689   3.345  0.1389 -0.6614  0.4278
19384TIP3    H279644   1.052   3.567   3.257 -0.3115  0.1295 -0.7775
19385TIP3   OH279645   4.685   1.241  15.650  0.2794  0.0081  0.2647
19385TIP3    H179646   4.714   1.171  15.591 -0.7341 -0.0856 -0.1478
19385TIP3    H279647   4.672   1.317  15.592 -1.1738 -0.2126  0.2743
19386TIP3   OH279648   1.747   1.722  13.085  0.4251  1.1684 -0.3114
19386TIP3    H179649   1.833   1.734  13.044  1.3996 -1.1680  0.8799
19386TIP3    H279650   1.755   1.640  13.133 -1.7694  2.0484  1.7220
19387TIP3   OH279651   5.033   6.133  12.411 -0.3077 -0.2399  0.1296
19387TIP3    H179652   4.998   6.202  12.355 -0.5796  0.8043  1.5370
19387TIP3    H279653   5.114   6.105  12.367  0.7135  2.1330  0.3230
19388TIP3   OH279654   2.878   6.393  12.359 -0.9340 -0.1439 -0.0869
19388TIP3    H179655   2.926   6.325  12.407  0.2324  0.9659  0.3876
19388TIP3    H279656   2.894   6.373  12.267 -1.5696 -1.1626  0.0027
19389TIP3   OH279657   2.970   6.611   5.534  0.3306  0.2309  0.8678
19389TIP3    H179658   2.994   6.524   5.504  2.1581  1.2366 -0.8688
19389TIP3    H279659   2.875   6.615   5.524  0.4691 -0.7376 -1.5277
19390TIP3   OH279660   4.880   2.795  13.147 -0.0172 -0.0446 -0.0858
19390TIP3    H179661   4.973   2.802  13.123  0.7134 -1.1596  2.1069
19390TIP3    H279662   4.862   2.702  13.144 -0.8807  0.1098  0.1424
19391TIP3   OH279663   6.164   1.022   1.020  0.3890  0.6150  0.3773
19391TIP3    H179664   6.073   1.033   1.050  0.8850  0.8288  1.8968
19391TIP3    H279665   6.162   0.941   0.968 -0.3358 -0.4523  1.9708
19392TIP3   OH279666   5.009   4.129   2.186 -0.5341  0.1935 -0.3131
19392TIP3    H179667   5.093   4.113   2.144  0.8152 -0.2539  2.3649
19392TIP3    H279668   4.948   4.072   2.139  1.2019 -1.5465 -0.5786
19393TIP3   OH279669   3.288   0.405  12.172 -0.0971 -0.9556 -0.3308
19393TIP3    H179670   3.369   0.369  12.137 -0.6736 -3.2013  0.4798
19393TIP3    H279671   3.237   0.431  12.095  0.6315 -1.2370 -0.9186
19394TIP3   OH279672   3.724   2.383   2.111 -0.0549  0.0284  0.0344
19394TIP3    H179673   3.769   2.443   2.172  0.2283  0.4094 -0.5439
19394TIP3    H279674   3.781   2.380   2.034 -0.5769 -0.1907 -0.3449
19395TIP3   OH279675   2.642   6.881   3.905 -0.6136  0.0188  0.1537
19395TIP3    H179676   2.568   6.929   3.941  0.5919  1.6437  0.5715
19395TIP3    H279677   2.646   6.907   3.813 -1.6903 -1.5761 -0.3869
19396TIP3   OH279678   5.412   1.791  12.272  0.2662  1.0223  0.1551
19396TIP3    H179679   5.505   1.790  12.251  0.0857 -1.7212 -0.9143
19396TIP3    H279680   5.404   1.730  12.346 -0.5719  1.9901  0.8808
19397TIP3   OH279681   4.254   2.465   5.239 -0.1822  0.5118  0.1821
19397TIP3    H179682   4.208   2.547   5.259 -0.5602  0.0550  1.2202
19397TIP3    H279683   4.346   2.492   5.228 -0.6299  1.4502 -2.0262
19398TIP3   OH279684   6.253   2.802  15.625 -0.1826 -0.5109  0.9984
19398TIP3    H179685   6.308   2.772  15.553 -1.6713  0.5518 -0.6765
19398TIP3    H279686   6.300   2.776  15.704  2.0992 -0.7077 -0.3333
19399TIP3   OH279687   4.674   3.599  11.135 -0.4172  0.0229 -0.0314
19399TIP3    H179688   4.678   3.610  11.040  0.3511 -0.0073 -0.0077
19399TIP3    H279689   4.764   3.581  11.161 -0.3230  1.6555  0.9006
19400TIP3   OH279690   3.884   4.184  16.616 -0.1592  0.0876  0.0857
19400TIP3    H179691   3.840   4.263  16.650  0.8466  0.9122 -0.4657
19400TIP3    H279692   3.860   4.181  16.524 -0.2687 -0.3102  0.1270
19401TIP3   OH279693   1.179   0.858  12.771 -0.1253  0.2944  0.5280
19401TIP3    H179694   1.192   0.837  12.863  0.7102  1.1951  0.6331
19401TIP3    H279695   1.131   0.783  12.736 -1.3339  0.3969  1.8986
19402TIP3   OH279696   4.719   4.319   1.669  0.5236  0.2172  0.1520
19402TIP3    H179697   4.709   4.376   1.745  0.0467  1.6470 -0.9413
19402TIP3    H279698   4.635   4.275   1.660 -0.3304  1.9598 -0.9885
19403TIP3   OH279699   4.012   4.819   4.463  0.1028  0.0905 -0.4880
19403TIP3    H179700   3.938   4.869   4.499  0.6586 -0.6428  1.8905
19403TIP3    H279701   4.002   4.826   4.368 -1.6457  1.9974 -0.2427
19404TIP3   OH279702   2.768   5.117  13.870 -0.6528  0.2642  0.6444
19404TIP3    H179703   2.698   5.080  13.923  1.6938 -2.4108  2.1625
19404TIP3    H279704   2.829   5.155  13.933  0.1915  0.8505 -0.4791
19405TIP3   OH279705   0.228   2.618   0.432 -0.1556  0.1640 -0.4356
19405TIP3    H179706   0.279   2.695   0.459  1.3221 -1.0531  0.3915
19405TIP3    H279707   0.290   2.565   0.382 -1.0576 -0.6654 -0.6959
19406TIP3   OH279708   0.819   1.538  16.905 -0.0546  0.5687 -0.1235
19406TIP3    H179709   0.877   1.613  16.920 -0.8258  1.0512  0.4984
19406TIP3    H279710   0.734   1.576  16.887 -0.7420 -0.1627  1.3883
19407TIP3   OH279711   1.108   3.807   3.607  0.1237  0.0939  0.3533
19407TIP3    H179712   1.027   3.804   3.557 -0.0921  0.4652  0.6734
19407TIP3    H279713   1.172   3.762   3.552  0.1349  1.3467 -0.7023
19408TIP3   OH279714   5.856   1.434   3.672  0.2595 -0.2704  0.4517
19408TIP3    H179715   5.820   1.377   3.739  0.4201 -0.4719  0.3662
19408TIP3    H279716   5.786   1.441   3.607 -0.7308  1.6440  1.6431
19409TIP3   OH279717   5.594   5.951   2.034  0.6657 -0.1193  0.1186
19409TIP3    H179718   5.590   5.889   2.106 -1.2439 -0.2422 -0.0329
19409TIP3    H279719   5.633   5.902   1.961  1.9393 -0.2026  0.8279
19410TIP3   OH279720   4.095   3.252   0.024 -0.1826 -0.1214  0.7173
19410TIP3    H179721   4.050   3.307   0.089  0.5029  1.0559  0.2112
19410TIP3    H279722   4.039   3.257  -0.054  0.9407  1.6426 -0.0346
19411TIP3   OH279723   1.620   0.509   2.743 -0.1965 -0.1876  0.3886
19411TIP3    H179724   1.692   0.571   2.731  0.3000 -1.0287 -1.4950
19411TIP3    H279725   1.541   0.562   2.733  0.0852  0.8243  2.8756
19412TIP3   OH279726   6.386   2.557  14.562 -0.5627  0.0797  0.6235
19412TIP3    H179727   6.466   2.568  14.612  0.4715 -0.1532 -0.9300
19412TIP3    H279728   6.336   2.637  14.577  0.6110  0.8506  0.4489
19413TIP3   OH279729   3.002   1.727  15.414  0.4078 -0.9585 -0.8879
19413TIP3    H179730   3.065   1.712  15.344  0.4572 -1.8561 -0.6669
19413TIP3    H279731   3.006   1.647  15.467  2.2098  0.6060  1.5811
19414TIP3   OH279732   2.908   3.296   0.999  0.0523  0.4463 -0.0482
19414TIP3    H179733   2.983   3.350   0.976  0.2535  0.0881 -0.2531
19414TIP3    H279734   2.931   3.258   1.083 -1.2775  2.8520  1.4967
19415TIP3   OH279735   3.547   6.608   5.212 -0.2428 -0.4123  0.2849
19415TIP3    H179736   3.505   6.547   5.151 -1.0325  0.1418  0.2511
19415TIP3    H279737   3.586   6.552   5.278 -1.7126 -0.9537  0.7402
19416TIP3   OH279738   2.824   4.111   5.565 -0.1851 -0.3403  0.2163
19416TIP3    H179739   2.864   4.194   5.589 -0.5771 -0.8740  3.0293
19416TIP3    H279740   2.817   4.115   5.469 -1.2125  3.3070  0.2937
19417TIP3   OH279741   2.324   1.235   5.460  0.0475 -0.1597 -0.1960
19417TIP3    H179742   2.336   1.327   5.481 -1.1667  0.1749 -0.8536
19417TIP3    H279743   2.285   1.197   5.538 -0.1251  0.0494 -0.1801
19418TIP3   OH279744   1.167   1.131  12.787 -0.3010 -0.3885  0.1530
19418TIP3    H179745   1.149   1.037  12.789 -3.1306  0.0507  0.0417
19418TIP3    H279746   1.109   1.168  12.854  0.7584  1.2969  0.2146
19419TIP3   OH279747   4.660   4.644  11.734 -0.7659 -0.1987 -0.2741
19419TIP3    H179748   4.637   4.675  11.821 -1.3699  1.6142 -1.0319
19419TIP3    H279749   4.718   4.570  11.749  0.0736  0.7892  1.6601
19420TIP3   OH279750   5.599   5.963   3.073 -0.3392 -0.0581  0.2775
19420TIP3    H179751   5.633   5.886   3.028  1.9352  0.7844  0.4378
19420TIP3    H279752   5.649   5.967   3.155 -0.4057  1.5755  0.2698
19421TIP3   OH279753   1.448   2.575   2.373 -0.6431 -0.3152  0.3883
19421TIP3    H179754   1.369   2.592   2.424 -1.5696 -0.3224 -1.0018
19421TIP3    H279755   1.418   2.521   2.300  0.4988  0.3061 -0.5737
19422TIP3   OH279756   6.666   5.399   4.529  0.2446  0.3754  0.2261
19422TIP3    H179757   6.670   5.409   4.434  0.7763  1.3643  0.3425
19422TIP3    H279758   6.694   5.484   4.563 -1.2160  0.4749  1.2598
19423TIP3   OH279759   1.895   5.065   2.983 -0.0514 -0.0057 -0.6431
19423TIP3    H179760   1.959   5.115   2.932 -0.6582  0.0686 -1.3486
19423TIP3    H279761   1.820   5.123   2.990 -1.1061 -1.1101 -2.2208
19424TIP3   OH279762   4.039   0.113   6.025 -0.2121 -0.1875  0.2422
19424TIP3    H179763   4.023   0.058   6.102 -0.7348 -0.1008  0.1969
19424TIP3    H279764   4.109   0.068   5.978 -0.0103 -0.3335  0.6762
19425TIP3   OH279765   5.247   2.780   0.264  0.2788 -0.5836  0.8175
19425TIP3    H179766   5.262   2.727   0.343 -2.5681 -1.0277  1.1888
19425TIP3    H279767   5.241   2.716   0.193 -1.1490 -0.6027  0.9337
19426TIP3   OH279768   1.056   2.009  12.676 -0.0429  0.6276  0.1060
19426TIP3    H179769   1.089   2.060  12.750  2.0904 -0.0917 -0.2721
19426TIP3    H279770   1.057   1.918  12.706  0.0674  0.4093 -0.5332
19427TIP3   OH279771   4.512   2.885   6.224 -0.4945  0.5878  0.3185
19427TIP3    H179772   4.457   2.822   6.177 -0.8253  1.0140  0.1171
19427TIP3    H279773   4.560   2.833   6.288 -1.7091  0.3067  1.0262
19428TIP3   OH279774   0.509   5.578  12.726  0.2897 -0.5871 -0.3681
19428TIP3    H179775   0.584   5.617  12.682  0.3339  0.5415  0.6359
19428TIP3    H279776   0.439   5.643  12.715 -0.0193 -0.8188  0.1955
19429TIP3   OH279777   4.580   3.050  15.161 -0.4917  0.6093 -0.7597
19429TIP3    H179778   4.618   3.008  15.084  1.1230 -0.9891  0.8313
19429TIP3    H279779   4.505   2.995  15.184 -0.1079  0.2466 -0.3632
19430TIP3   OH279780   1.677   4.933   3.337 -0.8621 -0.0057  0.1956
19430TIP3    H179781   1.607   4.893   3.285 -1.1429 -0.2513  0.7595
19430TIP3    H279782   1.757   4.892   3.304 -0.9798  0.2129 -0.3911
19431TIP3   OH279783   1.191   4.955   0.101 -0.3644  0.0697  0.2838
19431TIP3    H179784   1.180   5.049   0.112  1.5258  0.3277  0.1895
19431TIP3    H279785   1.141   4.934   0.022 -0.3659  1.0714  0.0149
19432TIP3   OH279786   6.344   6.729   3.657  0.5588  0.0611 -0.0603
19432TIP3    H179787   6.278   6.793   3.682  0.3476  0.3012 -1.1816
19432TIP3    H279788   6.326   6.711   3.565  0.5898 -1.6410  0.2330
19433TIP3   OH279789   6.747   3.903  13.956 -0.3890  0.3793 -0.1695
19433TIP3    H179790   6.684   3.914  14.027 -0.0218 -0.4042  0.2805
19433TIP3    H279791   6.811   3.973  13.971  0.1333 -0.2696  0.7667
19434TIP3   OH279792   6.591   1.508  15.051 -0.2526 -0.3042  0.7064
19434TIP3    H179793   6.512   1.552  15.017  0.2798  0.8973  0.9783
19434TIP3    H279794   6.661   1.536  14.992  0.0898 -0.8303  0.8634
19435TIP3   OH279795   0.125   1.363  15.220  0.2723  0.1544  0.4526
19435TIP3    H179796   0.210   1.405  15.232  1.0039 -1.6927  2.2183
19435TIP3    H279797   0.143   1.269  15.225 -2.0512 -0.2907  2.8910
19436TIP3   OH279798   6.466   0.421   2.764 -0.3948  0.9572  0.1880
19436TIP3    H179799   6.492   0.419   2.671 -0.6736  1.9013  0.0762
19436TIP3    H279800   6.370   0.416   2.762 -0.4377  1.6059  0.3869
19437TIP3   OH279801   3.337   6.431  11.366  0.1841  0.3587  0.4469
19437TIP3    H179802   3.419   6.461  11.406  0.3084 -0.1537  0.5827
19437TIP3    H279803   3.362   6.354  11.315 -0.3894 -0.4987  1.4120
19438TIP3   OH279804   0.821   4.775   2.943 -0.7723  0.1665 -0.3278
19438TIP3    H179805   0.899   4.804   2.897 -0.7828 -0.0434 -0.4755
19438TIP3    H279806   0.798   4.849   2.999  1.3547 -0.8873  2.1287
19439TIP3   OH279807   1.324   3.395   0.547 -0.6228  1.0041  0.6344
19439TIP3    H179808   1.417   3.379   0.568  0.1541  1.6056 -1.9784
19439TIP3    H279809   1.284   3.308   0.553  0.5536  0.3774 -0.1169
19440TIP3   OH279810   0.208   3.705  11.381  0.5480 -0.4225  0.7767
19440TIP3    H179811   0.248   3.702  11.294 -0.7369  0.6745  0.1160
19440TIP3    H279812   0.265   3.763  11.432 -0.1196  1.0505 -0.1262
19441TIP3   OH279813   4.132   3.600  13.661  0.1379  0.4790 -0.2143
19441TIP3    H179814   4.182   3.681  13.651 -0.1301  0.5571 -1.0081
19441TIP3    H279815   4.112   3.573  13.571  1.6872 -1.3855 -0.0584
19442TIP3   OH279816   2.312   0.235  15.182 -0.2583  0.1272 -0.3295
19442TIP3    H179817   2.372   0.242  15.108 -0.1433  0.6077 -0.1946
19442TIP3    H279818   2.265   0.153  15.168  0.6618 -0.4275 -0.2667
19443TIP3   OH279819   5.305   1.211  11.991 -0.5231  0.2829  0.0736
19443TIP3    H179820   5.342   1.273  11.927  0.1300 -0.9500 -0.7806
19443TIP3    H279821   5.376   1.148  12.007 -0.8333  0.3170  1.6974
19444TIP3   OH279822   0.611   2.160   4.933 -0.3191  0.1527 -0.1262
19444TIP3    H179823   0.595   2.170   4.839  0.1748  0.5115 -0.1784
19444TIP3    H279824   0.699   2.196   4.946 -0.0532 -0.6559  0.3417
19445TIP3   OH279825   3.898   4.908   6.354  0.3637 -0.0614 -0.0516
19445TIP3    H179826   3.806   4.929   6.333  0.4647 -0.3327 -0.8267
19445TIP3    H279827   3.937   4.992   6.376  0.5095  0.4740 -2.1006
19446TIP3   OH279828   0.849   0.523   4.056  0.5975  0.0921 -0.0702
19446TIP3    H179829   0.911   0.595   4.063 -0.2466  0.8491 -0.1269
19446TIP3    H279830   0.899   0.445   4.079  1.5320  0.6970 -0.0232
19447TIP3   OH279831   1.407   2.805   4.810  0.0401 -0.9321  0.3657
19447TIP3    H179832   1.436   2.728   4.859  0.3137  0.0090  1.7169
19447TIP3    H279833   1.311   2.797   4.808  0.0737 -1.3789  0.3519
19448TIP3   OH279834   2.685   1.608   3.238 -0.2431 -0.0499  0.3249
19448TIP3    H179835   2.614   1.565   3.190 -0.4684 -1.5157  1.8995
19448TIP3    H279836   2.641   1.648   3.314  0.5261 -0.6084  1.0827
19449TIP3   OH279837   4.087   4.089   0.926  0.2833  0.4975 -0.1475
19449TIP3    H179838   4.038   4.008   0.910 -5.6797  3.1550  1.7010
19449TIP3    H279839   4.093   4.131   0.840  0.0089 -0.2498 -0.5417
19450TIP3   OH279840   6.720   1.906   5.286  0.6208  0.3746 -0.5987
19450TIP3    H179841   6.804   1.949   5.304  1.2456 -1.0044 -0.0834
19450TIP3    H279842   6.678   1.963   5.222  0.2204  3.2058  1.9480
19451TIP3   OH279843   4.460   3.488  13.496 -0.0958  0.4923  0.4065
19451TIP3    H179844   4.503   3.569  13.469  0.5266  1.1343  3.0396
19451TIP3    H279845   4.433   3.447  13.414  0.5478  2.8078 -1.0658
19452TIP3   OH279846   1.168   5.853  15.099 -0.0739 -0.1885  0.0430
19452TIP3    H179847   1.099   5.918  15.108  1.5075  1.3909  1.7796
19452TIP3    H279848   1.154   5.792  15.171 -0.7357 -0.9991 -0.7497
19453TIP3   OH279849   4.200   3.455   4.565 -0.3264  0.0063 -0.5438
19453TIP3    H179850   4.216   3.402   4.643 -1.8045 -1.4793 -1.1761
19453TIP3    H279851   4.154   3.532   4.598 -2.7118 -1.5204 -0.0787
19454TIP3   OH279852   3.277   2.088  15.805 -0.0549 -0.5173 -0.6923
19454TIP3    H179853   3.257   2.043  15.887 -0.9005 -1.7890 -1.5597
19454TIP3    H279854   3.201   2.071  15.749  0.3941  0.5375 -1.6541
19455TIP3   OH279855   4.540   0.632   4.849 -0.3365 -0.1399  0.1802
19455TIP3    H179856   4.544   0.725   4.828 -1.0262  0.0253  0.7526
19455TIP3    H279857   4.570   0.588   4.769  2.0959  0.6126  0.6002
19456TIP3   OH279858   2.868   5.208   0.618  0.3407 -0.8911 -0.3794
19456TIP3    H179859   2.934   5.210   0.548  1.1305  0.5499  0.3691
19456TIP3    H279860   2.917   5.226   0.698 -1.0987  1.3743  0.0692
19457TIP3   OH279861   1.204   3.049  13.999 -0.4113  0.4327  0.6870
19457TIP3    H179862   1.200   2.954  13.986  0.1617  0.6330 -1.1828
19457TIP3    H279863   1.131   3.083  13.947 -0.3199  1.0676  0.9683
19458TIP3   OH279864   5.297   2.314   2.876 -0.1471 -0.2938  0.1206
19458TIP3    H179865   5.371   2.331   2.935  0.1357  0.9140 -0.5641
19458TIP3    H279866   5.324   2.237   2.826 -0.1796 -1.0342  1.2031
19459TIP3   OH279867   6.558   5.007   4.913 -0.1579 -0.3674 -0.0215
19459TIP3    H179868   6.571   5.014   5.008 -0.4572  1.8262 -0.0720
19459TIP3    H279869   6.645   5.021   4.876 -0.4432  1.6213 -0.0760
19460TIP3   OH279870   4.256   5.340  12.702 -0.1790 -0.7432  0.3411
19460TIP3    H179871   4.284   5.332  12.610 -1.4650 -1.0034 -0.0423
19460TIP3    H279872   4.311   5.410  12.737  1.4238 -1.6838 -0.1774
19461TIP3   OH279873   5.337   0.342  15.056 -0.1390 -0.0521 -0.2537
19461TIP3    H179874   5.309   0.433  15.047  0.1837 -0.0459 -1.3744
19461TIP3    H279875   5.257   0.291  15.046 -0.2407  0.0857 -0.1450
19462TIP3   OH279876   3.769   3.350  12.415 -0.1290  0.0632 -0.1980
19462TIP3    H179877   3.747   3.272  12.364  1.2433  0.5000 -1.5370
19462TIP3    H279878   3.686   3.377  12.455 -0.9799 -1.0819 -1.1122
19463TIP3   OH279879   4.615   3.272  10.840  0.5975  0.1000 -0.1896
19463TIP3    H179880   4.706   3.298  10.858  1.2376 -3.3014  2.4478
19463TIP3    H279881   4.620   3.223  10.758  0.9305  0.8177 -0.6084
19464TIP3   OH279882   6.704   5.239   1.327 -0.2413  0.4037  0.1578
19464TIP3    H179883   6.715   5.151   1.292  0.5689  0.7563 -0.5414
19464TIP3    H279884   6.624   5.236   1.378  0.8820 -1.2903  1.9403
19465TIP3   OH279885   1.343   1.672  14.698  0.2681 -0.3833 -0.5380
19465TIP3    H179886   1.276   1.740  14.687 -0.3567 -1.0016 -0.5927
19465TIP3    H279887   1.387   1.696  14.780 -1.6310 -1.2841  0.8419
19466TIP3   OH279888   0.234   5.148   3.806  0.5924  0.2676  0.1506
19466TIP3    H179889   0.180   5.129   3.730 -1.2625  0.2689  1.4068
19466TIP3    H279890   0.322   5.122   3.780  0.1274  0.8528 -2.1868
19467TIP3   OH279891   6.143   1.460   1.966 -0.2004  0.2908 -0.1296
19467TIP3    H179892   6.202   1.392   1.933 -0.1690 -0.0191  0.5375
19467TIP3    H279893   6.185   1.543   1.941  1.0040  0.0956  1.0881
19468TIP3   OH279894   0.541   3.038  15.259  0.1486 -0.1502  0.2166
19468TIP3    H179895   0.512   3.025  15.349  1.1579  0.3750  0.6322
19468TIP3    H279896   0.608   3.107  15.265  0.1149  0.0073 -0.9514
19469TIP3   OH279897   3.855   6.813   1.090 -0.0275 -0.0882  0.0142
19469TIP3    H179898   3.931   6.755   1.089 -0.6961 -0.9831 -0.2065
19469TIP3    H279899   3.826   6.812   1.181  1.1050  1.4653  0.4305
19470TIP3   OH279900   3.848   2.141   5.550 -1.0141  0.2179  0.1355
19470TIP3    H179901   3.797   2.175   5.624  1.4326 -1.2059  2.6742
19470TIP3    H279902   3.931   2.189   5.555  1.3320 -3.5919  1.9181
19471TIP3   OH279903   3.279   5.651   5.846  0.8381  0.1898  0.2341
19471TIP3    H179904   3.304   5.664   5.937 -0.4558 -0.7099  0.7547
19471TIP3    H279905   3.306   5.561   5.826 -0.9376 -0.4602  0.5078
19472TIP3   OH279906   5.007   2.369   4.681 -0.5006  0.1365 -0.1608
19472TIP3    H179907   5.059   2.449   4.689  1.9438 -1.4382  1.2055
19472TIP3    H279908   4.971   2.356   4.769  0.1703 -0.9021 -0.0314
19473TIP3   OH279909   3.183   5.906  13.057 -0.6742  0.6649  0.0312
19473TIP3    H179910   3.217   5.969  12.993 -0.1804 -0.6179 -1.0329
19473TIP3    H279911   3.106   5.868  13.014 -0.8850  0.4514  0.5937
19474TIP3   OH279912   1.205   3.868   1.350  0.6394  0.2911 -0.3901
19474TIP3    H179913   1.123   3.828   1.320  0.6415  0.7286 -0.9942
19474TIP3    H279914   1.228   3.818   1.428  0.7105 -0.9938 -1.1829
19475TIP3   OH279915   0.710   4.872  15.072 -0.6782 -0.3614 -0.1022
19475TIP3    H179916   0.766   4.947  15.054 -1.8092  0.3587 -0.7324
19475TIP3    H279917   0.644   4.874  15.003  0.9650 -3.7260 -2.0428
19476TIP3   OH279918   6.481   3.476  15.322  0.0106 -0.7199  0.1670
19476TIP3    H179919   6.458   3.489  15.414  1.1311 -1.2492  0.5424
19476TIP3    H279920   6.517   3.560  15.294 -1.9331  0.0068 -0.3276
19477TIP3   OH279921   2.029   4.696   4.937 -0.0361 -0.0997 -0.2727
19477TIP3    H179922   1.961   4.633   4.914 -2.1266  1.5454  1.0566
19477TIP3    H279923   2.032   4.757   4.864 -0.1185 -0.0791 -0.2594
19478TIP3   OH279924   4.680   6.678   3.555 -0.5672 -0.0972  0.1087
19478TIP3    H179925   4.750   6.695   3.492 -0.5832 -0.0564  0.1018
19478TIP3    H279926   4.636   6.762   3.566 -1.2715 -0.3471 -0.6792
19479TIP3   OH279927   0.604   6.179  13.577 -0.0126 -0.2702  0.3561
19479TIP3    H179928   0.641   6.267  13.575 -1.6328  0.4610 -1.8357
19479TIP3    H279929   0.612   6.151  13.668  0.0017  2.3738  1.2495
19480TIP3   OH279930   1.287   6.133  11.280 -0.1343  0.0348  0.0128
19480TIP3    H179931   1.380   6.134  11.303  0.4585  1.3165 -2.1808
19480TIP3    H279932   1.257   6.223  11.293 -0.7715 -0.1095 -0.3647
19481TIP3   OH279933   4.909   6.301  15.090 -0.1608 -0.1692 -0.4462
19481TIP3    H179934   4.931   6.371  15.029 -1.0984 -0.7283 -1.4431
19481TIP3    H279935   4.851   6.342  15.154 -1.3205 -0.1864 -1.4551
19482TIP3   OH279936   3.836   4.248  13.970 -0.0426  0.1944 -0.0545
19482TIP3    H179937   3.770   4.201  13.918  1.6774 -0.6488 -1.5768
19482TIP3    H279938   3.883   4.179  14.017  0.6251  0.6470 -0.0460
19483TIP3   OH279939   1.141   6.553  14.205 -0.0012 -0.0904 -0.0686
19483TIP3    H179940   1.112   6.472  14.247 -0.6455  1.2020  2.1255
19483TIP3    H279941   1.231   6.565  14.235 -0.2840  0.5562  0.5648
19484TIP3   OH279942   3.735   0.412   4.096 -0.0168 -0.5037 -0.5867
19484TIP3    H179943   3.780   0.420   4.180  0.5619 -1.4654 -0.7870
19484TIP3    H279944   3.643   0.400   4.119  0.0680 -0.2561 -0.1076
19485TIP3   OH279945   0.901   1.019  11.721  0.5355  0.0539 -0.1536
19485TIP3    H179946   0.967   0.951  11.712  2.4932  1.4129  2.4166
19485TIP3    H279947   0.911   1.051  11.811 -2.7046  1.3373 -0.0853
19486TIP3   OH279948   4.205   6.666   6.399 -0.0889  0.2890  0.1260
19486TIP3    H179949   4.253   6.588   6.370 -1.3058  0.0067 -1.2432
19486TIP3    H279950   4.131   6.632   6.449 -0.3491  0.5810 -0.0525
19487TIP3   OH279951   4.134   0.537  16.330 -0.0015  0.0299 -0.2632
19487TIP3    H179952   4.107   0.506  16.417  0.7323 -2.2511 -0.7597
19487TIP3    H279953   4.188   0.614  16.347 -1.7476  1.0247  1.1147
19488TIP3   OH279954   4.840   1.926  10.946  0.2671  0.3509 -0.4186
19488TIP3    H179955   4.767   1.966  10.993 -0.6523 -0.3672 -1.1976
19488TIP3    H279956   4.877   1.864  11.008 -0.4314 -0.0195 -0.3603
19489TIP3   OH279957   4.879   2.110  16.888  0.3877  0.6066  0.3336
19489TIP3    H179958   4.972   2.101  16.865 -0.0072  2.6114 -2.7057
19489TIP3    H279959   4.880   2.145  16.977  2.3827 -2.1800  1.5303
19490TIP3   OH279960   1.250   2.754   1.293  0.4031  0.2229 -0.2618
19490TIP3    H179961   1.273   2.734   1.384  0.8063  0.0363 -0.4048
19490TIP3    H279962   1.292   2.686   1.242 -1.9676 -1.2225 -0.4143
19491TIP3   OH279963   6.534   1.488   4.518 -0.1838  0.0930  0.5398
19491TIP3    H179964   6.505   1.504   4.607 -0.7055  0.0465  0.3807
19491TIP3    H279965   6.556   1.394   4.516 -0.4530  0.0283  0.5431
19492TIP3   OH279966   0.844   5.111  15.075 -0.0879  0.0607 -0.0915
19492TIP3    H179967   0.802   5.196  15.092  0.9607  0.8438 -1.2821
19492TIP3    H279968   0.890   5.091  15.157 -1.3175  0.0130  0.6293
19493TIP3   OH279969   2.146   2.519  14.780 -0.1568  0.0971 -0.0249
19493TIP3    H179970   2.058   2.542  14.808  0.1219 -1.1043  2.0134
19493TIP3    H279971   2.138   2.429  14.747 -0.2754  1.1154 -3.0698
19494TIP3   OH279972   6.068   0.908  14.931  0.0962 -0.0811 -0.2509
19494TIP3    H179973   6.121   0.986  14.948 -0.3965  0.9222 -2.9116
19494TIP3    H279974   6.125   0.851  14.879 -0.7402  0.1531 -1.4675
19495TIP3   OH279975   2.380   4.491  15.584 -0.0173 -0.3033 -0.3932
19495TIP3    H179976   2.395   4.563  15.645  1.2743  0.4934 -1.5829
19495TIP3    H279977   2.461   4.440  15.586 -1.5152 -2.8219  1.7125
19496TIP3   OH279978   4.856   0.947  14.455 -0.2237  0.1573  0.1951
19496TIP3    H179979   4.812   1.031  14.467  2.7188  1.9236 -0.4329
19496TIP3    H279980   4.799   0.898  14.396 -1.5305  2.1143 -0.2685
19497TIP3   OH279981   1.420   4.739  16.196  0.2805  0.0831 -0.3369
19497TIP3    H179982   1.440   4.831  16.209  2.2169 -0.6046  2.4180
19497TIP3    H279983   1.384   4.734  16.108  2.1136  3.1624 -1.3985
19498TIP3   OH279984   1.753   3.180  12.725 -0.0703 -0.1484  0.4339
19498TIP3    H179985   1.694   3.232  12.670  0.8416  0.4060 -0.0376
19498TIP3    H279986   1.766   3.234  12.803 -1.3502 -0.9271  1.2135
19499TIP3   OH279987   4.713   4.179  14.765 -0.5006  0.2368 -0.6489
19499TIP3    H179988   4.667   4.263  14.770 -0.6018  0.1567 -0.2241
19499TIP3    H279989   4.750   4.166  14.852 -2.5343 -1.3344  0.0388
19500TIP3   OH279990   5.026   0.580  12.550  0.6625  0.1572 -0.6109
19500TIP3    H179991   5.053   0.558  12.639  1.6605 -0.6950 -1.1112
19500TIP3    H279992   5.103   0.564  12.496  0.4665  1.8478 -1.4774
19501TIP3   OH279993   6.294   3.461  15.537  0.4593 -0.1499  0.2335
19501TIP3    H179994   6.326   3.371  15.542 -0.2111 -0.4435 -0.5363
19501TIP3    H279995   6.201   3.453  15.516  0.5940  0.7172 -0.8265
19502TIP3   OH279996   2.788   0.272  10.335 -0.5291  0.0346 -0.2762
19502TIP3    H179997   2.697   0.251  10.356 -0.1492 -1.1877  0.2338
19502TIP3    H279998   2.826   0.297  10.419 -0.8663  2.6183 -0.7889
19503TIP3   OH279999   3.861   5.394  12.399 -0.3271  0.3204  0.9249
19503TIP3    H180000   3.922   5.450  12.447  0.3645  1.1889 -0.8561
19503TIP3    H280001   3.915   5.320  12.371 -0.8792 -0.5083  1.9881
19504TIP3   OH280002   6.326   2.699   0.177 -0.2676 -0.5233  0.1587
19504TIP3    H180003   6.250   2.645   0.154 -0.5191 -1.0043  1.9473
19504TIP3    H280004   6.303   2.737   0.262  1.7035 -1.1321  1.0243
19505TIP3   OH280005   6.057   5.613  14.358 -0.5390  0.0800 -0.0049
19505TIP3    H180006   5.976   5.563  14.344  0.7961 -2.6302  1.0588
19505TIP3    H280007   6.080   5.597  14.449  0.3737  2.1747  0.1906
19506TIP3   OH280008   4.838   3.741  11.798 -0.1696  0.6736  0.5711
19506TIP3    H180009   4.824   3.825  11.842 -1.2063  0.0966  1.4064
19506TIP3    H280010   4.751   3.700  11.797 -0.1740  0.6242 -1.9953
19507TIP3   OH280011   4.824   0.703  11.196 -0.9956 -0.2945 -0.4810
19507TIP3    H180012   4.868   0.708  11.280  0.5825  0.3875 -1.3010
19507TIP3    H280013   4.836   0.612  11.168 -0.8926 -0.3423 -0.2818
19508TIP3   OH280014   1.161   6.160   0.532  0.0656 -0.2753  0.3053
19508TIP3    H180015   1.175   6.250   0.502 -0.8161  1.1447  3.7252
19508TIP3    H280016   1.066   6.148   0.531  0.0517 -0.4442  1.5999
19509TIP3   OH280017   4.395   0.915  15.417 -0.1194 -0.3998 -0.0963
19509TIP3    H180018   4.484   0.892  15.390  0.6658  0.6765  1.4345
19509TIP3    H280019   4.372   0.989  15.361  0.6191  0.3762  0.5864
19510TIP3   OH280020   6.341   0.429   1.765  0.4988 -0.9002 -0.1559
19510TIP3    H180021   6.376   0.456   1.850  1.4910 -0.2622 -0.7521
19510TIP3    H280022   6.277   0.361   1.786  0.0474 -0.0968  1.1701
19511TIP3   OH280023   3.179   4.571  15.013  0.1729 -0.6018  0.2908
19511TIP3    H180024   3.194   4.665  15.029 -0.2301 -0.7151  1.4248
19511TIP3    H280025   3.102   4.550  15.065  0.8796 -1.8015  0.9093
19512TIP3   OH280026   5.132   0.209  12.939  0.1431  0.5538  0.2122
19512TIP3    H180027   5.177   0.219  13.023 -0.3630 -0.2206  0.5907
19512TIP3    H280028   5.041   0.189  12.962  0.0006  0.3038 -0.5136
19513TIP3   OH280029   3.378   2.725   1.928 -0.3203  0.2079 -0.0654
19513TIP3    H180030   3.401   2.632   1.932 -2.0506 -0.3443 -1.5523
19513TIP3    H280031   3.317   2.737   2.001  0.2602  0.2978  0.4095
19514TIP3   OH280032   1.580   4.392   5.303  0.1038 -0.3683  0.0346
19514TIP3    H180033   1.484   4.392   5.309  0.0487 -0.9940 -0.7055
19514TIP3    H280034   1.609   4.422   5.389 -0.7890  1.3272 -0.2009
19515TIP3   OH280035   4.826   0.881  10.496  0.3448 -0.0171  0.5576
19515TIP3    H180036   4.823   0.976  10.488  0.6421 -0.0094  0.5127
19515TIP3    H280037   4.913   0.857  10.463  0.2888 -0.2986  0.6110
19516TIP3   OH280038   0.346   5.261  16.834 -0.0073 -0.5453  0.2006
19516TIP3    H180039   0.387   5.191  16.886  0.2457 -0.5113  0.0461
19516TIP3    H280040   0.262   5.278  16.879  0.7698  0.3851  1.3810
19517TIP3   OH280041   2.604   5.986   1.727  0.5549 -0.6700 -0.0341
19517TIP3    H180042   2.594   6.005   1.634 -0.5838 -1.1430 -0.0320
19517TIP3    H280043   2.525   5.937   1.750  0.7389 -0.4240  1.2178
19518TIP3   OH280044   1.556   6.257   4.151 -0.2630 -0.1277  0.0436
19518TIP3    H180045   1.581   6.340   4.192  2.0853  0.3636 -2.1431
19518TIP3    H280046   1.477   6.278   4.102  0.7497  1.0994 -1.1416
19519TIP3   OH280047   5.601   1.190  11.366  0.2843  0.5790 -0.1958
19519TIP3    H180048   5.654   1.228  11.435  2.0352  0.5888 -1.4787
19519TIP3    H280049   5.607   1.095  11.379  1.5035  0.5362 -0.9187
19520TIP3   OH280050   3.846   6.718   0.092  0.2026 -0.0020  0.0520
19520TIP3    H180051   3.829   6.654   0.162  0.0244 -2.2225 -1.8976
19520TIP3    H280052   3.940   6.708   0.074  0.9040  2.5990  1.7731
19521TIP3   OH280053   2.385   3.248   3.514 -0.1775  0.0992  0.4250
19521TIP3    H180054   2.300   3.271   3.478  0.7553  0.2608 -1.8505
19521TIP3    H280055   2.415   3.175   3.461  1.3713  0.4624  0.7497
19522TIP3   OH280056   2.725   2.501  16.684  0.7186  0.4991 -0.2278
19522TIP3    H180057   2.800   2.492  16.742  0.2667 -1.7375  0.0764
19522TIP3    H280058   2.650   2.473  16.737 -0.1322  1.2270 -1.0044
19523TIP3   OH280059   3.821   6.341   1.133  0.0927  0.6277  0.1456
19523TIP3    H180060   3.841   6.362   1.224  0.4121  2.1102 -0.2365
19523TIP3    H280061   3.725   6.342   1.130  0.0737  0.3133  0.5131
19524TIP3   OH280062   3.288   4.631   4.552  0.1523 -0.4464  0.2041
19524TIP3    H180063   3.202   4.672   4.541  1.0296  0.7901 -3.5202
19524TIP3    H280064   3.281   4.547   4.505  0.7155 -0.8203  0.7628
19525TIP3   OH280065   2.729   2.814  16.789 -0.2442  0.2882 -0.0672
19525TIP3    H180066   2.731   2.903  16.753  1.9001  0.9152  1.3952
19525TIP3    H280067   2.821   2.787  16.789 -0.7631 -1.5971  0.3733
19526TIP3   OH280068   0.945   5.465   1.058 -0.3043 -0.1616 -0.1324
19526TIP3    H180069   0.952   5.426   0.971  0.5795  0.3746 -0.3111
19526TIP3    H280070   0.884   5.408   1.105 -0.7286 -0.5052 -1.0696
19527TIP3   OH280071   2.803   4.299   2.274  0.2667  0.2203  0.0657
19527TIP3    H180072   2.766   4.326   2.358  2.6928 -0.5162  1.4837
19527TIP3    H280073   2.840   4.380   2.237  0.5063  0.2906  0.4528
19528TIP3   OH280074   3.112   0.444  13.337 -0.3601  0.1305 -0.4010
19528TIP3    H180075   3.049   0.511  13.362 -0.3309 -0.1785  0.5212
19528TIP3    H280076   3.194   0.472  13.378 -0.2472 -0.2414 -0.3673
19529TIP3   OH280077   1.969   0.372   1.897  0.6119 -0.2894  0.1729
19529TIP3    H180078   1.942   0.280   1.894  1.4120 -0.5129 -0.3874
19529TIP3    H280079   2.015   0.387   1.815  1.0092  0.4483  0.5176
19530TIP3   OH280080   6.337   2.392  10.332  0.4155  0.3043 -0.5205
19530TIP3    H180081   6.300   2.315  10.377 -0.9024 -0.0279 -2.0965
19530TIP3    H280082   6.378   2.356  10.254 -1.8126  1.2868 -2.2650
19531TIP3   OH280083   2.140   2.036   5.012  0.4719  0.4053 -0.1168
19531TIP3    H180084   2.126   1.991   5.096  1.6277 -0.6278 -0.4416
19531TIP3    H280085   2.148   1.964   4.949  2.2449  1.0603 -0.6782
19532TIP3   OH280086   0.896   0.059   5.239  0.0916 -0.2676  0.2196
19532TIP3    H180087   0.883  -0.019   5.185  1.6077 -0.4838  0.1147
19532TIP3    H280088   0.986   0.051   5.271  0.3005  1.4546  0.1683
19533TIP3   OH280089   5.360   3.308   2.574 -0.2918  0.1574 -0.0596
19533TIP3    H180090   5.335   3.224   2.535 -0.6460 -0.6195  1.7319
19533TIP3    H280091   5.387   3.362   2.500 -1.2916 -1.1015 -1.3959
19534TIP3   OH280092   0.728   4.062  12.964 -0.1258  0.0099  0.0223
19534TIP3    H180093   0.743   4.151  12.996  1.8047 -0.8236  1.6087
19534TIP3    H280094   0.812   4.019  12.973 -1.1283 -2.1341 -0.3079
19535TIP3   OH280095   6.313   3.192  11.138  0.1769  0.0505 -0.0729
19535TIP3    H180096   6.370   3.268  11.129  0.1871  0.0926  0.3562
19535TIP3    H280097   6.282   3.194  11.228 -2.7975  1.6518 -0.9950
19536TIP3   OH280098   1.892   3.070   0.347 -0.3868 -0.2113  0.6377
19536TIP3    H180099   1.966   3.017   0.377 -2.1418 -0.6507  4.9935
19536TIP3    H280100   1.926   3.160   0.349  0.5265 -0.5415  0.8487
19537TIP3   OH280101   2.921   5.385   0.927 -0.4597 -0.3025  0.0647
19537TIP3    H180102   2.943   5.292   0.914  0.0997  0.0297 -1.5883
19537TIP3    H280103   2.859   5.385   1.000 -1.4253 -2.1191 -0.6773
19538TIP3   OH280104   3.714   0.754   5.169 -0.5592  0.7086  0.4143
19538TIP3    H180105   3.807   0.775   5.158 -0.0492 -0.7171  1.6003
19538TIP3    H280106   3.709   0.713   5.255 -2.0665 -0.4119 -0.1537
19539TIP3   OH280107   2.612   6.172   2.347  0.8277  0.2043 -0.8210
19539TIP3    H180108   2.539   6.233   2.350 -0.0673 -0.8763  0.6254
19539TIP3    H280109   2.624   6.153   2.254 -0.3387  0.8626 -1.1184
19540TIP3   OH280110   5.420   4.479  10.806 -0.4286 -0.0186  0.2226
19540TIP3    H180111   5.479   4.499  10.879  1.0954  3.3748 -1.7230
19540TIP3    H280112   5.334   4.508  10.837 -0.0297  0.2689  1.0939
19541TIP3   OH280113   6.395   4.900   4.064  0.6089 -0.4262  0.6184
19541TIP3    H180114   6.465   4.915   4.000  1.0409 -0.8358  0.9856
19541TIP3    H280115   6.314   4.904   4.013  0.7044  2.4923  0.5718
19542TIP3   OH280116   5.439   1.642   0.535 -0.6073 -0.1136 -0.4838
19542TIP3    H180117   5.382   1.579   0.579  1.1941 -0.9228  0.8302
19542TIP3    H280118   5.390   1.668   0.457 -2.2636 -1.6033 -0.0199
19543TIP3   OH280119   3.177   4.351   2.911 -0.5888 -0.2034  0.0723
19543TIP3    H180120   3.232   4.333   2.834 -0.6800  0.9240 -0.2718
19543TIP3    H280121   3.238   4.346   2.985 -0.6886 -2.3092  0.0743
19544TIP3   OH280122   3.305   0.180  12.667  0.3901 -0.0634  0.7806
19544TIP3    H180123   3.346   0.265  12.653 -0.1177  0.1350  0.4512
19544TIP3    H280124   3.300   0.170  12.762  1.4212 -0.2047  0.8297
19545TIP3   OH280125   2.374   2.548  14.637  0.2584  0.0228 -0.6898
19545TIP3    H180126   2.330   2.572  14.555  0.0591  0.8899 -0.3359
19545TIP3    H280127   2.308   2.562  14.705  1.0969  1.5132 -0.1328
19546TIP3   OH280128   4.500   2.779  14.349  0.2826  0.4948 -0.1024
19546TIP3    H180129   4.405   2.779  14.353  0.2243 -1.0414 -0.8716
19546TIP3    H280130   4.521   2.737  14.266  1.6309 -0.5758  0.7329
19547TIP3   OH280131   5.364   0.385   0.979  1.3344 -0.1252 -0.2738
19547TIP3    H180132   5.289   0.329   0.961  1.7290 -0.7204 -0.1158
19547TIP3    H280133   5.440   0.330   0.958  1.7262  0.3989 -0.2420
19548TIP3   OH280134   2.957   2.387  16.409  0.3941  0.8869  0.0934
19548TIP3    H180135   2.935   2.470  16.451  0.8802  0.0678  2.0633
19548TIP3    H280136   2.979   2.328  16.481 -1.6536 -1.5183 -1.0619
19549TIP3   OH280137   1.724   0.957  14.206  0.0298 -0.5091  0.4649
19549TIP3    H180138   1.697   1.032  14.258 -0.4395 -1.1626  1.1951
19549TIP3    H280139   1.703   0.881  14.261 -1.4253 -1.2844 -1.0668
19550TIP3   OH280140   6.665   5.816  11.426 -0.7320  0.5960 -0.0114
19550TIP3    H180141   6.632   5.904  11.406 -0.2152  1.0088  0.8672
19550TIP3    H280142   6.655   5.808  11.521 -1.4296 -0.5813 -0.1729
19551TIP3   OH280143   4.569   1.775  13.769  0.5520 -0.1430  0.7585
19551TIP3    H180144   4.514   1.780  13.690 -1.1686  0.3451  1.9214
19551TIP3    H280145   4.646   1.726  13.741  0.2739  0.5095 -1.3767
19552TIP3   OH280146   1.323   1.329   1.874 -0.0994 -0.2422 -0.1609
19552TIP3    H180147   1.331   1.400   1.811 -0.6913  0.9146  1.0193
19552TIP3    H280148   1.309   1.373   1.958  1.4429 -1.6956  0.9279
19553TIP3   OH280149   2.700   6.578  16.780  0.0349  0.0144  0.0540
19553TIP3    H180150   2.638   6.598  16.851 -0.7184  1.9867 -1.0863
19553TIP3    H280151   2.733   6.664  16.753  1.2217 -0.8072 -1.1786
19554TIP3   OH280152   0.713   0.289  16.811  0.0927  0.4430 -0.0686
19554TIP3    H180153   0.625   0.257  16.792 -0.1129  0.1691  1.2560
19554TIP3    H280154   0.763   0.269  16.732 -1.1076  0.9518 -0.9918
19555TIP3   OH280155   2.680   0.399  11.106  0.4219 -0.2749  0.0521
19555TIP3    H180156   2.592   0.369  11.131 -0.6281  1.3973 -1.3986
19555TIP3    H280157   2.706   0.457  11.178 -0.7496  1.1320 -0.6024
19556TIP3   OH280158   4.502   3.747   5.842  0.0369 -0.6998  0.3798
19556TIP3    H180159   4.453   3.825   5.869  0.7752 -0.7122  1.8697
19556TIP3    H280160   4.575   3.742   5.904  1.4278 -1.1955 -1.2255
19557TIP3   OH280161   0.534   5.394  12.967 -0.5099 -0.0769  0.1504
19557TIP3    H180162   0.528   5.457  12.895 -1.1144  0.9316  1.0571
19557TIP3    H280163   0.600   5.431  13.026  1.1810 -1.7062 -0.6232
19558TIP3   OH280164   1.703   0.991  10.887  0.4976  0.6422  0.0268
19558TIP3    H180165   1.707   1.058  10.955 -1.8456  1.9472 -0.9843
19558TIP3    H280166   1.703   1.041  10.805 -0.5681 -0.6172 -0.7801
19559TIP3   OH280167   6.847   2.134   0.160  0.2006  0.0668  0.7717
19559TIP3    H180168   6.764   2.090   0.178  1.1308 -2.3898 -0.4896
19559TIP3    H280169   6.886   2.148   0.246 -1.2596  0.8258  1.3510
19560TIP3   OH280170   6.351   3.919  16.166  0.4412  0.6417  0.4523
19560TIP3    H180171   6.297   3.971  16.226  0.3539  0.3508  0.6281
19560TIP3    H280172   6.403   3.864  16.224 -0.1003 -0.0999  0.2493
19561TIP3   OH280173   3.944   3.007   4.458 -0.6891 -0.7099  0.4278
19561TIP3    H180174   3.944   3.096   4.492  0.8337 -0.8390  0.8833
19561TIP3    H280175   4.036   2.991   4.434 -1.2646 -1.5098 -1.4093
19562TIP3   OH280176   2.195   4.155   0.521 -0.2841 -0.6108  0.1402
19562TIP3    H180177   2.130   4.107   0.572 -2.2943  0.7640 -0.9946
19562TIP3    H280178   2.146   4.191   0.447  1.8190  0.3895 -0.8574
19563TIP3   OH280179   5.578   0.696  11.757  0.2530 -0.3227  0.2680
19563TIP3    H180180   5.595   0.625  11.695  0.8112 -0.8287  0.9720
19563TIP3    H280181   5.650   0.690  11.820  0.0090  0.5346  0.6401
19564TIP3   OH280182   4.420   5.518   0.674  0.3444  0.0728 -0.4892
19564TIP3    H180183   4.335   5.549   0.640  0.9712 -0.4139 -2.6253
19564TIP3    H280184   4.450   5.590   0.729 -1.6955  0.0205  0.8229
19565TIP3   OH280185   5.820   6.717   1.269 -0.0624 -0.2958  1.0282
19565TIP3    H180186   5.744   6.752   1.222  0.0450 -0.7363  0.5138
19565TIP3    H280187   5.785   6.688   1.353 -0.9180 -2.5248 -0.0369
19566TIP3   OH280188   0.981   2.467  12.002 -0.0165  0.7619 -0.1824
19566TIP3    H180189   0.892   2.469  11.966  0.1344  1.0666 -0.5424
19566TIP3    H280190   0.969   2.484  12.096 -0.3261  0.9349 -0.2512
19567TIP3   OH280191   3.916   1.191   0.173  0.5484 -0.2358 -0.0807
19567TIP3    H180192   3.963   1.261   0.127  1.4984 -1.1150 -0.4645
19567TIP3    H280193   3.823   1.210   0.156  0.7315  1.4879  0.6436
19568TIP3   OH280194   6.855   4.426   3.646  0.0873  0.4613  0.0098
19568TIP3    H180195   6.858   4.511   3.601 -0.8931  0.0191 -0.9531
19568TIP3    H280196   6.841   4.448   3.738  1.6191  1.3802  0.0689
19569TIP3   OH280197   1.771   2.770   4.985  0.3238 -0.4594 -0.5089
19569TIP3    H180198   1.815   2.776   5.070 -0.4529 -1.4202 -0.0201
19569TIP3    H280199   1.679   2.788   5.005  0.3156  0.5305 -1.3581
19570TIP3   OH280200   2.591   2.936  12.540 -0.1426  0.0888 -0.2672
19570TIP3    H180201   2.620   2.858  12.589 -0.6890 -1.8589 -2.8013
19570TIP3    H280202   2.660   3.000  12.555 -0.0154 -0.5517  2.5032
19571TIP3   OH280203   6.418   1.876  12.422  0.3381 -0.2602  0.3999
19571TIP3    H180204   6.500   1.887  12.373  0.7587 -1.7193  0.7124
19571TIP3    H280205   6.435   1.802  12.481 -0.5129  0.7494  1.9901
19572TIP3   OH280206   1.533   2.500  16.318  0.2852 -0.3071  0.0525
19572TIP3    H180207   1.466   2.552  16.361 -0.3195 -0.4103 -0.7358
19572TIP3    H280208   1.586   2.564  16.270 -0.8549 -0.4433 -1.4505
19573TIP3   OH280209   2.066   0.632   2.974  0.1878  0.4563  0.7458
19573TIP3    H180210   2.140   0.585   3.013  0.7358 -0.7733 -1.5625
19573TIP3    H280211   2.004   0.563   2.952  0.2250  0.9734 -1.1236
19574TIP3   OH280212   3.340   1.300   3.556  0.2684  0.4977  0.0065
19574TIP3    H180213   3.267   1.323   3.499  1.1674  1.1015 -0.9190
19574TIP3    H280214   3.339   1.368   3.624 -0.0345  0.4908  0.0124
19575TIP3   OH280215   4.955   5.083  14.022 -0.2787 -0.1495 -0.2732
19575TIP3    H180216   5.011   5.017  14.063  0.0387  0.7521  0.8090
19575TIP3    H280217   4.881   5.034  13.986 -0.4157 -1.0249  1.1374
19576TIP3   OH280218   4.124   3.478  12.657  0.0466 -0.6312 -0.5838
19576TIP3    H180219   4.052   3.419  12.675  0.3594 -0.8212  0.1032
19576TIP3    H280220   4.165   3.493  12.743  1.9637 -2.0014 -1.1789
19577TIP3   OH280221   1.470   3.729   0.679 -0.5506 -0.5897 -0.4141
19577TIP3    H180222   1.452   3.701   0.589 -1.1729  0.0878 -0.5137
19577TIP3    H280223   1.527   3.806   0.668 -2.3644  0.8253 -0.3460
19578TIP3   OH280224   5.364   4.617  16.872 -0.0434  0.2568  0.2495
19578TIP3    H180225   5.349   4.540  16.817  1.2033  0.6137 -0.6282
19578TIP3    H280226   5.446   4.654  16.841 -0.6975  2.0727  0.5229
19579TIP3   OH280227   5.911   1.321   2.014 -0.1055 -0.1204  0.0195
19579TIP3    H180228   5.976   1.390   2.018  0.6725 -0.7612 -1.0811
19579TIP3    H280229   5.829   1.363   2.040  0.6359  0.8168  0.9173
19580TIP3   OH280230   2.375   5.909   2.204  0.0197 -0.7032 -0.0364
19580TIP3    H180231   2.280   5.903   2.212 -0.2384  1.7581 -0.3728
19580TIP3    H280232   2.406   5.910   2.295 -0.5024  0.5679  0.1530
19581TIP3   OH280233   2.630   6.134  14.261  0.3728  0.5023 -0.2167
19581TIP3    H180234   2.546   6.171  14.287 -0.3075 -0.9284 -0.2611
19581TIP3    H280235   2.613   6.040  14.254  0.9446  0.5255 -4.0316
19582TIP3   OH280236   6.367   2.363  11.833 -0.0155 -0.2075 -0.3409
19582TIP3    H180237   6.404   2.451  11.848 -1.0140  0.0267  0.9974
19582TIP3    H280238   6.420   2.326  11.763  1.0025  1.1339 -0.3218
19583TIP3   OH280239   4.163   4.796   3.370  0.7629  0.4661  0.5666
19583TIP3    H180240   4.084   4.765   3.327  1.3699 -1.0863  0.4972
19583TIP3    H280241   4.149   4.779   3.463  1.2396 -0.4348  0.4931
19584TIP3   OH280242   1.833   5.649   2.116 -0.1249 -0.5413 -0.3196
19584TIP3    H180243   1.808   5.623   2.205  0.2639  2.0299  0.6309
19584TIP3    H280244   1.820   5.571   2.063 -0.0366 -2.2611  2.0611
19585TIP3   OH280245   2.084   3.390  12.225 -0.5793 -0.0967  0.3281
19585TIP3    H180246   2.060   3.364  12.136 -0.2762 -3.8836  1.1780
19585TIP3    H280247   2.174   3.422  12.218 -0.8826  0.5464 -0.8217
19586TIP3   OH280248   0.945   2.090   0.260 -0.1820 -0.2934  0.2540
19586TIP3    H180249   1.017   2.041   0.298 -0.3961 -1.8586 -1.2426
19586TIP3    H280250   0.898   2.127   0.335  1.9585  0.5394  1.2780
19587TIP3   OH280251   6.809   3.926  16.749 -0.0439  0.0616  0.5824
19587TIP3    H180252   6.771   4.013  16.758 -0.3697 -0.2908  3.3136
19587TIP3    H280253   6.735   3.867  16.741 -0.0140 -0.2584  2.2496
19588TIP3   OH280254   3.764   5.777   2.770 -0.2667  0.3269  0.3501
19588TIP3    H180255   3.740   5.754   2.859  2.4328 -0.0218  1.0845
19588TIP3    H280256   3.814   5.858   2.779  0.1302  0.2337 -0.8214
19589TIP3   OH280257   4.902   3.313   0.186  0.2216 -0.3599 -0.0630
19589TIP3    H180258   4.956   3.389   0.209 -0.4885  0.1015  0.0917
19589TIP3    H280259   4.945   3.275   0.109  0.8279 -0.0675  0.1248
19590TIP3   OH280260   0.239   6.392   2.077  0.1854  0.3326 -0.0952
19590TIP3    H180261   0.213   6.313   2.029  0.6137  0.1324 -0.0071
19590TIP3    H280262   0.280   6.359   2.158 -0.3510  0.6627  0.3170
19591TIP3   OH280263   6.701   3.960  12.371 -0.6617  0.1042 -0.3432
19591TIP3    H180264   6.611   3.982  12.397 -0.4901 -0.9399  1.2642
19591TIP3    H280265   6.698   3.866  12.352  0.6438 -0.6574  2.6532
19592TIP3   OH280266   0.074   2.414   3.618  0.1640 -0.3019 -0.2276
19592TIP3    H180267   0.061   2.489   3.676 -0.0246 -1.2013  0.9152
19592TIP3    H280268   0.137   2.445   3.553  0.1377  0.8196  0.2618
19593TIP3   OH280269   3.318   1.276  13.957  0.1002  0.5319 -0.3174
19593TIP3    H180270   3.369   1.280  13.876  1.4290  1.4052  0.5119
19593TIP3    H280271   3.339   1.191  13.995 -2.3720 -0.9504 -1.9595
19594TIP3   OH280272   6.057   2.252   2.858 -0.6471 -0.0282 -0.5792
19594TIP3    H180273   6.070   2.346   2.871  1.9057 -0.0127 -2.4983
19594TIP3    H280274   6.029   2.244   2.767 -1.7462 -1.1133 -0.1786
19595TIP3   OH280275   2.137   3.484  11.132 -0.5996  0.3005  0.4788
19595TIP3    H180276   2.063   3.505  11.075 -0.7148  0.6857  0.7671
19595TIP3    H280277   2.116   3.398  11.166 -1.2170  0.6611  1.0334
19596TIP3   OH280278   1.247   2.221  11.843  0.2064 -0.4839  0.3992
19596TIP3    H180279   1.179   2.280  11.812 -0.5915 -0.8989  1.3230
19596TIP3    H280280   1.211   2.133  11.828  1.2226 -0.7613 -0.6131
19597TIP3   OH280281   1.147   0.475  10.846  0.0590 -0.1152  0.7788
19597TIP3    H180282   1.104   0.543  10.795  3.0810  3.4793  2.5818
19597TIP3    H280283   1.210   0.437  10.785 -0.9464 -0.6599  0.0460
19598TIP3   OH280284   3.996   6.669  15.359 -0.1168 -0.0356 -0.4595
19598TIP3    H180285   4.012   6.671  15.454 -0.2263 -0.4780 -0.4269
19598TIP3    H280286   3.999   6.576  15.337  3.7858  0.2149 -1.5713
19599TIP3   OH280287   0.392   4.498   0.177 -0.1778 -0.0380  0.1465
19599TIP3    H180288   0.484   4.516   0.195 -0.1706 -0.4221  0.5098
19599TIP3    H280289   0.349   4.583   0.184  0.2100  0.2080 -0.4235
19600TIP3   OH280290   3.618   1.471  16.548  0.2005  0.1886 -0.2256
19600TIP3    H180291   3.653   1.425  16.624 -0.7313 -1.6583 -0.8445
19600TIP3    H280292   3.554   1.532  16.583  0.2691 -0.1626  0.5231
19601TIP3   OH280293   0.918   1.126   1.547  0.2387 -0.2742  0.6826
19601TIP3    H180294   0.849   1.192   1.559 -0.8369 -1.4141  0.9785
19601TIP3    H280295   0.997   1.177   1.531 -1.0727  1.1349 -2.1498
19602TIP3   OH280296   4.065   0.739  11.775  0.3748  0.0956 -0.3861
19602TIP3    H180297   4.106   0.800  11.836  1.1329  0.7743 -1.5413
19602TIP3    H280298   4.061   0.786  11.691 -1.9497 -0.2775 -0.5674
19603TIP3   OH280299   1.131   3.348  13.901  0.4382 -0.2754  0.2054
19603TIP3    H180300   1.058   3.404  13.928 -1.1951 -1.8435 -0.8030
19603TIP3    H280301   1.090   3.268  13.870  2.3260 -0.0122 -3.5067
19604TIP3   OH280302   6.289   2.105   5.008 -0.4718 -0.1443 -0.4475
19604TIP3    H180303   6.289   2.180   5.068  1.6596 -0.6142  0.2121
19604TIP3    H280304   6.302   2.144   4.921 -1.5188  0.3803 -0.3845
19605TIP3   OH280305   4.395   5.878   4.962  0.0323  0.1118  0.3841
19605TIP3    H180306   4.416   5.909   5.050  0.1424 -0.4403  0.5551
19605TIP3    H280307   4.393   5.958   4.908  0.3728  0.4065  0.8025
19606TIP3   OH280308   0.429   3.040   4.056  0.0313  0.2119 -0.1335
19606TIP3    H180309   0.435   3.068   3.965  0.6469  0.6466  0.0344
19606TIP3    H280310   0.345   3.074   4.086 -0.0391  0.3250 -0.4579
19607TIP3   OH280311   3.631   3.763   5.079 -0.1958  0.4487  0.1718
19607TIP3    H180312   3.677   3.689   5.040 -1.0603 -0.4418  0.8028
19607TIP3    H280313   3.538   3.741   5.071 -0.4367  0.2516  2.6012
19608TIP3   OH280314   5.099   0.396   3.110 -0.0116 -0.5835 -0.0233
19608TIP3    H180315   5.086   0.469   3.050  0.2970 -1.1068 -0.7454
19608TIP3    H280316   5.116   0.321   3.053  1.3096 -0.8980  0.7346
19609TIP3   OH280317   4.439   0.735  11.355  0.1574 -0.5393 -0.1024
19609TIP3    H180318   4.483   0.656  11.325  0.6077 -0.4116  0.2161
19609TIP3    H280319   4.449   0.797  11.283 -0.2423 -0.7832 -0.3759
19610TIP3   OH280320   4.756   6.045   5.426 -0.0114  0.4855 -0.2533
19610TIP3    H180321   4.811   5.977   5.386 -2.4017 -1.7856  0.0426
19610TIP3    H280322   4.745   6.111   5.357  2.6965  0.8603 -0.4239
19611TIP3   OH280323   6.686   0.667   4.462 -0.4425 -0.0676 -0.0739
19611TIP3    H180324   6.717   0.578   4.445 -3.5270 -1.2795  0.0007
19611TIP3    H280325   6.667   0.702   4.375  0.2863  0.3713 -0.0679
19612TIP3   OH280326   4.464   1.903   4.327  0.5555  0.1917 -0.3288
19612TIP3    H180327   4.454   1.878   4.235  0.1827  0.9478 -0.4999
19612TIP3    H280328   4.453   1.998   4.328 -1.0214  0.0409  0.6844
19613TIP3   OH280329   0.386   2.559  13.130  0.4749 -0.2376  0.5087
19613TIP3    H180330   0.303   2.595  13.161  1.3945  1.4658  1.0748
19613TIP3    H280331   0.383   2.467  13.158 -0.8546 -0.0076  1.2211
19614TIP3   OH280332   2.416   0.611   2.732  0.1381 -0.1017 -0.3327
19614TIP3    H180333   2.372   0.545   2.786  0.3437  0.3747  0.4304
19614TIP3    H280334   2.506   0.612   2.763  0.4276 -0.2788 -1.1376
19615TIP3   OH280335   4.034   1.250  16.839  0.0957  0.3708  0.8579
19615TIP3    H180336   4.117   1.290  16.812  1.1979 -2.3706 -0.1897
19615TIP3    H280337   3.968   1.289  16.782  1.1637  0.4212 -0.3718
19616TIP3   OH280338   5.792   6.613   3.198  0.2237  0.3347  0.4682
19616TIP3    H180339   5.737   6.632   3.274  1.1597 -0.2729  1.3192
19616TIP3    H280340   5.739   6.552   3.146  0.0870 -0.2854  1.3031
19617TIP3   OH280341   6.132   0.915  15.845 -0.2084 -0.0424  0.5305
19617TIP3    H180342   6.142   0.979  15.915  0.3169  1.3506 -0.7767
19617TIP3    H280343   6.076   0.847  15.883 -0.4293  0.9615  2.0918
19618TIP3   OH280344   4.319   4.247  12.107  0.4342  0.1423  0.5648
19618TIP3    H180345   4.343   4.171  12.159 -2.0556 -0.1738  1.3930
19618TIP3    H280346   4.303   4.316  12.172 -3.2782 -0.4157  0.4613
19619TIP3   OH280347   5.356   0.547   4.498  0.2649 -0.3149 -0.4545
19619TIP3    H180348   5.299   0.584   4.430  1.3398 -0.0591 -1.2321
19619TIP3    H280349   5.376   0.621   4.555 -1.0223 -0.6245  0.4616
19620TIP3   OH280350   2.141   4.329  14.433 -0.1163 -0.0839  0.1453
19620TIP3    H180351   2.169   4.385  14.505  1.7742 -1.1426  0.2881
19620TIP3    H280352   2.079   4.267  14.472  0.0315  0.0635  0.6134
19621TIP3   OH280353   6.168   6.304  12.569  1.0410 -1.0887  0.8270
19621TIP3    H180354   6.220   6.384  12.579  2.1226 -1.8923  1.9877
19621TIP3    H280355   6.175   6.261  12.655 -3.1522 -0.3392  1.7369
19622TIP3   OH280356   4.642   6.107  11.848  0.3672  0.2727 -0.0293
19622TIP3    H180357   4.735   6.118  11.829  0.5792  2.8641  1.9856
19622TIP3    H280358   4.635   6.121  11.942 -1.9210 -1.2600  0.1031
19623TIP3   OH280359   5.471   2.499   5.800  0.0252 -0.0648 -0.0461
19623TIP3    H180360   5.532   2.495   5.874 -1.3022  2.1033  1.2540
19623TIP3    H280361   5.420   2.419   5.808  0.2366 -0.1086  1.0952
19624TIP3   OH280362   5.264   1.092   6.089 -0.1156  0.3769 -0.2343
19624TIP3    H180363   5.295   1.151   6.020  1.9012 -0.5025 -0.1543
19624TIP3    H280364   5.321   1.015   6.083 -1.9464 -1.0998  0.3980
19625TIP3   OH280365   0.147   5.194  13.581 -0.2808 -0.0338 -0.7568
19625TIP3    H180366   0.099   5.263  13.626 -1.5799 -1.1716 -0.3699
19625TIP3    H280367   0.239   5.223  13.585 -0.0291 -0.7456  3.9388
19626TIP3   OH280368   2.258   4.882   2.451  0.3047  0.1334  0.7438
19626TIP3    H180369   2.236   4.826   2.377 -1.1419  0.6183  0.7855
19626TIP3    H280370   2.230   4.833   2.528  2.1543 -0.5409  1.0545
19627TIP3   OH280371   1.443   5.646   0.566  0.4884 -0.1322  0.3376
19627TIP3    H180372   1.443   5.706   0.640  1.8803  0.2966  0.0301
19627TIP3    H280373   1.466   5.561   0.604 -1.9588 -0.6257  0.8453
19628TIP3   OH280374   6.801   2.228  11.200 -0.2401 -0.5759  0.5262
19628TIP3    H180375   6.774   2.318  11.215  1.2781 -0.1997  1.1803
19628TIP3    H280376   6.796   2.186  11.286  4.1768  0.3837  1.4744
19629TIP3   OH280377   1.948   2.659   0.837  0.3838 -0.2500  0.3196
19629TIP3    H180378   1.937   2.749   0.809 -1.1563 -0.5450 -0.1134
19629TIP3    H280379   1.859   2.622   0.837  0.8911 -1.5657  1.1508
19630TIP3   OH280380   1.465   6.521  16.881  0.5196  0.2935 -0.5757
19630TIP3    H180381   1.385   6.541  16.833  0.6099  3.3099  0.3401
19630TIP3    H280382   1.439   6.522  16.973  1.4020  0.1593 -0.3137
19631TIP3   OH280383   6.879   5.699   6.248 -0.3488  0.0376  0.6270
19631TIP3    H180384   6.897   5.671   6.337 -1.3507 -0.1064  0.8022
19631TIP3    H280385   6.965   5.712   6.209  0.1094 -0.4307  1.4427
19632TIP3   OH280386   1.284   2.361  12.641  0.4072  0.1866  0.6412
19632TIP3    H180387   1.200   2.326  12.612  0.3241  0.1013  0.9807
19632TIP3    H280388   1.285   2.451  12.607  0.2162  0.1608  0.5639
19633TIP3   OH280389   0.137   0.572   5.012  0.3573 -0.4123  0.3497
19633TIP3    H180390   0.042   0.558   5.005  0.3341 -2.0180  2.6440
19633TIP3    H280391   0.167   0.576   4.921 -1.7354 -1.1854 -0.4539
19634TIP3   OH280392   0.836   6.681   1.787 -0.4575 -0.1593 -0.1029
19634TIP3    H180393   0.757   6.697   1.839  0.3317 -0.2060  1.1634
19634TIP3    H280394   0.807   6.688   1.696 -1.9408 -0.3131  0.3328
19635TIP3   OH280395   3.200   0.668  10.895  0.2198 -0.7876 -0.3412
19635TIP3    H180396   3.145   0.673  10.816 -0.3286 -0.8494  0.0305
19635TIP3    H280397   3.288   0.687  10.864 -0.1264  0.0671 -0.8310
19636TIP3   OH280398   2.728   2.079   6.769 -0.1429  0.2600  0.2992
19636TIP3    H180399   2.674   2.027   6.828  1.6453 -2.0339  0.0799
19636TIP3    H280400   2.796   2.117   6.825  1.1148 -1.3084 -0.0740
19637TIP3   OH280401   5.519   3.832   5.016  0.1779  0.2047 -0.7361
19637TIP3    H180402   5.467   3.807   5.092 -0.1810  2.2860 -0.2622
19637TIP3    H280403   5.573   3.905   5.046  0.8946  0.3038 -2.1649
19638TIP3   OH280404   4.379   2.415   4.729  0.0611  0.5551 -0.1571
19638TIP3    H180405   4.306   2.474   4.744  1.1544  1.8179  0.4121
19638TIP3    H280406   4.404   2.385   4.816 -0.2776 -0.5275 -0.4135
19639TIP3   OH280407   1.416   4.589  14.908  0.6328 -0.1577  0.1931
19639TIP3    H180408   1.355   4.652  14.870 -0.1523 -0.2165  1.3025
19639TIP3    H280409   1.499   4.636  14.914  0.7738 -0.1476 -1.5538
19640TIP3   OH280410   2.166   1.435  15.316 -0.2885  0.0032  0.5076
19640TIP3    H180411   2.218   1.514  15.332  0.0070 -0.3091  1.1488
19640TIP3    H280412   2.208   1.368  15.370  0.3053 -0.9531 -1.0698
19641TIP3   OH280413   2.351   5.480  13.234  0.4788 -0.0416  0.1536
19641TIP3    H180414   2.446   5.490  13.239  0.3288  1.4562  0.5524
19641TIP3    H280415   2.329   5.503  13.144  0.3726  1.0482  0.4411
19642TIP3   OH280416   0.579   0.727  12.893  0.4997 -0.0732  0.6518
19642TIP3    H180417   0.557   0.635  12.906 -1.8042  0.4376  0.7576
19642TIP3    H280418   0.641   0.747  12.963 -0.7723 -0.9974  2.1097
19643TIP3   OH280419   6.205   6.818  16.946 -0.6893  0.8109 -0.3973
19643TIP3    H180420   6.213   6.738  16.896 -0.6895  0.5057  0.0838
19643TIP3    H280421   6.249   6.800  17.029  1.1375  1.9888 -1.0515
19644TIP3   OH280422   1.806   5.908   2.623 -0.2532 -0.1628  0.3023
19644TIP3    H180423   1.785   5.997   2.595 -0.3016 -0.3921 -0.4290
19644TIP3    H280424   1.743   5.889   2.692  0.0038  0.5014  0.7240
19645TIP3   OH280425   6.206   0.315  12.376 -0.3536  0.2597  0.5333
19645TIP3    H180426   6.205   0.383  12.308 -0.5716 -0.5961 -0.3573
19645TIP3    H280427   6.245   0.357  12.452  0.0003  1.2282 -0.1594
19646TIP3   OH280428   1.644   4.170   3.821  0.3607  0.2388  0.3025
19646TIP3    H180429   1.712   4.153   3.756 -1.6559  1.7145 -2.3783
19646TIP3    H280430   1.646   4.265   3.833 -0.5596  0.1871  0.9328
19647TIP3   OH280431   6.119   6.142   0.163 -0.8141 -0.3188 -1.0742
19647TIP3    H180432   6.095   6.050   0.170 -0.6128 -0.3923 -1.3215
19647TIP3    H280433   6.175   6.159   0.239 -2.1032  0.0096 -0.1507
19648TIP3   OH280434   0.488   0.678   5.355  0.0530  0.3527 -0.2986
19648TIP3    H180435   0.565   0.622   5.342 -0.8096 -1.2937  1.2556
19648TIP3    H280436   0.486   0.695   5.449 -3.2213 -2.4362  0.3309
19649TIP3   OH280437   5.255   5.742   1.535  0.5339 -0.4691  0.1890
19649TIP3    H180438   5.162   5.731   1.553  0.4999 -0.4683  0.0175
19649TIP3    H280439   5.292   5.774   1.617  0.4361 -0.7615  0.3451
19650TIP3   OH280440   3.093   0.282  14.443 -0.3369  0.2520  0.1345
19650TIP3    H180441   3.042   0.294  14.362 -0.6566 -0.5955  0.2013
19650TIP3    H280442   3.168   0.341  14.433  1.8795 -2.6723 -2.6311
19651TIP3   OH280443   2.271   3.793  12.482 -0.0522 -0.1491  0.5210
19651TIP3    H180444   2.196   3.831  12.528  0.0302  2.2308 -1.0739
19651TIP3    H280445   2.271   3.701  12.507 -2.0782  0.2707  2.4147
19652TIP3   OH280446   5.521   5.579  15.763 -0.1061  0.3868  0.2309
19652TIP3    H180447   5.612   5.609  15.772 -0.1094  0.5402 -0.2399
19652TIP3    H280448   5.476   5.618  15.838  0.4799 -0.7251  1.1824
19653TIP3   OH280449   0.675   0.685  13.168 -0.5952  0.0201  0.6318
19653TIP3    H180450   0.719   0.689  13.253 -0.3951 -1.3115  0.6168
19653TIP3    H280451   0.600   0.627  13.183 -2.9746  2.9596  0.8924
19654TIP3   OH280452   5.609   2.718   0.302 -0.6814 -0.1102  0.4311
19654TIP3    H180453   5.590   2.755   0.215  1.2191  0.8824  0.3896
19654TIP3    H280454   5.631   2.794   0.356  0.6183 -0.9423  1.1041
19655TIP3   OH280455   1.647   1.337   2.659 -0.0322  0.2621 -0.7744
19655TIP3    H180456   1.742   1.332   2.666 -0.0652 -1.4159 -1.0897
19655TIP3    H280457   1.614   1.302   2.742 -0.3817  0.7692 -0.6931
19656TIP3   OH280458   5.897   3.062  11.609  0.3194 -0.4787  0.3681
19656TIP3    H180459   5.884   3.046  11.516  0.8101 -1.5095  0.4562
19656TIP3    H280460   5.956   3.137  11.613 -0.6904  0.3598 -0.1164
19657TIP3   OH280461   6.546   4.215   1.228 -0.5478  0.1172  0.2693
19657TIP3    H180462   6.556   4.213   1.132  1.1672  0.0566  0.4077
19657TIP3    H280463   6.636   4.222   1.260 -1.1169  0.2601  1.8848
19658TIP3   OH280464   4.255   6.642   5.413 -0.6641 -0.0266 -0.0639
19658TIP3    H180465   4.290   6.628   5.501  2.4555 -1.9344 -1.4235
19658TIP3    H280466   4.190   6.573   5.402 -0.2639 -0.4765  0.3623
19659TIP3   OH280467   1.156   0.305   0.531  0.0017  0.7899  0.2080
19659TIP3    H180468   1.235   0.334   0.487  0.1778  1.1978  0.7839
19659TIP3    H280469   1.186   0.278   0.618 -0.2106 -0.7385 -0.1641
19660TIP3   OH280470   3.071   0.659  15.168 -0.5131 -0.5567 -0.7237
19660TIP3    H180471   3.129   0.608  15.225 -0.1309  0.9156  0.2812
19660TIP3    H280472   3.111   0.654  15.082 -0.5964 -2.0848 -0.6979
19661TIP3   OH280473   5.291   5.257  13.046 -0.1290 -0.2280  0.6234
19661TIP3    H180474   5.214   5.231  13.096 -1.1552 -0.9959 -1.2630
19661TIP3    H280475   5.329   5.330  13.096 -0.5268 -1.5365  2.9733
19662TIP3   OH280476   6.434   3.388  10.868  0.7070  0.3887 -0.1266
19662TIP3    H180477   6.407   3.448  10.798  0.2953  0.1730 -0.1573
19662TIP3    H280478   6.518   3.422  10.897  0.2147  1.3407  0.2499
19663TIP3   OH280479   3.892   3.358   2.599 -0.1007 -0.1439 -0.0071
19663TIP3    H180480   3.895   3.270   2.561 -0.1644 -0.1816  0.0747
19663TIP3    H280481   3.838   3.348   2.677  0.4225 -0.1632  0.3556
19664TIP3   OH280482   4.241   4.410  15.340 -0.0585 -0.2317  0.1612
19664TIP3    H180483   4.166   4.373  15.386 -0.8498 -1.3803 -1.9166
19664TIP3    H280484   4.216   4.409  15.248  1.7072  1.3274 -0.4097
19665TIP3   OH280485   1.941   1.501   0.220  0.3084  0.2113  0.7388
19665TIP3    H180486   2.034   1.493   0.200  0.2056  0.4740  0.1360
19665TIP3    H280487   1.901   1.528   0.137 -0.7477 -2.8339  0.1465
19666TIP3   OH280488   0.327   2.048  15.047 -0.0967  0.2518  0.4090
19666TIP3    H180489   0.312   2.008  15.133  0.0380 -0.1494  0.2499
19666TIP3    H280490   0.295   1.983  14.985  3.4766 -1.3226 -0.0377
19667TIP3   OH280491   6.009   1.293   4.174  0.7482 -0.0320 -0.0052
19667TIP3    H180492   6.049   1.306   4.088 -0.2664 -0.8612 -0.6194
19667TIP3    H280493   5.941   1.359   4.180 -1.1842 -1.8106 -1.1270
19668TIP3   OH280494   3.824   6.723   5.708  0.2036  0.4113  0.1476
19668TIP3    H180495   3.799   6.633   5.689  0.9097  0.1405  0.4988
19668TIP3    H280496   3.862   6.720   5.796  1.0816  0.8937 -0.2080
19669TIP3   OH280497   2.484   0.447  16.043 -0.1670 -0.0335  0.3397
19669TIP3    H180498   2.415   0.469  15.980 -0.1078  0.5484  0.4722
19669TIP3    H280499   2.524   0.531  16.064  0.8507 -0.4138 -0.0418
19670TIP3   OH280500   2.626   0.025  15.120 -0.3093  0.1325 -0.0934
19670TIP3    H180501   2.636  -0.061  15.161 -0.7903  0.1018 -0.0287
19670TIP3    H280502   2.696   0.029  15.055  0.6387  0.2900  0.9030
19671TIP3   OH280503   1.558   4.785  14.666 -0.3156  0.0557  0.8741
19671TIP3    H180504   1.560   4.761  14.759 -1.6477 -0.5990  0.7549
19671TIP3    H280505   1.524   4.874  14.665  0.8722  0.5256  1.0752
19672TIP3   OH280506   0.051   5.348   3.893  0.5182  0.4293  0.2845
19672TIP3    H180507   0.027   5.329   3.802 -2.6924  0.7788  0.9441
19672TIP3    H280508   0.118   5.284   3.914 -0.2194 -1.0908 -1.6716
19673TIP3   OH280509   5.328   2.979  11.214 -0.2270  0.1798 -0.2489
19673TIP3    H180510   5.263   2.949  11.150 -0.9242  2.1634 -0.5249
19673TIP3    H280511   5.390   3.030  11.162  0.0927  0.4750  0.4244
19674TIP3   OH280512   4.378   4.822  12.185  0.0303 -0.7884  0.3460
19674TIP3    H180513   4.312   4.759  12.157  1.3011 -1.6460 -0.8686
19674TIP3    H280514   4.336   4.907  12.175 -0.5192 -1.2377 -1.6357
19675TIP3   OH280515   5.912   2.487  10.765  0.1661  0.0435  0.1587
19675TIP3    H180516   5.964   2.420  10.810 -0.1928  0.9740  2.0795
19675TIP3    H280517   5.831   2.442  10.740 -0.2482 -0.1692  1.7907
19676TIP3   OH280518   6.368   1.570  16.140  0.0269  0.1928 -0.3245
19676TIP3    H180519   6.367   1.656  16.182  1.0048  0.1711 -0.2387
19676TIP3    H280520   6.300   1.575  16.072  0.4983  1.2489 -0.7341
19677TIP3   OH280521   1.263   1.133  10.194  0.0648 -0.3364 -0.1909
19677TIP3    H180522   1.355   1.149  10.171 -0.2871  1.8384 -0.2346
19677TIP3    H280523   1.257   1.160  10.286 -1.0056  1.7912 -0.8366
19678TIP3   OH280524   1.606   6.781   4.026  0.2513 -0.0409 -0.0293
19678TIP3    H180525   1.657   6.791   4.107 -1.1753  1.9956  0.7028
19678TIP3    H280526   1.539   6.849   4.032 -1.7569 -1.7626 -1.5419
19679TIP3   OH280527   6.416   4.509   5.089  0.1265 -0.0066 -0.0525
19679TIP3    H180528   6.336   4.458   5.075  0.8180 -1.5695  1.4204
19679TIP3    H280529   6.389   4.580   5.147 -0.5574  0.5696 -1.0397
19680TIP3   OH280530   2.164   1.325  13.653 -0.0995  0.2510 -0.0975
19680TIP3    H180531   2.187   1.251  13.597  1.3794  0.3635  0.3415
19680TIP3    H280532   2.164   1.289  13.742 -0.2384  0.5798  0.0381
19681TIP3   OH280533   3.066   3.040  15.521  0.0532  0.7857  0.5343
19681TIP3    H180534   2.978   3.047  15.483 -0.3229  2.9267  1.6525
19681TIP3    H280535   3.052   3.002  15.607  0.3697  0.1830  0.3267
19682TIP3   OH280536   4.902   3.169   4.713 -0.0274 -0.1857  0.2110
19682TIP3    H180537   4.832   3.166   4.649 -2.2208 -0.1293  2.4385
19682TIP3    H280538   4.889   3.089   4.765  2.3121 -0.7616  0.0009
19683TIP3   OH280539   3.471   4.132   0.050 -0.0143  0.3957  0.1945
19683TIP3    H180540   3.502   4.069   0.115 -1.5241 -0.9519 -0.3096
19683TIP3    H280541   3.445   4.208   0.101 -1.8724 -0.9036  1.3421
19684TIP3   OH280542   4.551   6.250  16.518  0.2781 -0.4730 -0.1842
19684TIP3    H180543   4.645   6.270  16.511  0.1618  1.1775  2.0834
19684TIP3    H280544   4.540   6.214  16.606 -1.7021  3.0065  1.1764
19685TIP3   OH280545   1.402   3.936  11.450 -0.5354  1.0291 -0.6391
19685TIP3    H180546   1.348   3.883  11.391  0.2175  0.1553 -0.5540
19685TIP3    H280547   1.356   3.931  11.535 -0.1281 -0.0505 -0.4633
19686TIP3   OH280548   6.599   5.078  15.944  0.3085  0.1379  0.3271
19686TIP3    H180549   6.611   5.099  16.037 -2.3372 -0.7219  0.9619
19686TIP3    H280550   6.601   4.982  15.941  0.3345  0.1592 -0.5131
19687TIP3   OH280551   3.664   2.898   1.177  0.1623  0.5111 -0.2790
19687TIP3    H180552   3.609   2.963   1.219  0.5656  0.3196  0.5790
19687TIP3    H280553   3.604   2.828   1.152 -0.0967  0.6549 -0.0621
19688TIP3   OH280554   6.522   6.267  15.298  0.5554  0.6428 -0.4313
19688TIP3    H180555   6.443   6.292  15.344 -0.3351 -1.8939 -0.4428
19688TIP3    H280556   6.594   6.300  15.353 -0.4222 -2.5527  3.1494
19689TIP3   OH280557   5.440   2.719  12.600  0.6136 -0.1235 -0.9011
19689TIP3    H180558   5.472   2.725  12.510 -1.0518 -0.5207 -1.5517
19689TIP3    H280559   5.395   2.634  12.604 -0.9694  0.6969 -0.2737
19690TIP3   OH280560   6.194   3.149   0.691  0.1152 -0.0608 -0.1068
19690TIP3    H180561   6.271   3.169   0.744  0.8099  0.4907 -1.2855
19690TIP3    H280562   6.183   3.226   0.635 -1.1794 -0.2185 -0.0852
19691TIP3   OH280563   6.222   2.102   2.647  0.2649 -0.3095 -0.2262
19691TIP3    H180564   6.202   2.102   2.741  0.5786  0.9455 -0.1373
19691TIP3    H280565   6.157   2.160   2.609  0.4670 -0.4031 -0.7164
19692TIP3   OH280566   4.672   1.865  10.387  0.7645  0.1434 -0.3162
19692TIP3    H180567   4.668   1.829  10.298  1.8495 -1.7289  0.3395
19692TIP3    H280568   4.593   1.833  10.430  1.2063 -0.6251 -0.0505
19693TIP3   OH280569   6.102   3.178   1.506  0.1168 -0.0200  0.1205
19693TIP3    H180570   6.019   3.225   1.516  0.2622  0.0286  1.2225
19693TIP3    H280571   6.079   3.099   1.456 -0.3859  0.5047 -0.4999
19694TIP3   OH280572   4.847   6.504   1.594  0.9489  0.4933  0.1809
19694TIP3    H180573   4.942   6.504   1.605  1.1494  0.5379 -1.3565
19694TIP3    H280574   4.830   6.437   1.528  0.0621  1.3684 -0.5192
19695TIP3   OH280575   5.743   1.319  11.550 -0.6069  0.1398 -0.1800
19695TIP3    H180576   5.810   1.386  11.538  0.2397 -0.8058 -0.8784
19695TIP3    H280577   5.778   1.263  11.620 -1.6239  0.7796  0.8859
19696TIP3   OH280578   4.403   3.896  14.675 -0.3163 -0.0839 -0.4514
19696TIP3    H180579   4.436   3.944  14.598  0.9155 -3.0375 -1.9271
19696TIP3    H280580   4.308   3.891  14.661 -0.2415  0.3428 -1.1917
19697TIP3   OH280581   4.221   0.163  10.579 -0.1478  0.0853 -0.2939
19697TIP3    H180582   4.299   0.196  10.625  1.8864 -0.1360 -3.2974
19697TIP3    H280583   4.223   0.069  10.593 -0.7057  0.2036  0.7231
19698TIP3   OH280584   2.884   2.542   3.783 -0.1139 -0.5253  0.2323
19698TIP3    H180585   2.861   2.481   3.713 -1.0708  0.3538 -0.2376
19698TIP3    H280586   2.936   2.609   3.740  1.3846 -1.2424  0.8452
19699TIP3   OH280587   3.300   3.486   6.225  0.6270 -0.1230 -0.3572
19699TIP3    H180588   3.307   3.521   6.314  0.6439  0.3858 -0.5538
19699TIP3    H280589   3.211   3.509   6.198  1.2302  1.3608 -1.1448
19700TIP3   OH280590   6.184   3.538   4.067  0.2962 -0.6925  0.4489
19700TIP3    H180591   6.137   3.517   4.148  0.6552 -0.3963  0.7345
19700TIP3    H280592   6.115   3.544   4.001  0.0272 -1.1923  0.6784
19701TIP3   OH280593   4.984   2.650   5.246 -0.3106 -0.4415  0.2635
19701TIP3    H180594   5.034   2.713   5.194  0.2205  0.4201  1.7581
19701TIP3    H280595   4.910   2.700   5.280 -0.8088 -1.0645  0.1011
19702TIP3   OH280596   3.234   5.256  12.393  0.9719  0.3820  0.0483
19702TIP3    H180597   3.294   5.329  12.377 -0.7934  2.5337  2.4436
19702TIP3    H280598   3.276   5.205  12.462  0.9227  0.8114  0.3995
19703TIP3   OH280599   3.089   5.845  12.145 -0.3285  0.3243 -0.4435
19703TIP3    H180600   3.053   5.757  12.132 -2.5084  1.1658 -0.5714
19703TIP3    H280601   3.184   5.832  12.147 -0.5972 -2.0763  0.0098
19704TIP3   OH280602   1.191   4.573  11.198 -0.2241  0.0363 -0.0287
19704TIP3    H180603   1.180   4.508  11.129  0.7707 -0.2456  0.0680
19704TIP3    H280604   1.283   4.598  11.193 -0.6799  1.7984 -0.3843
19705TIP3   OH280605   4.249   6.351  15.112 -0.3472  0.0301  0.3013
19705TIP3    H180606   4.274   6.353  15.020  0.1330 -0.2617  0.4242
19705TIP3    H280607   4.299   6.278  15.149  0.7078  1.1720  1.1605
19706TIP3   OH280608   0.700   0.537  15.554  0.7954  0.3265  0.1990
19706TIP3    H180609   0.780   0.510  15.510  0.0765  0.6069 -1.3378
19706TIP3    H280610   0.637   0.468  15.533  0.6818 -0.0120  1.5866
19707TIP3   OH280611   5.267   5.810   5.608 -0.6171 -0.3456 -0.5593
19707TIP3    H180612   5.226   5.819   5.694 -1.3202  1.0542 -1.0122
19707TIP3    H280613   5.356   5.842   5.620 -0.7371 -0.0784 -0.3630
19708TIP3   OH280614   1.394   5.769   3.430  0.5329 -0.2753  0.3489
19708TIP3    H180615   1.441   5.769   3.346 -2.0052  1.1027 -1.2276
19708TIP3    H280616   1.344   5.688   3.429 -0.0539  0.0763  0.1269
19709TIP3   OH280617   3.353   1.176  11.070  0.5999  0.5642 -0.1596
19709TIP3    H180618   3.375   1.087  11.041 -0.4691  0.6542 -1.2868
19709TIP3    H280619   3.298   1.163  11.147  0.2245  0.2377 -0.4784
19710TIP3   OH280620   1.824   1.622   1.546  0.1558  0.2544 -0.1142
19710TIP3    H180621   1.764   1.605   1.474  0.5885  0.7245 -0.5970
19710TIP3    H280622   1.811   1.715   1.568  0.0582  0.1279  0.3902
19711TIP3   OH280623   3.233   6.024  16.950  0.4972 -0.7076 -0.3255
19711TIP3    H180624   3.161   6.049  16.892 -1.2432  0.9475  2.3479
19711TIP3    H280625   3.206   5.939  16.986  1.0844 -1.2333 -1.0777
19712TIP3   OH280626   3.225   1.331  11.836 -0.4444  0.6446  0.0539
19712TIP3    H180627   3.262   1.409  11.876 -0.0820  0.0663  0.8953
19712TIP3    H280628   3.300   1.273  11.823 -0.6599  0.5547 -0.8572
19713TIP3   OH280629   2.258   0.975  15.023 -0.4278  0.1595 -0.2874
19713TIP3    H180630   2.217   1.001  14.940 -0.9086 -0.2995 -0.2000
19713TIP3    H280631   2.209   0.898  15.050  0.9115 -0.7929 -0.4983
19714TIP3   OH280632   3.797   5.299   3.670  0.1689 -0.7596 -0.2706
19714TIP3    H180633   3.812   5.247   3.592  0.4645 -1.8100  0.4785
19714TIP3    H280634   3.814   5.240   3.743  0.4708  0.3682  0.6027
19715TIP3   OH280635   3.129   4.048   5.029 -0.1848 -0.2265 -0.3833
19715TIP3    H180636   3.037   4.065   5.011 -0.2361 -0.2412 -0.1334
19715TIP3    H280637   3.137   4.051   5.124  0.5399  2.3235 -0.4495
19716TIP3   OH280638   4.710   4.289  16.834 -0.4868  0.4545 -0.0268
19716TIP3    H180639   4.796   4.315  16.868 -1.0508  0.8862  1.1283
19716TIP3    H280640   4.694   4.348  16.761  0.4890 -0.0757 -0.6832
19717TIP3   OH280641   0.043   0.967  13.840 -0.5632  0.4353 -0.8140
19717TIP3    H180642  -0.011   0.947  13.764 -2.0105  0.8582  0.0764
19717TIP3    H280643  -0.001   0.925  13.913  1.0858 -0.4063 -0.2564
19718TIP3   OH280644   5.871   6.088   4.818 -0.1637  0.1354  0.0968
19718TIP3    H180645   5.935   6.020   4.799 -0.1135  0.5799 -1.5090
19718TIP3    H280646   5.787   6.044   4.811 -0.0747 -0.1575  0.8694
19719TIP3   OH280647   3.118   2.358   1.971 -0.6886 -0.3447 -0.2109
19719TIP3    H180648   3.043   2.300   1.978 -0.7697 -0.2353 -0.1748
19719TIP3    H280649   3.181   2.309   1.918 -0.4930 -0.7396  0.3696
19720TIP3   OH280650   4.927   1.865   5.706 -0.2106 -0.2645 -0.3722
19720TIP3    H180651   4.912   1.799   5.774  1.3559  1.4027  1.6876
19720TIP3    H280652   4.841   1.879   5.667 -1.0393 -1.6999  0.8359
19721TIP3   OH280653   0.220   5.967   1.573  0.4511 -0.0820  0.1156
19721TIP3    H180654   0.201   5.958   1.479  0.3716 -1.2022  0.2258
19721TIP3    H280655   0.198   6.057   1.593 -0.3881 -0.0756 -0.7541
19722TIP3   OH280656   4.961   2.615   3.027  0.0544 -0.2085  0.1268
19722TIP3    H180657   5.012   2.554   2.973 -1.5709 -0.0782 -1.6469
19722TIP3    H280658   5.025   2.680   3.056  1.0292 -0.3662 -1.5437
19723TIP3   OH280659   3.614   4.947   4.818  0.1730 -0.0357 -0.1728
19723TIP3    H180660   3.537   4.966   4.872  1.0227 -0.0628  1.0901
19723TIP3    H280661   3.631   4.854   4.833 -0.2103 -0.3129 -1.3599
19724TIP3   OH280662   5.072   3.017   0.127  0.5927 -0.6237  0.9185
19724TIP3    H180663   5.006   3.035   0.060  0.1214 -1.3158  1.1894
19724TIP3    H280664   5.148   2.984   0.078  0.9344  0.6385  0.5608
19725TIP3   OH280665   5.256   0.597  15.089 -0.5364  0.0358  0.3675
19725TIP3    H180666   5.256   0.679  15.139 -0.4085  0.7510 -0.7464
19725TIP3    H280667   5.294   0.622  15.004 -2.8171 -0.5994 -0.9147
19726TIP3   OH280668   2.052   1.391  13.917  0.1265 -0.3523  0.0180
19726TIP3    H180669   2.090   1.466  13.964  1.3620  0.5357 -2.2172
19726TIP3    H280670   2.123   1.327  13.915  1.1335  0.7111 -2.8734
19727TIP3   OH280671   2.553   2.680  14.927  0.2969  0.5423 -0.5036
19727TIP3    H180672   2.633   2.723  14.897  0.5759  0.4732  0.1344
19727TIP3    H280673   2.486   2.749  14.922  0.5628  0.8161 -0.2794
19728TIP3   OH280674   2.977   2.046  13.426  0.0843  0.5811 -0.3211
19728TIP3    H180675   3.029   2.107  13.477  0.8324 -1.4656  1.5274
19728TIP3    H280676   2.889   2.084  13.425  0.5222  1.6748  0.7600
19729TIP3   OH280677   2.369   6.590  14.915 -0.2274 -0.0423 -0.0267
19729TIP3    H180678   2.293   6.583  14.857 -0.0612  0.1307 -0.2702
19729TIP3    H280679   2.333   6.581  15.003 -1.0374  3.2033  0.1051
19730TIP3   OH280680   3.624   3.476   0.549 -0.2045  0.1080 -0.3422
19730TIP3    H180681   3.659   3.509   0.631 -0.7888  1.2757 -0.5381
19730TIP3    H280682   3.591   3.553   0.504  1.2599 -0.3061 -2.2759
19731TIP3   OH280683   5.178   3.109   4.969  0.1850 -0.2452 -0.4437
19731TIP3    H180684   5.233   3.072   4.900 -2.0968 -2.5082 -1.2314
19731TIP3    H280685   5.143   3.190   4.932 -0.1146 -0.8552 -1.5450
19732TIP3   OH280686   4.157   6.758   4.658  0.2182  0.2060  0.8487
19732TIP3    H180687   4.141   6.772   4.565 -1.3489  0.1801  1.0937
19732TIP3    H280688   4.196   6.840   4.688  1.6778 -0.1327 -0.0018
19733TIP3   OH280689   5.810   2.764  14.539 -0.2994  0.2103  0.4717
19733TIP3    H180690   5.752   2.713  14.596 -0.7725 -0.7130 -0.7814
19733TIP3    H280691   5.755   2.787  14.464  0.1449  1.8805  0.6174
19734TIP3   OH280692   0.917   4.178  16.941 -0.1216 -0.5682 -0.7432
19734TIP3    H180693   0.884   4.092  16.966 -0.5899  0.0722  0.9493
19734TIP3    H280694   0.958   4.213  17.020  0.9932  0.3503 -1.6859
19735TIP3   OH280695   4.240   4.958  11.416  0.4089  0.2753 -0.3585
19735TIP3    H180696   4.239   4.875  11.463  0.0233  0.8781  0.7536
19735TIP3    H280697   4.200   5.020  11.477  1.7178  1.5139 -0.6967
19736TIP3   OH280698   6.852   6.346   1.554  0.0312  0.1442 -0.4530
19736TIP3    H180699   6.784   6.336   1.488 -0.3261 -0.8044  0.0434
19736TIP3    H280700   6.811   6.397   1.624 -0.2910 -0.6936 -0.0135
19737TIP3   OH280701   1.657   6.878   3.063 -0.0872 -0.0234 -0.3906
19737TIP3    H180702   1.690   6.833   3.140  0.1269  0.0328 -0.4496
19737TIP3    H280703   1.566   6.850   3.056 -0.2306  0.3061  0.1313
19738TIP3   OH280704   2.126   6.455   5.361 -0.4686  0.0477  0.0466
19738TIP3    H180705   2.074   6.530   5.389  0.3478  1.6394 -2.3698
19738TIP3    H280706   2.144   6.472   5.269  2.9219 -1.2370  0.3332
19739TIP3   OH280707   5.131   3.840   0.870  0.5397  0.9141 -0.5252
19739TIP3    H180708   5.084   3.895   0.807 -0.2554 -0.0280 -0.7670
19739TIP3    H280709   5.209   3.811   0.823 -0.1393  0.0658 -1.1691
19740TIP3   OH280710   3.094   5.131  16.659 -0.3280 -0.3055  0.0651
19740TIP3    H180711   3.098   5.203  16.722  0.4592 -0.4634  0.2008
19740TIP3    H280712   3.177   5.084  16.670  1.2800  1.3965 -3.1325
19741TIP3   OH280713   5.287   6.585  13.047  0.2118  0.5757  0.7105
19741TIP3    H180714   5.289   6.490  13.039  0.6446  0.4401  2.1252
19741TIP3    H280715   5.315   6.617  12.961 -3.2731 -0.4540 -0.9618
19742TIP3   OH280716   1.032   6.099   0.833  0.3056  0.3491 -0.1555
19742TIP3    H180717   1.003   6.113   0.743 -0.2060 -1.3720 -0.2997
19742TIP3    H280718   1.061   6.008   0.835  0.0429  0.2670  1.4857
19743TIP3   OH280719   6.794   5.354   1.653 -0.3266 -0.3421 -0.1996
19743TIP3    H180720   6.733   5.414   1.697  0.7758 -1.1377  2.6537
19743TIP3    H280721   6.875   5.362   1.703  0.7348 -2.1127 -1.5320
19744TIP3   OH280722   6.492   0.137   2.584 -0.4371 -0.0683 -0.6302
19744TIP3    H180723   6.541   0.063   2.620  1.9628  1.9737  0.6530
19744TIP3    H280724   6.413   0.098   2.548 -0.1039 -3.0435  1.4563
19745TIP3   OH280725   3.358   5.647   1.025  0.2387 -0.0021  0.2777
19745TIP3    H180726   3.280   5.697   1.050  0.6208  1.2678 -0.9248
19745TIP3    H280727   3.324   5.566   0.989 -0.3663 -1.1687  3.1985
19746TIP3   OH280728   6.085   2.970  12.968 -0.0483  0.6810 -0.7925
19746TIP3    H180729   6.125   3.038  13.022 -0.0881 -0.7836  1.2184
19746TIP3    H280730   6.150   2.952  12.901 -0.2784  3.0436 -1.7410
19747TIP3   OH280731   5.884   6.077   5.399 -0.1158  0.7068  0.3334
19747TIP3    H180732   5.917   6.058   5.487  2.1200 -1.0852 -0.7582
19747TIP3    H280733   5.963   6.075   5.343 -1.4451  1.7996 -1.7075
19748TIP3   OH280734   4.884   6.819  15.884 -0.1946 -0.0400  0.1186
19748TIP3    H180735   4.924   6.819  15.971  0.6105 -0.0608 -0.2332
19748TIP3    H280736   4.931   6.889  15.837 -1.0419  0.3813 -0.1142
19749TIP3   OH280737   0.889   5.427  12.522  0.1266  0.3929  0.1123
19749TIP3    H180738   0.873   5.383  12.438 -1.1808  0.1786  0.4673
19749TIP3    H280739   0.985   5.429  12.529  0.2432 -0.7211 -0.7891
19750TIP3   OH280740   3.805   0.151   0.070 -0.1201  0.3809 -0.1569
19750TIP3    H180741   3.763   0.189   0.148 -0.7560 -3.1662  1.3977
19750TIP3    H280742   3.871   0.091   0.104 -0.5185 -1.4123 -2.3185
19751TIP3   OH280743   5.425   6.497   1.696  0.2411  0.8527  0.1812
19751TIP3    H180744   5.469   6.425   1.651  1.2704  0.8358  1.1579
19751TIP3    H280745   5.345   6.458   1.731  0.0603  0.5588 -0.5446
19752TIP3   OH280746   0.518   3.470   2.026  0.6107  0.1898 -0.2458
19752TIP3    H180747   0.487   3.551   2.067 -2.1579 -0.9044  0.0179
19752TIP3    H280748   0.475   3.468   1.941  1.4716 -0.5436 -0.6789
19753TIP3   OH280749   0.613   4.997  10.432 -0.6450  0.2343  0.4979
19753TIP3    H180750   0.656   5.037  10.356 -0.7398  2.3940  1.5158
19753TIP3    H280751   0.677   4.934  10.466  0.4751  1.1786  0.1785
19754TIP3   OH280752   5.842   5.981   3.795 -0.0618  0.0809  0.2291
19754TIP3    H180753   5.839   6.074   3.817  0.7915  0.3385 -0.6649
19754TIP3    H280754   5.909   5.945   3.854  1.0034  0.4381 -0.7158
19755TIP3   OH280755   5.646   5.735   5.332 -0.5482 -0.1494 -0.4287
19755TIP3    H180756   5.583   5.670   5.362  0.8379 -1.3035  0.0906
19755TIP3    H280757   5.592   5.810   5.307 -2.1181 -1.0821 -0.0220
19756TIP3   OH280758   0.694   2.803  12.337 -0.3142  0.1167 -0.3064
19756TIP3    H180759   0.723   2.731  12.283 -0.5700  0.1516 -0.4918
19756TIP3    H280760   0.675   2.764  12.422  2.2528  0.4037  0.4927
19757TIP3   OH280761   5.651   1.626  12.739  0.3301 -0.1149  0.2635
19757TIP3    H180762   5.736   1.644  12.778 -0.6055  1.1244  1.8771
19757TIP3    H280763   5.623   1.709  12.702 -0.8521 -0.0554  1.2092
19758TIP3   OH280764   0.525   5.402  14.580  0.0644  0.3705 -0.0836
19758TIP3    H180765   0.601   5.443  14.622 -0.7127 -0.2732  2.1240
19758TIP3    H280766   0.506   5.457  14.505  1.2551  1.9328  0.6989
19759TIP3   OH280767   2.459   6.874   4.550 -0.1147 -0.1347  0.1783
19759TIP3    H180768   2.541   6.863   4.598  1.2553  1.5286 -1.6276
19759TIP3    H280769   2.470   6.955   4.501 -2.4766 -0.3670 -0.8867
19760TIP3   OH280770   2.500   4.613   3.167 -0.2005 -0.5013  0.3171
19760TIP3    H180771   2.450   4.686   3.204 -1.2895 -0.4316 -1.1897
19760TIP3    H280772   2.591   4.642   3.171 -0.7029  1.5428 -1.4027
19761TIP3   OH280773   6.252   6.871   0.980 -0.4876 -0.4156  0.1045
19761TIP3    H180774   6.289   6.913   0.903 -0.2307 -1.7304 -0.5179
19761TIP3    H280775   6.164   6.908   0.987  0.4789  1.9275  0.9654
19762TIP3   OH280776   1.625   6.489  13.989 -0.2450 -0.0164  0.0954
19762TIP3    H180777   1.627   6.585  13.998 -0.5402 -0.0613  0.6558
19762TIP3    H280778   1.616   6.457  14.079 -0.2533 -0.5701 -0.1025
19763TIP3   OH280779   2.007   1.255  12.265 -0.4445 -0.0474  0.4307
19763TIP3    H180780   2.082   1.293  12.219  0.5215 -1.7375  0.5003
19763TIP3    H280781   2.026   1.271  12.358 -1.0584  1.0368  0.3799
19764TIP3   OH280782   2.489   1.231   4.088 -0.0070  0.2233 -0.1952
19764TIP3    H180783   2.498   1.252   4.181  0.3122 -1.9824  0.3404
19764TIP3    H280784   2.395   1.228   4.073 -0.0648  1.4906 -0.2100
19765TIP3   OH280785   5.699   1.845  13.129 -0.1854 -0.0953 -0.4638
19765TIP3    H180786   5.628   1.904  13.155 -0.5875 -1.0447  0.6651
19765TIP3    H280787   5.670   1.758  13.157  0.3989 -0.8515 -2.0705
19766TIP3   OH280788   0.760   4.963   4.196  0.2362  0.3765  0.6314
19766TIP3    H180789   0.804   4.887   4.232  4.9819  1.9845 -1.0219
19766TIP3    H280790   0.734   5.015   4.272  3.0966  0.1730  1.8478
19767TIP3   OH280791   3.680   0.776   3.080 -0.3398 -0.3990 -0.7417
19767TIP3    H180792   3.666   0.861   3.122 -1.3501 -1.6574  1.6413
19767TIP3    H280793   3.684   0.713   3.153  0.7974 -2.3713 -2.3840
19768TIP3   OH280794   1.468   2.341  13.082  0.5102  0.1291 -0.1989
19768TIP3    H180795   1.376   2.356  13.060  0.1721  1.3990  1.8085
19768TIP3    H280796   1.465   2.301  13.169  1.8601 -0.5145 -0.4216
19769TIP3   OH280797   2.334   4.874   5.921  0.1702 -0.2355  0.5053
19769TIP3    H180798   2.258   4.817   5.914  0.2667 -0.2731 -0.3774
19769TIP3    H280799   2.304   4.948   5.974 -0.0133 -0.9965  1.4912
19770TIP3   OH280800   1.367   0.075   5.156  0.3837  0.7529 -0.0917
19770TIP3    H180801   1.461   0.066   5.144  0.3168  0.7604 -0.6475
19770TIP3    H280802   1.341   0.143   5.094  0.0617  0.9695  0.2803
19771TIP3   OH280803   5.693   5.083  14.796  0.2106 -0.5216  0.0902
19771TIP3    H180804   5.600   5.072  14.816  0.3326 -1.2509  0.2810
19771TIP3    H280805   5.725   5.142  14.865 -0.4538  1.0929 -0.9385
19772TIP3   OH280806   0.826   4.243   4.060  0.3947  0.5872 -0.2627
19772TIP3    H180807   0.849   4.181   4.129  2.0216 -1.1519 -2.2317
19772TIP3    H280808   0.731   4.233   4.049  0.2220  0.3793  1.1800
19773TIP3   OH280809   3.207   0.082   3.329 -0.0504  0.2867 -0.7352
19773TIP3    H180810   3.227  -0.003   3.367  1.2576  0.3301 -1.2836
19773TIP3    H280811   3.234   0.145   3.396 -2.2512  0.2911  0.2351
19774TIP3   OH280812   4.257   1.586   0.595 -0.3218 -0.0254  0.3910
19774TIP3    H180813   4.223   1.638   0.668 -1.0476  0.6045 -0.3677
19774TIP3    H280814   4.352   1.590   0.605 -0.3688  1.2758  0.4903
19775TIP3   OH280815   3.501   0.801  14.033  0.1755 -0.8364  0.1283
19775TIP3    H180816   3.548   0.750  14.099  1.7139 -0.2834 -0.4849
19775TIP3    H280817   3.500   0.745  13.955  0.0820 -0.7151  0.0413
19776TIP3   OH280818   0.852   2.241   5.408  0.0186  0.3672  0.1334
19776TIP3    H180819   0.942   2.209   5.412  0.0323  0.4849  3.2820
19776TIP3    H280820   0.856   2.328   5.449 -1.5339  0.3263  0.4240
19777TIP3   OH280821   0.262   6.097   5.284  0.2365  0.4275  0.7536
19777TIP3    H180822   0.331   6.031   5.275  0.1554  0.3319  0.8274
19777TIP3    H280823   0.307   6.181   5.277  0.0384  0.4028 -2.0569
19778TIP3   OH280824   1.087   3.743   5.719 -0.1950  0.2080 -0.4095
19778TIP3    H180825   1.113   3.835   5.727  0.6811 -0.0441 -0.3286
19778TIP3    H280826   1.053   3.720   5.806  1.7130 -0.1841  0.2773
19779TIP3   OH280827   6.679   2.689   2.387  0.0701  0.0498  0.1824
19779TIP3    H180828   6.595   2.734   2.388 -0.5781 -1.1087  1.1140
19779TIP3    H280829   6.719   2.710   2.472 -0.2069 -1.0181  0.5958
19780TIP3   OH280830   3.167   2.110  10.947 -1.0134  0.6312  0.1700
19780TIP3    H180831   3.230   2.145  10.885  0.1755  1.5624  1.8036
19780TIP3    H280832   3.116   2.187  10.975 -1.9569  0.1223 -0.1142
19781TIP3   OH280833   1.485   5.299  14.748  0.2665  0.7172  0.0227
19781TIP3    H180834   1.461   5.251  14.828 -1.3901  0.8737 -0.3455
19781TIP3    H280835   1.576   5.326  14.763  0.5367 -0.6740  1.1479
19782TIP3   OH280836   1.319   2.756  11.379 -0.3106 -0.5779  0.1404
19782TIP3    H180837   1.413   2.761  11.363 -0.3918 -0.3455 -0.2581
19782TIP3    H280838   1.300   2.834  11.432 -0.1682 -0.9679  0.7756
19783TIP3   OH280839   6.152   1.020  15.384 -0.4242 -0.2073 -0.6585
19783TIP3    H180840   6.101   1.056  15.312  0.6644  1.3402 -0.7009
19783TIP3    H280841   6.092   0.960  15.428 -1.7121  0.2636 -1.7075
19784TIP3   OH280842   6.504   4.229   2.545  0.1896 -0.0456 -0.0802
19784TIP3    H180843   6.456   4.287   2.486  0.8873  0.5224 -0.1119
19784TIP3    H280844   6.590   4.270   2.553  0.9600 -1.4758 -0.6985
19785TIP3   OH280845   4.698   5.700   3.429  0.0618  0.2571  0.1118
19785TIP3    H180846   4.662   5.770   3.483  0.7165 -0.6832  1.8305
19785TIP3    H280847   4.727   5.745   3.349  2.5351  2.4306  2.0361
19786TIP3   OH280848   1.573   2.612  14.055 -0.2165 -0.4485  0.2842
19786TIP3    H180849   1.573   2.539  13.993  0.1980  0.4237 -0.7733
19786TIP3    H280850   1.630   2.678  14.015  0.5826 -0.0980  1.8960
19787TIP3   OH280851   3.965   5.799   3.995 -0.6203  0.0802 -0.0225
19787TIP3    H180852   3.877   5.838   3.998 -0.6112  0.1288  2.5081
19787TIP3    H280853   3.950   5.706   4.013 -0.0880  0.5764  4.0252
19788TIP3   OH280854   5.247   2.583  16.325  0.4016 -0.4690 -0.1166
19788TIP3    H180855   5.337   2.575  16.355  0.8941  2.4041 -0.5442
19788TIP3    H280856   5.213   2.661  16.369 -1.4389 -0.7143 -0.9676
19789TIP3   OH280857   3.829   5.016  16.262  0.2148 -0.4570 -0.2295
19789TIP3    H180858   3.735   5.003  16.268  0.1739  0.2305  1.1195
19789TIP3    H280859   3.862   4.988  16.347  0.7713  2.5575  0.6703
19790TIP3   OH280860   5.818   5.303   4.759 -0.1277  0.4476  0.1493
19790TIP3    H180861   5.780   5.216   4.748  1.4330 -0.0712 -1.8572
19790TIP3    H280862   5.747   5.363   4.736 -0.6488 -0.3767 -0.4631
19791TIP3   OH280863   0.285   2.697  15.792  0.3533  0.8083  0.0501
19791TIP3    H180864   0.263   2.606  15.775  0.0065  0.8740  0.1425
19791TIP3    H280865   0.201   2.739  15.810  0.6758  0.6601  2.3013
19792TIP3   OH280866   3.764   6.601   3.047  0.0528 -0.0248  0.3658
19792TIP3    H180867   3.690   6.570   2.994 -1.3562  0.0027  2.2182
19792TIP3    H280868   3.793   6.681   3.002 -0.8524 -0.1992 -0.5658
19793TIP3   OH280869   3.710   2.836  14.374 -0.2965 -0.4404  0.3518
19793TIP3    H180870   3.659   2.801  14.447 -1.8606 -1.2004 -1.0576
19793TIP3    H280871   3.736   2.760  14.324 -1.2565  0.1801 -1.1585
19794TIP3   OH280872   0.599   3.070  16.246 -0.2758  0.2363 -0.0774
19794TIP3    H180873   0.667   3.041  16.306  2.1682  2.8327 -1.3248
19794TIP3    H280874   0.578   2.993  16.193 -0.6241 -1.4090  2.2967
19795TIP3   OH280875   2.848   5.406  11.221 -0.2061 -0.1911  0.5461
19795TIP3    H180876   2.830   5.500  11.217  1.3610  0.1841  1.2234
19795TIP3    H280877   2.778   5.370  11.275 -1.4329  0.3913 -0.6129
19796TIP3   OH280878   3.149   4.878   6.481  0.1765 -0.2327  0.0838
19796TIP3    H180879   3.209   4.866   6.555 -0.4254  0.1123  0.6400
19796TIP3    H280880   3.067   4.840   6.511 -0.3715  0.8626  0.0028
19797TIP3   OH280881   5.156   5.977   3.806 -0.1635  0.2835  0.2317
19797TIP3    H180882   5.099   5.905   3.836 -0.5614  0.1345 -0.8393
19797TIP3    H280883   5.190   6.015   3.887 -0.9856 -0.2736  0.8644
19798TIP3   OH280884   0.928   1.593  14.245 -0.3290 -0.0189 -0.0372
19798TIP3    H180885   0.843   1.637  14.254  0.4305  1.8157 -1.1172
19798TIP3    H280886   0.982   1.631  14.314  0.0832  0.1006 -0.4144
19799TIP3   OH280887   0.324   1.945   2.292  0.4518 -0.4504 -0.1277
19799TIP3    H180888   0.289   1.882   2.354  4.1005 -1.7467  0.8983
19799TIP3    H280889   0.379   2.003   2.346 -0.6003  1.8887 -1.4525
19800TIP3   OH280890   2.602   3.651   3.643  0.0483  0.0032 -0.2144
19800TIP3    H180891   2.616   3.631   3.550 -0.5964  0.3873 -0.4057
19800TIP3    H280892   2.690   3.653   3.681  0.3779  0.5335 -0.9731
19801TIP3   OH280893   2.946   6.016   6.153 -0.1939  0.1978  0.5114
19801TIP3    H180894   3.029   6.064   6.149 -0.6546  0.9695 -1.5981
19801TIP3    H280895   2.879   6.084   6.154 -0.8288 -0.4157  0.6868
19802TIP3   OH280896   0.713   1.239  11.344  0.2024  0.0312  0.1748
19802TIP3    H180897   0.760   1.158  11.362  0.6812  0.3327  0.3170
19802TIP3    H280898   0.647   1.215  11.278  1.2567 -0.1896 -0.8347
19803TIP3   OH280899   0.500   4.310  14.643  0.9653  0.4761 -0.1217
19803TIP3    H180900   0.417   4.280  14.678  0.2852  3.1260  0.7888
19803TIP3    H280901   0.567   4.263  14.693  0.0584 -1.0519 -0.2873
19804TIP3   OH280902   5.389   3.527   0.809 -0.2729 -0.1678 -0.3286
19804TIP3    H180903   5.386   3.599   0.872  0.5422 -1.4879  1.3244
19804TIP3    H280904   5.429   3.455   0.858 -0.0194 -1.4072 -2.2513
19805TIP3   OH280905   0.826   3.355  16.493 -0.3447  0.2878 -0.0920
19805TIP3    H180906   0.835   3.423  16.560 -0.5044  1.5317 -1.2870
19805TIP3    H280907   0.913   3.348  16.454  1.2883 -4.1021  3.4842
19806TIP3   OH280908   1.410   3.410   0.211 -0.3251  0.0589 -0.2138
19806TIP3    H180909   1.350   3.438   0.142 -1.2855 -0.0359  0.5659
19806TIP3    H280910   1.376   3.326   0.240 -0.0276  0.1739  0.4861
19807TIP3   OH280911   4.694   3.807   0.944  0.2637 -0.2606  0.1351
19807TIP3    H180912   4.778   3.839   0.977  0.7223  0.4254 -1.5677
19807TIP3    H280913   4.698   3.712   0.955  1.2226 -0.2252  0.1858
19808TIP3   OH280914   4.563   0.963   6.006  0.2439 -0.4957 -0.8192
19808TIP3    H180915   4.486   0.938   5.955  0.1066  2.1708 -2.1151
19808TIP3    H280916   4.637   0.950   5.946  0.4596 -0.2829 -0.6003
19809TIP3   OH280917   4.058   3.422   2.853  0.7641  0.4432 -0.0166
19809TIP3    H180918   4.129   3.393   2.910  0.2242  0.3873  0.6512
19809TIP3    H280919   4.081   3.390   2.766  1.6157  0.5460  0.1693
19810TIP3   OH280920   4.640   0.012  14.556  0.1485 -0.1329 -0.3624
19810TIP3    H180921   4.654   0.076  14.487  2.9544 -0.7411 -0.4607
19810TIP3    H280922   4.661  -0.072  14.516 -2.9483 -1.1606 -0.0779
19811TIP3   OH280923   3.104   5.396  15.705 -0.3905 -0.2646 -0.2867
19811TIP3    H180924   3.157   5.468  15.669  1.0302 -0.4358  1.3390
19811TIP3    H280925   3.039   5.439  15.760  0.0198 -0.1747  0.1352
19812TIP3   OH280926   4.051   4.511  16.497  0.2842 -0.8488  0.2390
19812TIP3    H180927   3.974   4.528  16.442  1.2513 -1.0097 -1.2272
19812TIP3    H280928   4.017   4.461  16.571 -1.1091 -0.4391 -0.0912
19813TIP3   OH280929   0.128   6.271  15.627  0.0825  0.1669  0.0987
19813TIP3    H180930   0.150   6.333  15.696  1.2300 -0.8500  0.6797
19813TIP3    H280931   0.209   6.263  15.575 -0.4426  0.1219 -0.7362
19814TIP3   OH280932   6.526   5.033   5.200  0.3250  0.2510 -0.6671
19814TIP3    H180933   6.597   5.087   5.235  1.3071 -0.1940 -1.8888
19814TIP3    H280934   6.495   4.983   5.275 -2.0833  3.9261  1.0504
19815TIP3   OH280935   6.524   3.279  14.441  0.4240  0.1952 -0.9912
19815TIP3    H180936   6.599   3.336  14.460 -0.5653  1.5915 -1.1442
19815TIP3    H280937   6.533   3.257  14.349  0.7180  0.2455 -0.9756
19816TIP3   OH280938   3.641   5.797   3.720  0.2312  0.1845  0.5064
19816TIP3    H180939   3.567   5.765   3.772  0.6911 -1.3510  0.2321
19816TIP3    H280940   3.714   5.740   3.743  0.4012 -0.7125 -1.9984
19817TIP3   OH280941   4.975   1.669  16.299 -0.3655 -0.2681 -0.3500
19817TIP3    H180942   4.954   1.631  16.214 -0.5295 -1.2304  0.1011
19817TIP3    H280943   4.924   1.750  16.303  0.5554  0.4034 -1.6328
19818TIP3   OH280944   1.910   2.096   2.492 -0.1793  0.6904 -0.0565
19818TIP3    H180945   1.948   2.045   2.563 -0.3195 -0.9866 -1.1113
19818TIP3    H280946   1.839   2.145   2.533 -1.3512 -1.4956  0.7423
19819TIP3   OH280947   3.682   4.850   4.371  0.5169  0.4633 -0.3858
19819TIP3    H180948   3.587   4.841   4.364  0.5380  1.3861 -2.3413
19819TIP3    H280949   3.694   4.915   4.441 -0.0697 -2.5696  2.8202
19820TIP3   OH280950   1.248   6.640  16.681  0.6354 -0.7649 -0.0823
19820TIP3    H180951   1.253   6.718  16.625  0.6130  0.2198  1.2422
19820TIP3    H280952   1.155   6.633  16.704  0.7346 -0.8189  0.3055
19821TIP3   OH280953   5.142   0.874   2.871 -0.2681 -0.6222 -0.5720
19821TIP3    H180954   5.053   0.885   2.903 -0.0896 -2.0687  0.5041
19821TIP3    H280955   5.141   0.792   2.823  0.1757  0.0531 -1.7729
19822TIP3   OH280956   1.676   4.434   3.912 -0.3625  0.3469 -0.0613
19822TIP3    H180957   1.584   4.460   3.909 -0.7014 -0.6831  0.8579
19822TIP3    H280958   1.709   4.474   3.993  0.5978  2.4759 -1.4002
19823TIP3   OH280959   6.785   5.088  11.369 -0.7837  0.5839 -0.5874
19823TIP3    H180960   6.878   5.080  11.344  0.2498 -2.6405  3.2695
19823TIP3    H280961   6.786   5.147  11.444 -1.4476 -0.9726  0.7052
19824TIP3   OH280962   4.444   6.730   2.579  0.0935 -0.0550 -0.0235
19824TIP3    H180963   4.355   6.693   2.574 -0.2262  0.5240  1.1378
19824TIP3    H280964   4.437   6.814   2.533 -0.2114  0.4122  0.8429
19825TIP3   OH280965   3.934   1.866  16.520 -0.5403 -0.6888  0.5994
19825TIP3    H180966   3.921   1.887  16.427  1.0231  0.7057  0.6476
19825TIP3    H280967   4.029   1.861  16.531 -0.5840  1.0256  2.4543
19826TIP3   OH280968   4.744   0.904   2.216  0.5341  0.8982  0.1917
19826TIP3    H180969   4.714   0.819   2.250  1.5001  1.3782  2.4668
19826TIP3    H280970   4.680   0.927   2.148 -0.0046 -1.4158 -0.1632
19827TIP3   OH280971   0.751   4.873  15.529 -0.0135  0.2870 -0.1271
19827TIP3    H180972   0.698   4.902  15.603 -0.5316  1.0260 -0.7745
19827TIP3    H280973   0.839   4.861  15.566 -0.3780  0.1595  0.7100
19828TIP3   OH280974   6.821   6.367   5.240 -0.4778 -0.2094 -0.1884
19828TIP3    H180975   6.814   6.458   5.212  0.1752  0.2553  1.0709
19828TIP3    H280976   6.913   6.345   5.227 -0.4428 -0.3942  0.3416
19829TIP3   OH280977   0.842   2.413  12.925 -0.9066 -0.7951 -0.3617
19829TIP3    H180978   0.747   2.411  12.937 -0.8339  0.0544  0.5073
19829TIP3    H280979   0.872   2.327  12.956 -1.1920 -0.2659  1.4916
19830TIP3   OH280980   1.429   4.141   1.084  0.2659 -0.4730 -0.1235
19830TIP3    H180981   1.453   4.130   0.992 -0.5448 -0.4467 -0.3398
19830TIP3    H280982   1.513   4.145   1.130  0.9687  4.1595 -1.3164
19831TIP3   OH280983   1.710   1.174  12.931  0.2061 -0.0554  0.0048
19831TIP3    H180984   1.713   1.200  12.839 -0.1720 -1.8693 -0.5781
19831TIP3    H280985   1.801   1.163  12.957  0.2999  0.0237 -0.2965
19832TIP3   OH280986   0.042   2.856  15.803 -0.2220 -0.3089 -0.1036
19832TIP3    H180987   0.030   2.914  15.728 -0.2421  0.0561  0.1820
19832TIP3    H280988   0.109   2.898  15.856  0.0569 -0.7521 -0.0959
19833TIP3   OH280989   0.156   2.264  12.740 -0.0273 -0.0988  0.2483
19833TIP3    H180990   0.102   2.263  12.661 -0.5930 -0.1238  0.6306
19833TIP3    H280991   0.103   2.309  12.806  0.9813  1.1466  0.2481
19834TIP3   OH280992   6.428   5.889   5.281 -0.6013  0.0212  0.6726
19834TIP3    H180993   6.424   5.984   5.265  2.7040  0.4692  1.8108
19834TIP3    H280994   6.439   5.881   5.376  1.2655 -1.3329  0.4040
19835TIP3   OH280995   2.427   2.160   2.151 -0.0751 -0.5114  0.1089
19835TIP3    H180996   2.459   2.183   2.238 -0.0661 -1.8259  0.4809
19835TIP3    H280997   2.487   2.091   2.121 -0.4085 -0.4608 -0.7150
19836TIP3   OH280998   6.438   1.023  13.885 -0.4421  0.0450  0.7061
19836TIP3    H180999   6.464   0.991  13.798 -0.3807  0.2510  0.6497
19836TIP3    H281000   6.448   0.947  13.942 -0.0437  0.0299  0.6207
19837TIP3   OH281001   1.200   6.462   2.977 -0.2433  0.3498 -0.1415
19837TIP3    H181002   1.241   6.498   3.056  2.9464 -1.6855 -0.6848
19837TIP3    H281003   1.255   6.491   2.905 -0.9282 -0.8617 -1.2030
19838TIP3   OH281004   5.913   4.177   4.765  0.1151 -0.2830 -0.5594
19838TIP3    H181005   5.999   4.207   4.796  0.1820  0.1975 -1.1827
19838TIP3    H281006   5.891   4.237   4.693 -0.0170 -1.3764 -1.4635
19839TIP3   OH281007   6.108   5.913   4.832  0.3373 -0.9141  0.0671
19839TIP3    H181008   6.130   5.832   4.785  1.4575 -1.2732  1.1499
19839TIP3    H281009   6.120   5.890   4.925 -2.0096 -0.2926  0.5818
19840TIP3   OH281010   2.393   4.060  16.611 -0.1052  0.5776 -0.1335
19840TIP3    H181011   2.390   3.965  16.626  2.2173  0.4674 -0.1137
19840TIP3    H281012   2.474   4.089  16.653 -0.6459  2.5592 -0.3501
19841TIP3   OH281013   1.885   1.012   4.895  0.8616 -0.7797 -0.2281
19841TIP3    H181014   1.812   0.951   4.883  2.1446 -2.4411 -0.0544
19841TIP3    H281015   1.914   1.033   4.806  0.8913 -1.0422 -0.2814
19842TIP3   OH281016   5.737   1.019   3.078 -0.2725  0.5938  0.0762
19842TIP3    H181017   5.686   0.958   3.024 -0.1211  0.1519  0.4310
19842TIP3    H281018   5.824   1.019   3.038 -0.8005  2.1859 -1.2097
19843TIP3   OH281019   6.396   5.257  14.830 -0.4513 -0.5633  0.8979
19843TIP3    H181020   6.423   5.219  14.746 -0.6935 -2.2240  1.5482
19843TIP3    H281021   6.303   5.234  14.838 -1.3631  2.3847  0.1561
19844TIP3   OH281022   4.056   0.425   1.329 -0.0891  0.5197 -0.1357
19844TIP3    H181023   4.021   0.459   1.246 -0.0025 -0.5736 -0.6338
19844TIP3    H281024   4.021   0.336   1.335  0.5084  0.3309  0.6386
19845TIP3   OH281025   2.467   0.008  13.435 -0.6338 -0.0976 -0.6966
19845TIP3    H181026   2.518  -0.057  13.388  1.0159 -0.0498  0.9201
19845TIP3    H281027   2.440   0.072  13.368  2.7908  0.7384 -1.4466
19846TIP3   OH281028   6.768   5.153   5.355  0.1405  0.4898 -0.0294
19846TIP3    H181029   6.854   5.112   5.359 -1.4047 -3.1708 -0.1068
19846TIP3    H281030   6.728   5.132   5.439 -1.6692 -0.6097 -1.0885
19847TIP3   OH281031   2.867   1.400   5.810  0.3896  0.6289 -0.4176
19847TIP3    H181032   2.800   1.400   5.878 -0.0200  1.1165 -0.8089
19847TIP3    H281033   2.827   1.355   5.736  1.0840 -0.5231 -0.1102
19848TIP3   OH281034   0.035   4.121  10.890 -0.2142 -0.1943  0.2158
19848TIP3    H181035   0.026   4.074  10.973 -2.1098 -0.7900 -0.2703
19848TIP3    H281036  -0.008   4.064  10.826  0.0880  0.8394 -0.9477
19849TIP3   OH281037   5.288   4.806   3.825 -0.0062  0.1158 -0.7941
19849TIP3    H181038   5.250   4.758   3.752  1.1344 -0.1997 -1.2042
19849TIP3    H281039   5.382   4.790   3.818  0.5090  2.8614 -1.3043
19850TIP3   OH281040   5.987   2.712  10.631 -0.2071  0.4241 -0.0342
19850TIP3    H181041   6.014   2.778  10.694 -2.0845  1.0520  0.1689
19850TIP3    H281042   5.962   2.637  10.685 -1.5657  0.8699 -0.0108
19851TIP3   OH281043   1.586   3.843   3.790 -0.7575  0.3816  0.1865
19851TIP3    H181044   1.643   3.855   3.866  1.1150  0.3484 -1.1309
19851TIP3    H281045   1.535   3.924   3.785 -1.7206 -0.0621  2.0720
19852TIP3   OH281046   0.150   3.907   5.636 -0.0559  0.1839  1.1331
19852TIP3    H181047   0.124   3.915   5.727  0.0031  0.0359  1.1636
19852TIP3    H281048   0.217   3.974   5.624 -1.7235  1.8515  0.5673
19853TIP3   OH281049   5.200   2.694  10.543  0.5990 -0.1265 -0.0643
19853TIP3    H181050   5.265   2.691  10.472 -1.7323 -2.3887 -2.3368
19853TIP3    H281051   5.198   2.604  10.577  1.3547  0.8228  2.6984
19854TIP3   OH281052   1.007   5.342  13.918  0.0650 -0.3458 -0.3388
19854TIP3    H181053   1.056   5.417  13.952  1.8440 -0.7382 -1.8366
19854TIP3    H281054   0.960   5.377  13.842 -0.5748 -0.3652  0.0426
19855TIP3   OH281055   5.969   2.626   2.112  0.3767  0.1335 -0.4773
19855TIP3    H181056   5.997   2.625   2.021  0.2134 -1.5839 -0.5477
19855TIP3    H281057   5.987   2.715   2.142  1.8593  0.2997 -1.7354
19856TIP3   OH281058   4.503   6.148  11.327 -0.0371  0.2200 -0.1771
19856TIP3    H181059   4.494   6.231  11.373  0.7505 -0.7354  1.8353
19856TIP3    H281060   4.579   6.160  11.270 -0.7513  1.2807 -0.9510
19857TIP3   OH281061   5.545   0.204   2.615 -0.2837  0.3829 -0.3914
19857TIP3    H181062   5.595   0.247   2.686 -0.1112  0.2852 -0.4543
19857TIP3    H281063   5.547   0.268   2.544 -1.1549  0.8296 -0.0287
19858TIP3   OH281064   3.501   5.475   1.492 -0.2255  0.3264  0.3104
19858TIP3    H181065   3.494   5.531   1.415  0.1908  0.9016  0.6832
19858TIP3    H281066   3.472   5.530   1.565  0.6847  0.2433  0.7597
19859TIP3   OH281067   6.733   6.056   3.939 -0.4621  0.0803  0.6376
19859TIP3    H181068   6.709   6.047   3.847 -0.4672 -2.3013  0.8158
19859TIP3    H281069   6.654   6.090   3.981 -1.4822 -1.5699  0.1771
19860TIP3   OH281070   3.835   0.833  11.543  0.6377  0.1031  0.5465
19860TIP3    H181071   3.793   0.867  11.622  1.2088 -0.5436  1.1383
19860TIP3    H281072   3.863   0.911  11.495 -2.3025  0.6278 -0.4924
19861TIP3   OH281073   2.188   5.665  13.732  0.1943  0.4904  0.3916
19861TIP3    H181074   2.283   5.672  13.733  0.5656 -1.7814 -2.9742
19861TIP3    H281075   2.168   5.594  13.793  0.9577 -0.6039 -0.5884
19862TIP3   OH281076   0.685   5.803  13.939 -0.4449 -0.2651  0.6554
19862TIP3    H181077   0.712   5.765  13.855  0.5277  0.4103  0.6422
19862TIP3    H281078   0.744   5.763  14.003 -1.3955 -1.0219  1.0875
19863TIP3   OH281079   5.719   4.692   4.287  0.5021  0.3698  0.1799
19863TIP3    H181080   5.813   4.679   4.291  0.3811 -0.6157  0.0999
19863TIP3    H281081   5.687   4.669   4.374  0.1592 -1.0066 -0.2790
19864TIP3   OH281082   2.606   4.447  13.997  0.7586  0.6456 -0.4092
19864TIP3    H181083   2.618   4.511  14.068  0.8680  1.9969 -1.5903
19864TIP3    H281084   2.688   4.398  13.995  0.4097 -0.0461  0.9694
19865TIP3   OH281085   0.873   1.739  11.054  0.4191 -0.0166  0.5558
19865TIP3    H181086   0.863   1.747  10.960  1.4220  1.1857  0.5284
19865TIP3    H281087   0.910   1.651  11.067 -0.0868 -0.3355 -0.1232
19866TIP3   OH281088   6.226   2.800   3.273  0.3329 -0.4056  0.0226
19866TIP3    H181089   6.148   2.849   3.295 -0.5953 -2.0468  0.5586
19866TIP3    H281090   6.281   2.861   3.224 -0.5275  1.2838  1.1047
19867TIP3   OH281091   5.071   4.920  16.695  1.0371 -0.0826 -0.6003
19867TIP3    H181092   5.109   4.995  16.740 -2.0816  1.1900  0.2435
19867TIP3    H281093   5.036   4.866  16.766 -2.0103  0.8190 -1.2639
19868TIP3   OH281094   5.279   4.538  11.978 -0.4940  0.2072 -0.2976
19868TIP3    H181095   5.248   4.508  11.892 -2.7686 -0.5894  0.7174
19868TIP3    H281096   5.270   4.462  12.034  2.0252  0.3924  0.4778
19869TIP3   OH281097   0.165   5.385   5.989 -0.6954 -0.1403 -0.0632
19869TIP3    H181098   0.189   5.308   5.938 -1.5102 -0.1090 -0.4990
19869TIP3    H281099   0.244   5.439   5.989 -1.2199  0.7985 -3.0080
19870TIP3   OH281100   6.640   1.423  15.416  0.2551  0.5233 -0.2266
19870TIP3    H181101   6.559   1.414  15.466  1.4972 -0.9395  1.6535
19870TIP3    H281102   6.643   1.346  15.359  0.1827  0.7540 -0.5497
19871TIP3   OH281103   3.532   6.321  16.903 -0.1528  0.0625 -0.3419
19871TIP3    H181104   3.534   6.274  16.819  1.6069 -2.1221  0.8098
19871TIP3    H281105   3.439   6.334  16.920 -0.5903 -0.2818 -2.1910
19872TIP3   OH281106   0.429   6.661  15.510 -0.1253  0.0279  0.1875
19872TIP3    H181107   0.394   6.746  15.484 -0.9435  0.0915  1.4458
19872TIP3    H281108   0.394   6.646  15.598  0.1660 -1.5196  0.0656
19873TIP3   OH281109   6.037   3.508   4.345 -1.1112 -0.7592 -0.3771
19873TIP3    H181110   5.961   3.476   4.393 -0.7354 -0.0145  0.7387
19873TIP3    H281111   6.107   3.446   4.368 -0.9779 -0.5076 -0.0959
19874TIP3   OH281112   0.280   6.876  14.739  0.3625 -0.2018  0.2473
19874TIP3    H181113   0.208   6.868  14.801  0.2004  0.1879  0.1170
19874TIP3    H281114   0.262   6.958  14.693  0.1540 -0.7761 -0.7319
19875TIP3   OH281115   3.531   0.606  14.334  0.1824  0.0746 -0.6208
19875TIP3    H181116   3.617   0.604  14.293  0.1970  1.7062 -0.7587
19875TIP3    H281117   3.545   0.570  14.421  0.6861 -1.0255 -1.1330
19876TIP3   OH281118   1.638   0.715  11.784 -0.1920 -0.4950  0.0885
19876TIP3    H181119   1.688   0.759  11.715 -0.9890  1.1726  0.5180
19876TIP3    H281120   1.672   0.626  11.785  0.6858 -0.2238 -1.6224
19877TIP3   OH281121   5.213   2.910   3.658  0.5196 -0.0141  0.7199
19877TIP3    H181122   5.230   2.831   3.710  1.1938 -0.7525 -0.5589
19877TIP3    H281123   5.202   2.878   3.569  0.6419  1.3291  0.1985
19878TIP3   OH281124   4.717   4.190  13.429  0.1142 -0.4078  0.0741
19878TIP3    H181125   4.783   4.247  13.390  1.6715 -2.4096 -0.4135
19878TIP3    H281126   4.749   4.173  13.517 -1.2991  0.8611  0.8841
19879TIP3   OH281127   6.576   5.777  15.684  0.5597  0.2618  0.3361
19879TIP3    H181128   6.671   5.779  15.682  0.5723  1.0099 -2.2935
19879TIP3    H281129   6.549   5.846  15.623 -1.6975  0.7032  1.6915
19880TIP3   OH281130   5.264   0.146  16.025  0.2877 -0.0880  0.1687
19880TIP3    H181131   5.315   0.068  16.047 -1.1065 -1.2449 -0.5685
19880TIP3    H281132   5.188   0.143  16.083  1.0501  1.7024  1.3613
19881TIP3   OH281133   4.692   5.893   3.765  0.1198  0.5000  0.3939
19881TIP3    H181134   4.605   5.932   3.775 -2.8886 -4.7500 -1.4430
19881TIP3    H281135   4.732   5.942   3.694 -2.2049  1.8131 -0.1287
19882TIP3   OH281136   3.203   2.482  13.231 -0.0992  0.4532  0.0959
19882TIP3    H181137   3.294   2.510  13.230  0.4086 -0.8573  2.1834
19882TIP3    H281138   3.207   2.388  13.214 -1.0742  0.3885  0.1858
19883TIP3   OH281139   0.701   1.146   0.830  0.3056 -0.7101 -0.5354
19883TIP3    H181140   0.656   1.179   0.753  1.0633 -1.3269 -1.2713
19883TIP3    H281141   0.794   1.158   0.811  0.5539 -1.9745 -0.2618
19884TIP3   OH281142   4.300   1.641   5.736  0.0993 -0.8852 -0.3513
19884TIP3    H181143   4.325   1.733   5.749  0.6086 -0.9717 -0.6597
19884TIP3    H281144   4.215   1.633   5.779  0.9641 -0.7787  1.4885
19885TIP3   OH281145   2.806   4.030   1.264 -0.0574  0.2997 -0.0357
19885TIP3    H181146   2.901   4.034   1.251 -0.0864 -0.4483 -0.5716
19885TIP3    H281147   2.771   4.087   1.197 -0.1368 -2.4918 -2.5982
19886TIP3   OH281148   6.434   0.435   0.197  0.0208  0.2033  0.3857
19886TIP3    H181149   6.467   0.356   0.153 -0.5574 -0.5369  1.2518
19886TIP3    H281150   6.496   0.503   0.173 -0.2808 -0.1619 -1.5953
19887TIP3   OH281151   2.977   0.973  15.097  0.5580 -0.0857 -0.1889
19887TIP3    H181152   3.063   0.940  15.125  0.3049 -0.7772 -0.2088
19887TIP3    H281153   2.973   0.954  15.004  0.4602  0.1230 -0.2285
19888TIP3   OH281154   6.809   5.202   3.345 -0.8041  0.4922 -0.1684
19888TIP3    H181155   6.749   5.132   3.318  0.0092 -0.4572  0.3949
19888TIP3    H281156   6.770   5.282   3.311 -0.8872 -0.4053 -2.3769
19889TIP3   OH281157   4.716   5.616   4.149 -0.5069  0.3582 -0.1665
19889TIP3    H181158   4.738   5.709   4.150  3.1421 -0.3488  0.3947
19889TIP3    H281159   4.662   5.605   4.071  2.4345  2.3527 -2.7047
19890TIP3   OH281160   2.673   5.662   0.477 -0.2042  0.0923 -0.6730
19890TIP3    H181161   2.579   5.673   0.495 -0.1550  0.6946 -0.7481
19890TIP3    H281162   2.695   5.578   0.516 -0.8661 -0.2484 -1.0030
19891TIP3   OH281163   5.738   3.940   3.860  0.4736  0.3845 -0.3606
19891TIP3    H181164   5.705   3.857   3.896 -0.4192  0.8480 -0.1038
19891TIP3    H281165   5.808   3.913   3.800 -1.2856 -0.7363 -2.0082
19892TIP3   OH281166   4.920   1.512   2.852  0.2318  0.4097  0.0170
19892TIP3    H181167   5.008   1.492   2.882  0.9594  1.4194 -1.3064
19892TIP3    H281168   4.909   1.605   2.872  0.0116  0.6247 -1.0486
19893TIP3   OH281169   4.922   1.104   2.262  0.4592  0.2633 -0.1677
19893TIP3    H181170   4.840   1.055   2.258  0.7007 -0.0692 -2.4239
19893TIP3    H281171   4.975   1.057   2.326 -0.6161 -0.3295  0.3061
19894TIP3   OH281172   2.046   6.427   3.087 -0.4852 -0.3523  0.4649
19894TIP3    H181173   1.957   6.440   3.055 -0.7371  0.2355  1.3538
19894TIP3    H281174   2.039   6.351   3.144 -0.2800 -0.6980  0.0300
19895TIP3   OH281175   3.233   5.086  15.157 -0.0851 -0.1467 -0.1760
19895TIP3    H181176   3.193   5.117  15.238  1.2732 -0.3218  0.5996
19895TIP3    H281177   3.300   5.151  15.137  0.9032 -1.0843 -0.0606
19896TIP3   OH281178   4.144   6.873  11.799  0.4131 -0.0420  0.1821
19896TIP3    H181179   4.130   6.873  11.894  0.8848  2.2850  0.3101
19896TIP3    H281180   4.063   6.837  11.763 -0.3674  0.4047  1.4180
19897TIP3   OH281181   1.740   4.731  14.231 -0.2730 -0.1363  0.3935
19897TIP3    H181182   1.770   4.798  14.293  1.5673  0.3577 -0.9342
19897TIP3    H281183   1.818   4.709  14.180 -1.4596 -1.3594 -0.9886
19898TIP3   OH281184   4.259   3.568  12.406  0.4084 -0.3238  0.5664
19898TIP3    H181185   4.199   3.550  12.479 -0.0406 -1.4298 -0.0338
19898TIP3    H281186   4.202   3.571  12.329  0.9030  0.5918  0.2311
19899TIP3   OH281187   1.855   5.284  13.066 -0.2693 -0.1714  0.1252
19899TIP3    H181188   1.798   5.216  13.101  0.4007 -0.8344 -0.0555
19899TIP3    H281189   1.944   5.252  13.082  0.0923  1.2278  1.1830
19900TIP3   OH281190   3.809   1.468   5.127 -0.1008  0.0537 -0.2160
19900TIP3    H181191   3.798   1.465   5.032  0.1190  0.6397 -0.2632
19900TIP3    H281192   3.892   1.513   5.140  0.6438 -1.3842  0.2173
19901TIP3   OH281193   5.377   3.120   1.369  0.1441 -0.5240  0.3888
19901TIP3    H181194   5.394   3.043   1.315 -2.3126 -0.8080 -0.1124
19901TIP3    H281195   5.431   3.189   1.330  0.6477 -1.4394 -0.5886
19902TIP3   OH281196   6.885   3.805  15.786 -0.8809  0.0118 -0.6372
19902TIP3    H181197   6.854   3.728  15.833 -3.2881  1.5062  0.4058
19902TIP3    H281198   6.886   3.875  15.852  0.2638  1.1337 -1.7781
19903TIP3   OH281199   0.456   2.468  16.871 -0.0417 -0.1753  0.3285
19903TIP3    H181200   0.528   2.416  16.837  0.3538  0.5990 -0.0369
19903TIP3    H281201   0.447   2.440  16.962 -0.5473 -1.6414 -0.1564
19904TIP3   OH281202   0.247   4.540   1.776  0.4003 -0.0673 -0.4241
19904TIP3    H181203   0.159   4.568   1.800  0.8774  0.2661  1.0559
19904TIP3    H281204   0.293   4.621   1.754  0.7925 -0.0458  0.4317
19905TIP3   OH281205   6.115   3.228  11.592  0.2873 -0.5571  0.5408
19905TIP3    H181206   6.160   3.176  11.525  0.0529 -1.4681  1.0659
19905TIP3    H281207   6.070   3.297  11.543  1.6794 -0.0416 -0.0535
19906TIP3   OH281208   0.291   4.261  15.906 -0.0551  0.2334 -0.3844
19906TIP3    H181209   0.372   4.284  15.951 -0.5877  1.0544  0.1965
19906TIP3    H281210   0.258   4.345  15.873 -1.2684  0.1162  0.4461
19907TIP3   OH281211   5.837   2.522   1.634 -0.8694 -0.0199  0.4742
19907TIP3    H181212   5.824   2.451   1.697 -1.1144  0.2728  0.7523
19907TIP3    H281213   5.749   2.542   1.602 -0.5752 -1.8354 -1.8168
19908TIP3   OH281214   6.084   6.055   5.190 -0.2650  0.5751  0.2868
19908TIP3    H181215   6.130   5.980   5.151  1.6960  1.0134  1.6109
19908TIP3    H281216   6.150   6.124   5.193 -1.0194  1.2663  2.2085
19909TIP3   OH281217   5.159   5.006   0.725  0.7193  0.2256  0.4701
19909TIP3    H181218   5.087   5.012   0.788  0.2696 -1.3523  0.1491
19909TIP3    H281219   5.173   5.096   0.695 -0.1217  0.7586  1.6416
19910TIP3   OH281220   2.000   6.790   0.464 -0.4775 -0.7686  1.1317
19910TIP3    H181221   1.997   6.886   0.467  0.5031 -0.7417  3.5597
19910TIP3    H281222   1.909   6.764   0.449 -0.5786  0.5258 -0.7497
19911TIP3   OH281223   6.315   1.800   4.729 -0.2832 -0.5754 -0.5197
19911TIP3    H181224   6.255   1.825   4.799 -0.5950 -0.9934 -0.6347
19911TIP3    H281225   6.280   1.845   4.652  0.1349 -0.0103 -0.3880
19912TIP3   OH281226   0.487   2.729  13.901  0.0815  0.0526  0.5098
19912TIP3    H181227   0.451   2.643  13.879  0.7854 -0.3410  0.8801
19912TIP3    H281228   0.410   2.781  13.924 -0.4215 -0.2615 -0.4010
19913TIP3   OH281229   4.655   4.142   3.346 -0.1095  0.2024  0.1459
19913TIP3    H181230   4.638   4.232   3.371  2.7308  0.6294  0.8995
19913TIP3    H281231   4.660   4.144   3.250  0.1637  0.9116  0.1690
19914TIP3   OH281232   2.107   1.826   3.535  0.0533  0.0254  0.2935
19914TIP3    H181233   2.090   1.827   3.441 -0.8727 -1.1846  0.4242
19914TIP3    H281234   2.079   1.912   3.566 -2.7911 -0.6818 -0.0382
19915TIP3   OH281235   3.568   0.204  12.577  0.3074 -0.5258 -0.0598
19915TIP3    H181236   3.492   0.159  12.614 -1.1887 -0.0240 -2.3608
19915TIP3    H281237   3.553   0.296  12.596  0.7676 -0.4907  0.1562
19916TIP3   OH281238   6.623   6.875   4.478  0.6925 -0.3676  0.4045
19916TIP3    H181239   6.605   6.937   4.408  0.8629 -2.9164 -2.0926
19916TIP3    H281240   6.540   6.865   4.524  0.1184  0.1691 -0.4912
19917TIP3   OH281241   4.711   2.022   2.529 -0.1149 -1.0273 -0.0699
19917TIP3    H181242   4.799   1.997   2.559  0.1982 -0.8127 -0.7759
19917TIP3    H281243   4.720   2.115   2.507 -0.9318 -0.5974  1.3214
19918TIP3   OH281244   4.946   4.720  13.755  0.2643  0.1544  0.1137
19918TIP3    H181245   4.886   4.687  13.823 -0.5884  0.0867 -0.6500
19918TIP3    H281246   5.019   4.658  13.756  0.1382  0.0054  0.7933
19919TIP3   OH281247   3.686   0.134  11.591 -0.0049 -1.2639  0.3376
19919TIP3    H181248   3.629   0.131  11.514 -0.9539 -0.9734  1.0051
19919TIP3    H281249   3.750   0.202  11.570 -0.2003 -1.2412 -0.2226
19920TIP3   OH281250   4.432   1.624   3.455  0.3519 -0.1782 -0.5194
19920TIP3    H181251   4.356   1.623   3.398 -0.4716 -0.6534  0.5501
19920TIP3    H281252   4.483   1.547   3.430 -1.4141 -2.0192  1.1638
19921TIP3   OH281253   6.317   0.040   1.806 -0.3353 -0.2281 -0.3457
19921TIP3    H181254   6.367  -0.040   1.827  2.0646  1.8423  2.7938
19921TIP3    H281255   6.379   0.094   1.757 -0.7917  0.8785  0.2601
19922TIP3   OH281256   5.349   1.511   1.557  0.1150  0.3547  0.1771
19922TIP3    H181257   5.377   1.575   1.491 -0.3753 -0.5626 -0.9577
19922TIP3    H281258   5.377   1.427   1.523 -2.6121 -0.4633 -0.3293
19923TIP3   OH281259   1.761   4.588   1.830  0.7513  0.3545  0.3264
19923TIP3    H181260   1.716   4.547   1.756 -1.0918  2.2146  0.3097
19923TIP3    H281261   1.841   4.625   1.791 -0.4663  1.8164 -0.9692
19924TIP3   OH281262   2.850   1.877   5.271  0.0701  0.6547 -0.5778
19924TIP3    H181263   2.899   1.947   5.228  1.2131 -0.1972 -0.7180
19924TIP3    H281264   2.896   1.797   5.247 -1.8366 -0.2875 -1.2962
19925TIP3   OH281265   5.886   1.052  11.011  0.2468  0.4134 -0.2698
19925TIP3    H181266   5.898   1.012  10.925  1.4053 -1.4240  0.6633
19925TIP3    H281267   5.827   1.126  10.996  0.9072  0.5240 -2.7181
19926TIP3   OH281268   4.615   6.713   4.153  0.0074  0.9850  0.1310
19926TIP3    H181269   4.528   6.725   4.191  0.4796  1.1294  1.1962
19926TIP3    H281270   4.641   6.625   4.179 -0.7228  0.0444 -2.0960
19927TIP3   OH281271   4.143   5.751   2.709  0.3542  0.0174  0.1082
19927TIP3    H181272   4.238   5.756   2.702  0.3748 -0.1983  0.2026
19927TIP3    H281273   4.124   5.777   2.799  0.2537  0.8780 -0.1516
19928TIP3   OH281274   1.689   0.355   1.670 -0.6266 -0.1281 -0.2169
19928TIP3    H181275   1.649   0.431   1.713  0.6546 -0.2382  1.2485
19928TIP3    H281276   1.720   0.300   1.742  1.2054 -0.5481 -1.2671
19929TIP3   OH281277   4.571   3.557   6.384 -0.1255 -0.2645 -0.6233
19929TIP3    H181278   4.494   3.506   6.410  0.7483 -1.5549 -0.4615
19929TIP3    H281279   4.643   3.521   6.436  0.5774  0.9831 -0.6905
19930TIP3   OH281280   6.665   2.338  15.071 -0.0713  0.0964  0.0207
19930TIP3    H181281   6.753   2.352  15.105 -0.6184 -0.8109  1.9873
19930TIP3    H281282   6.653   2.243  15.074 -1.0217  0.1884 -0.4621
19931TIP3   OH281283   4.030   2.462  13.984  0.1079 -0.3407  0.2798
19931TIP3    H181284   4.075   2.507  13.913  1.2561 -1.5068  0.2348
19931TIP3    H281285   4.044   2.369  13.967 -0.5814 -0.6747  1.4041
19932TIP3   OH281286   2.960   6.242   3.030  0.0002  0.8890 -0.2382
19932TIP3    H181287   3.046   6.200   3.019 -0.2649  0.6677 -1.5962
19932TIP3    H281288   2.962   6.277   3.119 -0.1181 -2.8475  1.4317
19933TIP3   OH281289   6.401   2.025  16.922  0.4845  1.0002  0.2796
19933TIP3    H181290   6.343   2.021  16.846  0.7556 -0.5290  0.1389
19933TIP3    H281291   6.377   2.108  16.965 -0.4062  1.3662 -0.8706
19934TIP3   OH281292   0.463   5.019   5.758  0.0668  0.0517  0.0032
19934TIP3    H181293   0.413   4.950   5.802  0.5635 -0.2053  0.1770
19934TIP3    H281294   0.413   5.099   5.775  0.2881 -0.0247  1.1249
19935TIP3   OH281295   6.362   1.278   1.810  0.0019 -0.1570  0.1920
19935TIP3    H181296   6.373   1.196   1.762 -2.5684 -2.2568  2.8201
19935TIP3    H281297   6.410   1.265   1.892 -0.2651  1.0624  0.5671
19936TIP3   OH281298   5.513   0.160  11.093 -0.1935  0.0458 -0.0909
19936TIP3    H181299   5.460   0.209  11.154 -0.7661  2.9998 -2.7225
19936TIP3    H281300   5.452   0.132  11.024  1.1457  1.2739 -1.8659
19937TIP3   OH281301   5.539   5.489  16.348 -0.7823  0.6312 -0.1983
19937TIP3    H181302   5.557   5.546  16.273 -0.3431 -2.3315 -2.5493
19937TIP3    H281303   5.626   5.463  16.380 -0.9584  0.1704 -0.0875
19938TIP3   OH281304   5.883   6.442   1.194  0.1139  0.6589 -0.4963
19938TIP3    H181305   5.887   6.536   1.211 -1.8600  0.6814  0.1580
19938TIP3    H281306   5.813   6.411   1.252 -0.0075 -1.0170 -1.4913
19939TIP3   OH281307   2.716   3.531   3.415 -0.3651  0.0234 -0.8955
19939TIP3    H181308   2.772   3.453   3.411 -0.3060 -0.0178  0.3810
19939TIP3    H281309   2.763   3.597   3.363  0.7322 -0.0997 -0.0784
19940TIP3   OH281310   0.882   6.279  12.779  0.0623  0.2918 -0.2952
19940TIP3    H181311   0.885   6.204  12.839  2.3873  0.1660 -0.4929
19940TIP3    H281312   0.847   6.350  12.833  1.3367 -0.0213  1.0083
19941TIP3   OH281313   2.895   0.347  12.565  0.1157 -0.1931  0.8656
19941TIP3    H181314   2.922   0.258  12.585  1.5435 -0.0528 -0.3130
19941TIP3    H281315   2.963   0.402  12.602 -0.4583  0.3938  1.0713
19942TIP3   OH281316   4.393   3.065   1.574  0.0975 -0.8104  0.3413
19942TIP3    H181317   4.311   3.112   1.589  0.3489 -0.3008  0.1186
19942TIP3    H281318   4.368   2.990   1.519 -0.0909 -0.2249 -0.3751
19943TIP3   OH281319   5.009   2.552   0.055  0.0581 -0.1603 -0.1775
19943TIP3    H181320   5.003   2.641   0.090 -0.6702  0.3187 -1.4277
19943TIP3    H281321   4.918   2.527   0.037  0.3199 -0.7911 -0.6819
19944TIP3   OH281322   4.527   3.098  16.838  0.2965 -0.7917 -0.5519
19944TIP3    H181323   4.451   3.092  16.779  1.3761 -3.2096 -1.8241
19944TIP3    H281324   4.588   3.156  16.793 -0.3760  0.4199  0.0437
19945TIP3   OH281325   1.469   3.933   2.484  0.0099  0.1419 -0.1143
19945TIP3    H181326   1.470   3.949   2.389  3.7827 -0.0565 -0.2582
19945TIP3    H281327   1.533   3.863   2.497  1.2510  1.6560  2.7520
19946TIP3   OH281328   0.738   2.662  14.754  0.1746 -0.0696 -0.3032
19946TIP3    H181329   0.763   2.585  14.805  0.7158 -0.1048 -0.6095
19946TIP3    H281330   0.649   2.645  14.726  0.5367 -0.9256 -0.9779
19947TIP3   OH281331   0.417   4.125  15.414 -0.9558 -0.2463 -0.3358
19947TIP3    H181332   0.364   4.188  15.462 -0.3615  1.4662 -1.8444
19947TIP3    H281333   0.488   4.102  15.474  0.2148  2.4496 -0.5621
19948TIP3   OH281334   2.088   2.015  14.396  0.1311 -0.5504 -0.3950
19948TIP3    H181335   2.025   1.972  14.455  0.0252 -0.7373 -0.6433
19948TIP3    H281336   2.156   2.049  14.454 -0.7424  0.6164 -0.0028
19949TIP3   OH281337   0.769   5.871  11.491  0.0799 -0.2170 -0.0490
19949TIP3    H181338   0.676   5.871  11.514  0.5659  0.7362  2.1879
19949TIP3    H281339   0.782   5.787  11.447 -1.8871 -0.2240 -0.7472
19950TIP3   OH281340   1.875   3.464   2.034 -0.1723  0.2734  0.6113
19950TIP3    H181341   1.887   3.416   2.116  0.0785 -0.5544  0.1020
19950TIP3    H281342   1.788   3.504   2.042  0.3058  1.1237  1.7306
19951TIP3   OH281343   1.223   4.892   6.095 -0.3256  0.2071  0.2315
19951TIP3    H181344   1.235   4.977   6.138 -1.6806  0.8276 -0.5547
19951TIP3    H281345   1.206   4.914   6.003  0.3959 -0.9851 -0.2211
19952TIP3   OH281346   2.661   5.562  10.796  0.1220  0.0573  0.0428
19952TIP3    H181347   2.734   5.521  10.843  0.6178  0.4752 -0.3434
19952TIP3    H281348   2.664   5.522  10.709  1.0989  1.4554 -0.5888
19953TIP3   OH281349   5.272   0.815   5.118 -0.2398  0.2810  0.3914
19953TIP3    H181350   5.221   0.772   5.187 -0.4010  0.9802  0.7237
19953TIP3    H281351   5.266   0.908   5.139  2.1238  0.3334  1.1055
19954TIP3   OH281352   6.170   1.008  11.564 -0.5126  0.1321  0.3974
19954TIP3    H181353   6.138   1.086  11.518 -0.6127 -0.5386 -0.6987
19954TIP3    H281354   6.263   1.003  11.540 -0.0319  0.8787  1.8882
19955TIP3   OH281355   6.424   1.428   0.798  0.6940 -0.2184 -0.2253
19955TIP3    H181356   6.511   1.466   0.787  1.9230 -2.5944  0.5027
19955TIP3    H281357   6.374   1.494   0.845  3.4351 -0.2988  3.1894
19956TIP3   OH281358   4.480   0.336  12.883  0.0960 -0.3072  0.7591
19956TIP3    H181359   4.558   0.282  12.872  1.2876  1.3744  0.5173
19956TIP3    H281360   4.505   0.421  12.847 -1.5032  0.5750  1.6465
19957TIP3   OH281361   0.632   4.613   5.807 -0.6435  0.6062 -0.3138
19957TIP3    H181362   0.712   4.565   5.831 -1.5364 -0.2197  1.1794
19957TIP3    H281363   0.625   4.682   5.873 -2.0200 -0.3843  0.6433
19958TIP3   OH281364   5.921   0.119  14.895 -0.5109  0.2217  0.1710
19958TIP3    H181365   6.000   0.087  14.938  1.0316  0.4700 -2.2984
19958TIP3    H281366   5.856   0.051  14.912  1.4936 -2.2564 -1.3328
19959TIP3   OH281367   2.550   3.205   4.801 -0.0182 -0.2248  0.6419
19959TIP3    H181368   2.462   3.236   4.822 -0.0550 -0.1568  0.3917
19959TIP3    H281369   2.568   3.137   4.867 -1.1962 -1.9521 -0.7265
19960TIP3   OH281370   6.813   1.881   0.798 -0.5572 -0.3443 -0.1758
19960TIP3    H181371   6.779   1.814   0.740 -2.0836 -3.4217  3.8308
19960TIP3    H281372   6.736   1.918   0.841  0.4548  2.1581 -0.2899
19961TIP3   OH281373   5.663   2.960   1.577 -0.0336  0.2897 -0.0224
19961TIP3    H181374   5.681   2.954   1.483 -0.6697 -1.0960 -0.0728
19961TIP3    H281375   5.749   2.946   1.618  0.5373  2.4044 -0.3890
19962TIP3   OH281376   0.258   4.557  14.695 -0.4706 -1.0134 -0.2101
19962TIP3    H181377   0.314   4.523  14.765 -1.0968 -0.9476  0.3212
19962TIP3    H281378   0.250   4.484  14.634 -1.6090 -1.7796  0.8070
19963TIP3   OH281379   5.521   5.277  14.525  0.2613 -0.3512  0.3733
19963TIP3    H181380   5.544   5.341  14.457 -0.4188 -0.6396 -0.1413
19963TIP3    H281381   5.603   5.261  14.571  0.3797  1.1818  0.7690
19964TIP3   OH281382   2.471   1.112   4.839  0.1421  0.5429  0.1706
19964TIP3    H181383   2.397   1.162   4.807  0.6856  0.8860 -0.5623
19964TIP3    H281384   2.508   1.166   4.909 -3.2161 -1.7621  4.1861
19965TIP3   OH281385   5.126   4.218   2.680 -0.2186  0.1802 -0.7928
19965TIP3    H181386   5.172   4.187   2.759 -1.9534 -1.3678 -0.3143
19965TIP3    H281387   5.187   4.280   2.640  1.3293 -0.0868  0.9807
19966TIP3   OH281388   3.689   3.863   3.421 -0.0639 -0.4801  0.0056
19966TIP3    H181389   3.740   3.784   3.441 -1.2231 -1.1885  0.3020
19966TIP3    H281390   3.672   3.857   3.327  0.5345 -0.1457 -0.1300
19967TIP3   OH281391   1.251   2.804  13.907  0.1898 -0.6221  0.4418
19967TIP3    H181392   1.243   2.708  13.909  2.2258 -0.9145 -1.2074
19967TIP3    H281393   1.235   2.827  13.816  1.3234  0.3967  0.4713
19968TIP3   OH281394   1.385   0.722   5.170  0.0482  0.1013 -0.2648
19968TIP3    H181395   1.438   0.796   5.200  1.5137 -1.5043  1.3573
19968TIP3    H281396   1.295   0.751   5.182  0.4595  2.8143 -2.8423
19969TIP3   OH281397   4.023   2.950   4.984 -0.4664  0.0212 -0.3376
19969TIP3    H181398   4.048   3.038   4.956 -0.8485  0.3398  0.2901
19969TIP3    H281399   3.931   2.943   4.960 -0.5974  0.0223  0.1440
19970TIP3   OH281400   6.075   2.923   5.683  0.0395  0.1138 -0.2816
19970TIP3    H181401   6.089   2.890   5.772  1.0149  0.1054 -0.4190
19970TIP3    H281402   5.990   2.966   5.686  0.5549  1.1106  0.9555
19971TIP3   OH281403   6.498   1.434   2.544  0.4553 -0.5580 -0.3645
19971TIP3    H181404   6.590   1.429   2.574  0.7706  0.0812 -1.2062
19971TIP3    H281405   6.466   1.517   2.580  0.3585 -0.5411 -0.4916
19972TIP3   OH281406   4.874   6.360  12.679  0.0487 -0.1345  0.2409
19972TIP3    H181407   4.904   6.427  12.617  1.8448 -1.0771  0.0218
19972TIP3    H281408   4.884   6.400  12.765 -1.3899  0.7738  0.0303
19973TIP3   OH281409   1.258   3.899  11.678  0.3282  0.2226  0.9519
19973TIP3    H181410   1.203   3.831  11.717 -0.7762  1.1578  1.1112
19973TIP3    H281411   1.204   3.978  11.685  0.8253  0.7533 -0.9023
19974TIP3   OH281412   1.646   1.068  15.606 -0.0449 -0.2582  0.5026
19974TIP3    H181413   1.713   1.020  15.557  0.3089 -0.5791  1.2711
19974TIP3    H281414   1.586   1.101  15.540  1.9859  1.8270 -0.4228
19975TIP3   OH281415   4.657   4.383  15.893 -0.1116 -0.0317 -0.0300
19975TIP3    H181416   4.713   4.372  15.816  0.7912 -1.2614  0.7586
19975TIP3    H281417   4.634   4.476  15.894  1.8627  0.4946 -0.4265
19976TIP3   OH281418   3.184   4.053  13.731 -0.8583 -0.3370 -0.5593
19976TIP3    H181419   3.207   4.142  13.754 -0.6909 -0.4227 -0.3965
19976TIP3    H281420   3.132   4.021  13.805 -0.3455 -0.6021 -0.3069
19977TIP3   OH281421   3.705   0.365   0.587 -0.0610  0.1471 -0.2011
19977TIP3    H181422   3.728   0.353   0.495 -1.8639  0.0606 -0.6879
19977TIP3    H281423   3.661   0.284   0.611 -0.6672  0.6311  0.3611
19978TIP3   OH281424   4.763   3.176  13.376 -0.1214 -0.0312  0.0383
19978TIP3    H181425   4.751   3.152  13.468 -0.6974  1.2332  0.3150
19978TIP3    H281426   4.856   3.197  13.368 -0.0231 -0.3791  0.2726
19979TIP3   OH281427   6.219   1.985  14.297 -0.3227 -0.3574  0.0018
19979TIP3    H181428   6.243   1.999  14.206  1.4668  0.5314  0.5504
19979TIP3    H281429   6.156   2.054  14.316 -1.0104 -0.7947 -0.6511
19980TIP3   OH281430   2.724   3.415   4.843  0.2150  0.2811 -0.2412
19980TIP3    H181431   2.798   3.359   4.868 -0.0670 -0.5194 -1.1395
19980TIP3    H281432   2.655   3.353   4.818 -0.1185  1.0265 -1.2275
19981TIP3   OH281433   1.904   4.987   2.074  0.1447  0.2512  0.5199
19981TIP3    H181434   1.874   4.896   2.080  0.0974  0.2560  0.3654
19981TIP3    H281435   1.824   5.039   2.084  0.1273  0.2682  0.2977
19982TIP3   OH281436   4.526   4.714   0.643 -0.3639 -0.1399 -0.5773
19982TIP3    H181437   4.585   4.772   0.692 -1.0933 -0.2782  0.5082
19982TIP3    H281438   4.532   4.631   0.690 -2.1703  0.1142  0.1778
19983TIP3   OH281439   3.230   6.015   3.240 -0.0453  0.0160  0.3691
19983TIP3    H181440   3.193   6.100   3.216  0.4427  0.0654 -0.2320
19983TIP3    H281441   3.181   5.952   3.187 -0.6435 -0.1224  1.0671
19984TIP3   OH281442   3.240   4.563   1.507 -0.1572  0.2456  0.3658
19984TIP3    H181443   3.173   4.597   1.565  0.3168  0.0331  1.0437
19984TIP3    H281444   3.192   4.503   1.449 -0.8599  1.4746 -0.3626
19985TIP3   OH281445   5.147   1.045  14.901  0.2733 -0.7477  0.3267
19985TIP3    H181446   5.163   0.980  14.970 -0.9062 -0.8187  0.5518
19985TIP3    H281447   5.192   1.009  14.824  1.6843 -0.6255  1.0479
19986TIP3   OH281448   0.638   3.901   2.039  0.3616  0.0710  0.7805
19986TIP3    H181449   0.699   3.975   2.038 -1.1227  1.3390  0.6768
19986TIP3    H281450   0.663   3.848   1.964  0.1176  1.6425 -0.4730
19987TIP3   OH281451   1.870   0.667  16.037  0.1476  0.2897 -0.3088
19987TIP3    H181452   1.904   0.680  16.125 -0.5759  0.8946 -0.1046
19987TIP3    H281453   1.806   0.597  16.046  0.3944  0.0465 -0.4408
19988TIP3   OH281454   1.791   4.720   1.211 -0.4007 -0.3058 -0.6186
19988TIP3    H181455   1.744   4.748   1.290 -0.1083 -2.4752  0.4024
19988TIP3    H281456   1.736   4.750   1.139  0.0129  2.9763  0.2760
19989TIP3   OH281457   2.055   6.114   2.099 -0.4286  0.4897  0.0928
19989TIP3    H181458   2.039   6.029   2.138  1.1525 -0.1819 -0.6312
19989TIP3    H281459   2.143   6.138   2.127  0.0336  0.8250 -1.4974
19990TIP3   OH281460   5.927   2.349  13.928  0.0596 -0.2278 -0.3962
19990TIP3    H181461   5.960   2.300  13.852 -1.3374 -1.6445 -0.1411
19990TIP3    H281462   5.920   2.283  13.998 -1.9093  0.2693 -0.0564
19991TIP3   OH281463   5.310   6.360   1.189 -0.1274  0.2890 -0.4380
19991TIP3    H181464   5.217   6.344   1.209 -0.4408  0.2300 -1.8098
19991TIP3    H281465   5.354   6.280   1.216 -0.7010 -0.2495 -1.0459
19992TIP3   OH281466   1.618   2.199  11.057 -0.2770 -0.0427  0.1749
19992TIP3    H181467   1.549   2.138  11.030  0.2467 -1.5213  1.9626
19992TIP3    H281468   1.602   2.212  11.151  0.4284  1.5524  0.0924
19993TIP3   OH281469   3.669   3.128   4.925  0.7326  0.2725 -0.0402
19993TIP3    H181470   3.645   3.220   4.935 -2.2627 -0.4915  0.7373
19993TIP3    H281471   3.626   3.101   4.844 -0.3438 -0.9715  0.9179
19994TIP3   OH281472   2.528   5.410   3.156 -0.3558 -0.5608  0.6493
19994TIP3    H181473   2.467   5.374   3.091 -0.9981 -0.4982  1.1987
19994TIP3    H281474   2.484   5.489   3.188  0.8842  0.5493 -0.3030
19995TIP3   OH281475   6.664   3.257  11.372 -0.2687 -0.5014  0.3846
19995TIP3    H181476   6.634   3.272  11.461 -0.4044 -0.7791  0.3875
19995TIP3    H281477   6.613   3.318  11.318  1.9428  1.8757  0.8148
19996TIP3   OH281478   3.336   3.175  15.476 -0.1646 -0.0521 -0.5707
19996TIP3    H181479   3.244   3.148  15.474 -0.0736 -0.8135  1.9577
19996TIP3    H281480   3.333   3.268  15.497 -0.3965 -0.3894  1.0334
19997TIP3   OH281481   6.343   3.027   2.547 -0.3758 -0.5971 -0.4567
19997TIP3    H181482   6.391   2.990   2.620  0.6162 -1.4290 -1.5029
19997TIP3    H281483   6.265   3.067   2.587 -0.6260 -2.3156  0.8927
19998TIP3   OH281484   1.076   0.020  16.852 -0.0344  0.4845 -0.4540
19998TIP3    H181485   1.061   0.077  16.927  1.6379 -0.0561  0.3338
19998TIP3    H281486   1.109   0.078  16.783  2.5666  0.4425  0.6317
19999TIP3   OH281487   1.138   6.285  15.089  0.3986  0.3951 -0.0033
19999TIP3    H181488   1.104   6.312  15.174  2.3772  1.1307  0.6082
19999TIP3    H281489   1.119   6.360  15.031  1.8569  1.2628  0.5931
20000TIP3   OH281490   5.277   3.517   3.146  0.4099  0.3614 -0.5332
20000TIP3    H181491   5.225   3.442   3.175  0.3783  0.9218  0.9187
20000TIP3    H281492   5.361   3.508   3.192  0.5331  1.0273 -0.6180
20001TIP3   OH281493   4.656   5.882   4.846  0.4236 -0.1349  0.5324
20001TIP3    H181494   4.570   5.873   4.886 -0.6710 -0.0628 -1.6540
20001TIP3    H281495   4.662   5.808   4.785  1.8669 -0.0704  0.5594
20002TIP3   OH281496   1.299   2.806  14.697  0.6394  0.3001  0.3188
20002TIP3    H181497   1.391   2.799  14.673  1.0283  0.1336  1.7691
20002TIP3    H281498   1.267   2.716  14.696  0.5339  0.3423 -0.0404
20003TIP3   OH281499   5.995   0.721  15.423  0.4482  0.4239  0.5492
20003TIP3    H181500   5.965   0.741  15.334 -0.1441 -1.5512  0.2464
20003TIP3    H281501   5.938   0.773  15.480  0.4693  1.2966 -0.2166
20004TIP3   OH281502   5.874   4.720  10.840  0.8198 -0.4068  0.3612
20004TIP3    H181503   5.787   4.708  10.803  0.6715  2.5161 -0.5393
20004TIP3    H281504   5.861   4.788  10.907  2.3383 -0.1260  0.3943
20005TIP3   OH281505   5.510   3.436  10.956  0.4854 -0.2116 -0.2833
20005TIP3    H181506   5.447   3.451  11.026 -0.0645 -0.6264 -0.6797
20005TIP3    H281507   5.457   3.436  10.876  0.8619 -1.3546 -0.5515
20006TIP3   OH281508   3.579   0.137   4.402  0.0644  0.4448  0.2934
20006TIP3    H181509   3.674   0.143   4.393  0.4103 -0.8484  2.4014
20006TIP3    H281510   3.553   0.067   4.343  0.5258  0.3393  0.2139
20007TIP3   OH281511   2.692   4.007   0.746 -0.0427  0.2437 -0.3172
20007TIP3    H181512   2.722   3.916   0.742 -0.6253 -0.0270  0.9906
20007TIP3    H281513   2.622   4.012   0.681  1.3894  0.3571 -1.9485
20008TIP3   OH281514   4.747   5.603   2.083  0.4112 -0.2365 -0.2914
20008TIP3    H181515   4.821   5.622   2.141  0.3283  0.6704 -0.4634
20008TIP3    H281516   4.690   5.680   2.091  0.8019  0.3108 -2.1988
20009TIP3   OH281517   6.651   6.532  13.594  0.6880  0.1470  0.6154
20009TIP3    H181518   6.596   6.610  13.602 -0.7798 -0.6338 -1.2983
20009TIP3    H281519   6.731   6.564  13.551  0.6651  0.8189  1.0552
20010TIP3   OH281520   0.067   6.877  14.948  0.0173  0.0149  0.3654
20010TIP3    H181521   0.057   6.920  15.034 -1.2267 -0.2538  0.3702
20010TIP3    H281522   0.088   6.786  14.970  1.4554  0.3288  0.3619
20011TIP3   OH281523   3.366   5.215  16.888  0.2730 -0.6968 -0.2740
20011TIP3    H181524   3.396   5.126  16.906 -0.8197 -1.4950 -2.1021
20011TIP3    H281525   3.409   5.239  16.806 -1.7572 -0.8123 -1.4703
20012TIP3   OH281526   2.746   6.299   0.406 -0.0390  0.1756  0.3814
20012TIP3    H181527   2.733   6.393   0.396  1.5514  0.4666  0.7328
20012TIP3    H281528   2.667   6.259   0.369 -0.2814  1.6116 -0.7235
20013TIP3   OH281529   1.307   5.234  13.448  0.0074  0.4539 -0.7007
20013TIP3    H181530   1.326   5.163  13.509 -0.0288  2.2977  1.6054
20013TIP3    H281531   1.214   5.253  13.463  0.0380  1.0335 -1.2250
20014TIP3   OH281532   2.061   6.412   4.531 -0.2306 -0.5716 -0.2198
20014TIP3    H181533   2.065   6.345   4.600  0.5879 -0.5305 -0.2176
20014TIP3    H281534   2.064   6.495   4.578 -0.5938 -0.5384 -0.2564
20015TIP3   OH281535   2.910   2.630  11.196 -0.2569  0.4550  0.5753
20015TIP3    H181536   2.901   2.686  11.120 -0.2559 -0.0779  0.1762
20015TIP3    H281537   2.975   2.673  11.251  1.3768 -0.2413 -0.7402
20016TIP3   OH281538   3.675   6.083  13.589  0.1093  0.3753  0.2742
20016TIP3    H181539   3.623   6.020  13.639  1.2913 -1.4590 -0.6616
20016TIP3    H281540   3.656   6.062  13.498 -0.7916  2.5925 -0.0929
20017TIP3   OH281541   5.179   3.937  12.238 -0.1744  0.0801 -0.2221
20017TIP3    H181542   5.224   3.991  12.303 -0.1131 -0.6403  0.3487
20017TIP3    H281543   5.232   3.946  12.159 -0.5154  1.3518 -0.3245
20018TIP3   OH281544   2.432   0.998   3.136 -0.2041  0.2090  0.6723
20018TIP3    H181545   2.442   0.998   3.231 -0.5989 -1.4850  0.7372
20018TIP3    H281546   2.426   0.906   3.112 -3.1222  0.6376 -0.6857
20019TIP3   OH281547   6.489   1.186  15.263  0.3540 -0.0775  0.1546
20019TIP3    H181548   6.572   1.163  15.223  0.4274  0.7411 -0.1855
20019TIP3    H281549   6.488   1.139  15.346  1.4688  0.4516  0.4878
20020TIP3   OH281550   1.252   6.249  16.184  0.2170  0.3807 -0.2382
20020TIP3    H181551   1.319   6.317  16.178 -1.5608  2.3634  0.9726
20020TIP3    H281552   1.203   6.271  16.263 -2.1444 -0.7031 -1.3255
20021TIP3   OH281553   5.289   0.958   0.666  0.1881  0.0813 -0.1308
20021TIP3    H181554   5.228   0.992   0.601 -0.5133 -0.7481  0.0773
20021TIP3    H281555   5.369   0.940   0.617 -0.9360 -2.3821 -1.2253
20022TIP3   OH281556   6.848   3.410  14.075 -0.0786  0.1205 -0.2050
20022TIP3    H181557   6.874   3.325  14.109  1.0863 -0.0775 -1.5380
20022TIP3    H281558   6.822   3.460  14.153 -1.9270 -1.8024  0.4888
20023TIP3   OH281559   6.382   3.561   0.497  0.9065  0.1709  0.3854
20023TIP3    H181560   6.335   3.481   0.475 -0.4556  0.7597  1.0309
20023TIP3    H281561   6.457   3.562   0.438 -0.5158 -0.2407 -1.5362
20024TIP3   OH281562   1.371   6.134  15.097 -0.0657  0.2733 -0.1769
20024TIP3    H181563   1.397   6.103  15.010  0.2001  0.6128 -0.2193
20024TIP3    H281564   1.293   6.187  15.082 -0.4078 -0.2114 -0.1275
20025TIP3   OH281565   1.800   1.537  11.285  0.4571 -0.4929  0.0596
20025TIP3    H181566   1.725   1.597  11.290 -1.1663 -2.3424 -1.0210
20025TIP3    H281567   1.822   1.533  11.192  0.6902 -1.4085  0.1468
20026TIP3   OH281568   0.061   0.427   4.698  0.2192  0.2055  0.4026
20026TIP3    H181569   0.104   0.341   4.695 -1.4683 -0.6644 -1.6697
20026TIP3    H281570  -0.031   0.408   4.678 -0.2582  2.4564  0.2813
20027TIP3   OH281571   4.515   6.560   4.967  0.6394 -0.1880  0.4187
20027TIP3    H181572   4.484   6.550   5.057  0.0558 -0.9114  0.1462
20027TIP3    H281573   4.528   6.654   4.956 -0.2476  0.0072  0.9523
20028TIP3   OH281574   2.692   0.821  16.617 -0.4643 -0.6893  0.1997
20028TIP3    H181575   2.607   0.819  16.574 -0.3336 -4.6604 -0.2451
20028TIP3    H281576   2.754   0.840  16.547 -0.8718  2.8828  0.6374
20029TIP3   OH281577   3.140   0.736  13.873  0.5092  0.0030  0.5074
20029TIP3    H181578   3.084   0.725  13.949  0.0807  1.9534  0.5201
20029TIP3    H281579   3.135   0.652  13.827 -3.3437  0.4161 -0.1160
20030TIP3   OH281580   0.164   6.122   1.920 -0.1714  0.4570 -0.6785
20030TIP3    H181581   0.188   6.155   1.833  1.3302  1.8867  0.2111
20030TIP3    H281582   0.233   6.059   1.941 -1.4916 -1.2572 -1.1864
20031TIP3   OH281583   5.002   5.022  11.320  0.4526  0.1278 -0.4386
20031TIP3    H181584   4.915   5.014  11.360  1.0851 -1.0767  0.7869
20031TIP3    H281585   5.012   5.116  11.303 -0.5203  0.4765  0.7345
20032TIP3   OH281586   6.097   4.424  16.775  0.4123  0.2780  0.2779
20032TIP3    H181587   6.009   4.425  16.736  0.2268 -1.2752  0.5675
20032TIP3    H281588   6.087   4.473  16.857 -0.1079  0.3946  0.1515
20033TIP3   OH281589   5.904   4.642   1.730 -0.4933  0.0821 -0.4876
20033TIP3    H181590   5.833   4.654   1.794  0.0491 -0.0698  0.1553
20033TIP3    H281591   5.893   4.714   1.668 -1.0076  0.2555 -0.2017
20034TIP3   OH281592   1.743   4.715   5.057 -0.1741  0.6719 -1.1930
20034TIP3    H181593   1.749   4.640   4.997  1.1946  0.6793 -1.0916
20034TIP3    H281594   1.800   4.781   5.019  0.2386  0.9011 -0.2191
20035TIP3   OH281595   4.468   1.794   3.012 -0.3503 -0.1674 -0.0162
20035TIP3    H181596   4.383   1.749   3.018 -1.0697  1.0661 -0.5421
20035TIP3    H281597   4.449   1.883   3.041  1.0698 -0.1961  1.1255
20036TIP3   OH281598   3.470   2.302   1.595 -0.3605 -0.6537 -0.1180
20036TIP3    H181599   3.538   2.338   1.653  0.4329 -2.4637  0.1445
20036TIP3    H281600   3.475   2.356   1.516  1.7051 -0.9652 -0.2663
20037TIP3   OH281601   6.276   1.590  13.409  0.0112 -0.2648 -0.0360
20037TIP3    H181602   6.182   1.595  13.424 -0.2383  0.1326 -1.5780
20037TIP3    H281603   6.304   1.681  13.400  0.2804 -0.4300 -0.9644
20038TIP3   OH281604   0.116   3.788   5.387 -0.5286  0.5331  0.0363
20038TIP3    H181605   0.060   3.715   5.413  0.7982 -0.4607  0.1929
20038TIP3    H281606   0.122   3.843   5.465 -2.6507  1.6167 -0.4722
20039TIP3   OH281607   6.680   2.649   6.242  0.9268 -0.2499  0.4697
20039TIP3    H181608   6.617   2.714   6.212 -0.3362 -2.0358 -0.9319
20039TIP3    H281609   6.763   2.697   6.247 -0.1024  1.6557  0.3348
20040TIP3   OH281610   4.902   5.182  16.601 -0.1237 -0.3616 -0.5688
20040TIP3    H181611   4.889   5.092  16.630  0.8389  0.1647  1.7229
20040TIP3    H281612   4.847   5.190  16.524 -1.4141 -2.4697  0.0348
20041TIP3   OH281613   0.690   1.813   3.269 -0.1323 -0.1122 -0.5035
20041TIP3    H181614   0.736   1.785   3.189  0.2314  0.3946 -0.4797
20041TIP3    H281615   0.736   1.769   3.340  0.5960  0.7113 -0.4453
20042TIP3   OH281616   0.948   1.583   2.228  0.2637 -0.0098  0.0033
20042TIP3    H181617   0.888   1.554   2.160 -1.1173  3.0039 -0.2351
20042TIP3    H281618   0.946   1.512   2.293 -0.5890 -1.6719 -1.7303
20043TIP3   OH281619   0.680   0.477   5.420  0.2932 -0.6624  0.1558
20043TIP3    H181620   0.665   0.456   5.512 -1.0781  0.7290  0.2879
20043TIP3    H281621   0.722   0.563   5.422 -1.3147  0.1813 -0.5258
20044TIP3   OH281622   3.861   2.214  15.583  0.4781  0.0381  0.4132
20044TIP3    H181623   3.942   2.167  15.563  1.4422  1.7323  0.1416
20044TIP3    H281624   3.863   2.291  15.526 -1.6169 -0.1493 -0.0058
20045TIP3   OH281625   2.595   0.866  10.543  0.2616  0.0528  0.0020
20045TIP3    H181626   2.636   0.781  10.526  1.6739  0.3415  1.6756
20045TIP3    H281627   2.516   0.865  10.490  0.8691 -1.8039 -0.9732
20046TIP3   OH281628   3.695   6.476   5.649 -0.1004 -0.4636 -0.0426
20046TIP3    H181629   3.624   6.449   5.706 -0.9587  1.1234 -0.3193
20046TIP3    H281630   3.768   6.418   5.673 -0.6857 -0.4074  2.0451
20047TIP3   OH281631   1.847   5.431   5.926 -0.2567  0.4564 -0.7255
20047TIP3    H181632   1.936   5.440   5.958 -0.1979  0.3303 -0.8548
20047TIP3    H281633   1.803   5.376   5.990 -0.2422  0.5160 -0.6635
20048TIP3   OH281634   4.746   4.033  12.330  0.2533  0.0155 -0.9190
20048TIP3    H181635   4.709   4.112  12.371  0.6907  0.6605 -1.7332
20048TIP3    H281636   4.824   4.014  12.382  0.3447  0.3348 -0.9355
20049TIP3   OH281637   0.865   3.385   0.942 -0.6977 -0.1832 -0.1643
20049TIP3    H181638   0.948   3.427   0.919 -0.8199 -1.3414 -3.1259
20049TIP3    H281639   0.798   3.438   0.900 -1.2236 -0.6709  0.0449
20050TIP3   OH281640   1.194   5.034  12.451  0.3069  0.1287 -0.2305
20050TIP3    H181641   1.247   5.012  12.375 -1.8511  0.7339 -2.0371
20050TIP3    H281642   1.228   5.118  12.481  1.0675 -0.0204 -0.6621
20051TIP3   OH281643   4.846   4.704   2.234  0.0851 -0.4325 -0.4286
20051TIP3    H181644   4.769   4.720   2.180  0.7281  0.0571 -1.2393
20051TIP3    H281645   4.840   4.611   2.258 -0.9151 -0.3174 -0.1967
20052TIP3   OH281646   4.724   0.969   1.152 -0.0314 -0.4688 -0.0703
20052TIP3    H181647   4.811   0.971   1.113 -0.3138 -1.2012 -0.7721
20052TIP3    H281648   4.679   0.898   1.106 -0.2403 -1.6906  1.8768
20053TIP3   OH281649   5.221   3.425   6.474 -0.0361  0.1206  0.0717
20053TIP3    H181650   5.281   3.351   6.480 -0.6747 -0.4775 -0.6025
20053TIP3    H281651   5.137   3.389   6.501  0.1500  1.3308  2.4922
20054TIP3   OH281652   1.536   5.504   0.079  0.2241  0.5176 -0.1723
20054TIP3    H181653   1.577   5.418   0.066 -0.0526  0.3326  0.1644
20054TIP3    H281654   1.536   5.544  -0.008 -1.4489 -0.6238 -0.7432
20055TIP3   OH281655   2.044   5.869  14.876 -0.2776 -0.0036 -0.6170
20055TIP3    H181656   2.012   5.862  14.965 -0.1560 -0.6210 -0.6173
20055TIP3    H281657   2.017   5.956  14.847 -0.5350  0.1000 -0.0671
20056TIP3   OH281658   0.419   5.704  16.051 -0.3400 -0.3760 -0.3176
20056TIP3    H181659   0.362   5.746  16.116  0.9912  0.7756  0.1734
20056TIP3    H281660   0.382   5.616  16.039 -1.0676 -0.3487  1.4263
20057TIP3   OH281661   3.785   6.411   2.774 -0.3917  0.2749  0.0781
20057TIP3    H181662   3.846   6.365   2.833 -0.5930  0.3704  0.3617
20057TIP3    H281663   3.842   6.459   2.714 -0.1866  0.6187  0.5423
20058TIP3   OH281664   4.034   6.295   5.134 -0.3608  0.6658  0.4331
20058TIP3    H181665   4.128   6.284   5.152 -0.5447 -0.1788  0.9233
20058TIP3    H281666   4.012   6.225   5.073 -0.8064  0.4710  0.8119
20059TIP3   OH281667   2.033   0.456   2.136 -0.4260  0.2908 -0.0482
20059TIP3    H181668   2.001   0.434   2.048  1.1201  2.6715 -1.3216
20059TIP3    H281669   1.953   0.474   2.186 -1.2986  0.8335 -1.5578
20060TIP3   OH281670   2.296   1.058   1.931  0.4698  0.9072 -0.7516
20060TIP3    H181671   2.367   0.998   1.907 -0.5660 -0.0694 -1.4855
20060TIP3    H281672   2.219   1.021   1.889 -0.1758  2.9076 -1.4600
20061TIP3   OH281673   1.139   5.396   1.973  0.5463 -0.2197 -0.1205
20061TIP3    H181674   1.196   5.403   2.050 -0.3416 -1.6766  0.7255
20061TIP3    H281675   1.104   5.307   1.978 -0.8595  0.2336 -1.2943
20062TIP3   OH281676   1.138   0.320  14.262  0.1271 -0.1704  0.3788
20062TIP3    H181677   1.090   0.239  14.280  0.2957 -0.2843  0.3295
20062TIP3    H281678   1.100   0.353  14.180 -2.0823  1.4685  1.9635
20063TIP3   OH281679   3.577   2.754  13.700 -0.6176 -0.9853  0.2703
20063TIP3    H181680   3.491   2.721  13.727 -0.7483  0.0606  1.1964
20063TIP3    H281681   3.632   2.744  13.778 -0.6140  0.7760  0.5340
20064TIP3   OH281682   5.971   1.916  13.153  0.4055  0.7288 -0.1578
20064TIP3    H181683   5.881   1.884  13.162 -0.0905  1.9211 -0.6743
20064TIP3    H281684   6.024   1.837  13.154 -0.6844 -0.0337 -0.2988
20065TIP3   OH281685   3.002   5.204   3.796  0.2470 -0.1041 -0.1286
20065TIP3    H181686   2.982   5.128   3.850 -1.7530  0.1991 -0.3781
20065TIP3    H281687   3.024   5.273   3.858  0.4562 -0.4338  0.1647
20066TIP3   OH281688   5.779   3.405  11.616 -0.3775  0.6133 -0.4766
20066TIP3    H181689   5.748   3.403  11.525 -3.5322  1.4836  0.4316
20066TIP3    H281690   5.848   3.470  11.617 -1.2933  1.6772 -2.0206
20067TIP3   OH281691   2.371   0.356  14.919 -0.3632  0.7398 -0.1536
20067TIP3    H181692   2.387   0.450  14.912 -1.7220  0.9505 -0.8441
20067TIP3    H281693   2.279   0.345  14.894 -0.1303 -0.8179 -0.4673
20068TIP3   OH281694   6.095   1.362  11.310  0.3747 -0.1028 -0.5649
20068TIP3    H181695   6.130   1.433  11.364 -0.7429 -0.4666  0.6907
20068TIP3    H281696   6.117   1.387  11.221 -1.1881  2.5857 -0.3147
20069TIP3   OH281697   1.652   0.640   3.287 -1.1756  0.0874  0.0832
20069TIP3    H181698   1.563   0.636   3.321 -1.2210 -1.7841 -0.1332
20069TIP3    H281699   1.644   0.684   3.202 -1.9632 -0.3252 -0.0704
20070TIP3   OH281700   1.510   4.767   3.139 -0.5718  0.3025 -0.3559
20070TIP3    H181701   1.552   4.690   3.100  0.0789  1.1126 -1.2924
20070TIP3    H281702   1.450   4.731   3.205  0.4910 -0.9405 -0.0451
20071TIP3   OH281703   0.400   3.106  12.952 -0.2911 -0.6700  0.4520
20071TIP3    H181704   0.395   3.196  12.985  0.0441  0.8757 -3.2012
20071TIP3    H281705   0.492   3.082  12.963 -0.6099 -1.0785  2.4932
20072TIP3   OH281706   2.634   6.777   3.377 -0.2696  0.3287  0.1860
20072TIP3    H181707   2.634   6.686   3.407 -1.1357  0.0956 -0.4789
20072TIP3    H281708   2.550   6.787   3.332 -0.0608  1.3805  0.0108
20073TIP3   OH281709   3.537   1.106  11.326 -0.2157  0.0442  0.5097
20073TIP3    H181710   3.446   1.131  11.313 -0.9885 -2.4371  0.5877
20073TIP3    H281711   3.538   1.063  11.411  1.0852  0.2292  0.6048
20074TIP3   OH281712   2.875   2.337  15.560 -0.2246  0.0043 -0.1068
20074TIP3    H181713   2.849   2.246  15.573  1.5274 -0.6752 -1.0161
20074TIP3    H281714   2.962   2.343  15.598  0.2590  0.9205 -1.3018
20075TIP3   OH281715   1.994   6.818   3.130 -0.1760 -0.6601 -0.1622
20075TIP3    H181716   1.914   6.779   3.165 -0.4000  0.0170  0.1045
20075TIP3    H281717   2.061   6.797   3.194 -0.5381  0.3764  0.5904
20076TIP3   OH281718   5.859   2.637   0.406 -0.5048 -0.1644 -0.0969
20076TIP3    H181719   5.768   2.664   0.395  0.0621  1.1608 -2.0594
20076TIP3    H281720   5.863   2.550   0.365 -1.0927 -0.7612  1.0536
20077TIP3   OH281721   2.399   3.373  10.995  0.0973  0.5737 -0.4944
20077TIP3    H181722   2.362   3.317  11.063 -0.5896  0.4632 -0.9555
20077TIP3    H281723   2.392   3.322  10.914 -0.8991  1.4484 -0.9899
20078TIP3   OH281724   5.265   0.518   4.776 -0.2429  0.2039  0.1676
20078TIP3    H181725   5.296   0.513   4.685  1.2941  0.9161  0.6300
20078TIP3    H281726   5.179   0.475   4.773  0.5054 -1.3490 -1.2752
20079TIP3   OH281727   6.682   1.199  14.949  0.0659  0.0271  0.1013
20079TIP3    H181728   6.723   1.232  15.029  1.7914  1.1420 -1.1783
20079TIP3    H281729   6.703   1.105  14.949 -0.5784 -0.1399  1.2831
20080TIP3   OH281730   6.419   0.128   3.144 -0.2504 -0.1080  0.3029
20080TIP3    H181731   6.352   0.197   3.147 -0.5427 -0.1658 -2.4995
20080TIP3    H281732   6.471   0.148   3.066  1.3373 -1.5917  0.9189
20081TIP3   OH281733   1.541   1.216   5.426  0.5194  0.2154 -0.4227
20081TIP3    H181734   1.448   1.223   5.447  0.0311 -0.4667 -2.2115
20081TIP3    H281735   1.543   1.195   5.333  2.4762  0.2170 -0.4143
20082TIP3   OH281736   5.354   1.612  13.224 -0.1356  0.4997  0.6372
20082TIP3    H181737   5.341   1.615  13.319  1.5509  1.6954  0.8672
20082TIP3    H281738   5.381   1.521  13.207  1.1180  0.6707  1.5584
20083TIP3   OH281739   5.159   5.441   3.798  0.2258  0.2215 -0.0017
20083TIP3    H181740   5.087   5.419   3.856 -0.0574 -0.9934 -0.7833
20083TIP3    H281741   5.117   5.480   3.721  0.3575 -0.7675 -0.5898
20084TIP3   OH281742   6.883   3.400  11.613 -0.2609  0.4224  0.5434
20084TIP3    H181743   6.863   3.443  11.529 -1.8053  0.7337  1.0275
20084TIP3    H281744   6.911   3.472  11.670 -1.0002  0.5219  0.8010
20085TIP3   OH281745   4.386   4.448   5.325 -0.0309 -0.0778  0.4180
20085TIP3    H181746   4.431   4.453   5.240  0.3667 -2.6073  0.4186
20085TIP3    H281747   4.323   4.378   5.314 -0.4740  0.0453  2.0181
20086TIP3   OH281748   5.294   5.010  14.395  0.6739  0.3261  0.3016
20086TIP3    H181749   5.370   4.961  14.426  2.1637  1.9305 -0.5904
20086TIP3    H281750   5.311   5.024  14.302 -0.9563  0.3527 -0.0158
20087TIP3   OH281751   3.206   6.084  15.028 -0.0904 -0.2387 -0.7285
20087TIP3    H181752   3.274   6.046  14.972  0.0660  3.1135 -3.0902
20087TIP3    H281753   3.255   6.126  15.099 -0.0148 -1.1719 -0.2141
20088TIP3   OH281754   5.757   4.350  15.488  0.6864  0.6333  0.3572
20088TIP3    H181755   5.746   4.309  15.402  1.1926 -0.4003  0.7713
20088TIP3    H281756   5.709   4.432  15.481  1.4664  1.0021 -1.2167
20089TIP3   OH281757   1.496   0.803  15.438 -0.0664  0.1604 -0.1113
20089TIP3    H181758   1.489   0.708  15.433 -1.6170  0.3298 -2.6699
20089TIP3    H281759   1.589   0.819  15.455  0.8317 -1.8180 -2.5260
20090TIP3   OH281760   4.146   4.288  12.818 -0.3976 -0.4656 -0.0811
20090TIP3    H181761   4.239   4.280  12.840 -0.1428  0.0915 -0.8741
20090TIP3    H281762   4.104   4.214  12.861  0.3181 -0.3707  0.8037
20091TIP3   OH281763   1.442   0.052   3.314  0.0749  0.2052  0.0295
20091TIP3    H181764   1.447   0.037   3.220 -0.3278 -0.2606  0.0795
20091TIP3    H281765   1.416   0.144   3.323  0.5398  0.3727 -0.3050
20092TIP3   OH281766   3.909   5.751   4.890  0.1366  0.0541  0.0436
20092TIP3    H181767   3.821   5.717   4.875 -0.2790  0.4638  1.4104
20092TIP3    H281768   3.947   5.692   4.955  1.0564 -0.3739 -0.8373
20093TIP3   OH281769   1.113   0.565  12.724  0.1136 -0.4691  0.4416
20093TIP3    H181770   1.072   0.517  12.796 -2.1095 -0.2133 -0.5668
20093TIP3    H281771   1.108   0.506  12.649 -0.4071  0.3787 -0.2206
20094TIP3   OH281772   5.146   4.251  16.784  0.1644 -0.0769 -0.1835
20094TIP3    H181773   5.149   4.331  16.731  1.4981 -0.3602 -0.5852
20094TIP3    H281774   5.226   4.205  16.760 -0.2596 -1.2137  0.5517
20095TIP3   OH281775   5.246   0.016   5.710  0.0394  0.0186 -0.2717
20095TIP3    H181776   5.199  -0.022   5.784 -1.9524  1.3281 -0.7969
20095TIP3    H281777   5.200  -0.016   5.633  0.9701  0.1235 -0.8871
20096TIP3   OH281778   1.470   5.177   3.843  0.0277  0.4816 -0.5259
20096TIP3    H181779   1.531   5.197   3.772 -1.7812 -0.1989 -2.3655
20096TIP3    H281780   1.490   5.242   3.911  1.4368  1.5429 -1.8810
20097TIP3   OH281781   2.370   1.273   2.783  0.4209  0.9622 -0.0603
20097TIP3    H181782   2.383   1.179   2.774 -0.9997  0.6137  1.1653
20097TIP3    H281783   2.451   1.305   2.823 -0.1999 -0.2855  2.4395
20098TIP3   OH281784   4.518   4.034   3.129 -0.0364  0.3465 -0.7729
20098TIP3    H181785   4.546   4.121   3.100 -1.5700  0.5815 -1.6635
20098TIP3    H281786   4.528   3.979   3.052 -0.6765  0.1344 -0.7126
20099TIP3   OH281787   0.361   3.382  13.980 -0.4976  0.8186  0.2036
20099TIP3    H181788   0.453   3.367  13.999 -0.7420 -3.0741 -0.8604
20099TIP3    H281789   0.317   3.376  14.065  0.0488  0.6837  0.4776
20100TIP3   OH281790   1.910   4.414  12.145 -0.1612  0.2018 -0.8019
20100TIP3    H181791   1.861   4.487  12.107  0.8407  1.0708 -0.4825
20100TIP3    H281792   1.882   4.411  12.237 -0.8082 -0.3525 -1.0117
20101TIP3   OH281793   5.467   0.187  14.528 -0.5337 -0.0485 -0.2327
20101TIP3    H181794   5.526   0.221  14.596  0.6158 -2.6486  0.2164
20101TIP3    H281795   5.523   0.178  14.451 -1.0123 -0.0541 -0.5806
20102TIP3   OH281796   0.326   3.342   0.188  0.4139 -0.6072 -0.2119
20102TIP3    H181797   0.347   3.432   0.214 -1.2940 -0.3768  0.5089
20102TIP3    H281798   0.349   3.338   0.095  1.1680  0.3493 -0.0842
20103TIP3   OH281799   5.691   3.754  11.665 -0.1854  0.0829  0.0659
20103TIP3    H181800   5.608   3.712  11.642 -0.6616  0.5895  0.8151
20103TIP3    H281801   5.687   3.764  11.760 -0.2092  2.0960 -0.1151
20104TIP3   OH281802   4.132   5.579  15.666 -0.6046 -0.0480 -0.1326
20104TIP3    H181803   4.071   5.508  15.644 -0.5730  0.1307 -0.8133
20104TIP3    H281804   4.219   5.539  15.658 -0.5105  0.5038 -2.2182
20105TIP3   OH281805   1.486   5.120   0.143 -0.1211 -0.8369  0.1881
20105TIP3    H181806   1.494   5.024   0.150  1.6676 -0.8726 -1.2974
20105TIP3    H281807   1.525   5.140   0.058  0.2091  1.2999  0.7925
20106TIP3   OH281808   5.040   5.183  12.730 -0.3199 -0.2417 -0.7376
20106TIP3    H181809   5.119   5.133  12.750  0.8112  2.1886  1.4279
20106TIP3    H281810   4.970   5.118  12.729  1.2109 -2.0301  0.8137
20107TIP3   OH281811   1.864   1.173   3.872 -0.2433  0.3026 -0.1225
20107TIP3    H181812   1.768   1.166   3.878 -0.1515 -0.0788  1.4941
20107TIP3    H281813   1.896   1.100   3.925  0.9100  1.7556  1.2885
20108TIP3   OH281814   4.377   1.860   0.535 -0.0347  0.0504 -0.3600
20108TIP3    H181815   4.339   1.926   0.593  0.4313  1.3231 -1.4325
20108TIP3    H281816   4.330   1.872   0.452 -0.0758 -1.1213 -0.5145
20109TIP3   OH281817   0.183   6.218  13.095  0.3287  0.0470  0.0494
20109TIP3    H181818   0.147   6.134  13.067  0.4366 -0.1452  0.4989
20109TIP3    H281819   0.262   6.229  13.042  0.1124  0.0430 -0.2795
20110TIP3   OH281820   2.157   3.478   5.774 -0.0124 -0.0132 -0.6244
20110TIP3    H181821   2.083   3.534   5.794  1.5298  1.6818  0.6304
20110TIP3    H281822   2.170   3.488   5.679 -0.5913  0.6763 -0.6393
20111TIP3   OH281823   5.828   1.309   4.893 -0.2306  0.5861 -0.3139
20111TIP3    H181824   5.825   1.296   4.988 -1.1009 -0.9120 -0.5165
20111TIP3    H281825   5.765   1.380   4.878  0.4374  1.3322  0.2736
20112TIP3   OH281826   0.095   2.348  15.512 -0.0171 -0.4184 -0.0255
20112TIP3    H181827   0.145   2.330  15.433  0.2541 -1.8721  0.4527
20112TIP3    H281828   0.005   2.362  15.481  0.1403 -0.6987 -0.6100
20113TIP3   OH281829   0.013   0.505   3.195 -0.6534 -0.2919 -0.1154
20113TIP3    H181830   0.085   0.481   3.136  0.1052 -1.2364  1.1578
20113TIP3    H281831   0.043   0.585   3.238 -0.1399 -0.9105  0.7223
20114TIP3   OH281832   1.420   0.766  16.693 -0.2410 -0.1295 -0.1256
20114TIP3    H181833   1.398   0.790  16.783  0.9882 -1.7176  0.6599
20114TIP3    H281834   1.410   0.847  16.643  1.3088  1.4224  1.8751
20115TIP3   OH281835   5.219   1.963  14.075 -0.2793  0.0065  0.0818
20115TIP3    H181836   5.255   2.050  14.092 -1.4829  0.7043 -0.7537
20115TIP3    H281837   5.261   1.936  13.993  0.8158 -0.6412  0.8329
20116TIP3   OH281838   1.592   3.381   2.113 -0.2581 -0.1442  0.0650
20116TIP3    H181839   1.568   3.472   2.126 -1.8169 -0.2586 -1.6569
20116TIP3    H281840   1.522   3.331   2.155  0.4076 -0.5667  0.6977
20117TIP3   OH281841   5.385   3.386   6.767  0.4596  0.4975  0.0732
20117TIP3    H181842   5.297   3.355   6.745  0.5989  0.7227 -0.8088
20117TIP3    H281843   5.410   3.443   6.695  2.0688 -0.9920 -0.6212
20118TIP3   OH281844   2.023   0.926   0.491  0.2446  0.0090 -0.1829
20118TIP3    H181845   2.074   0.946   0.569  1.0128 -2.5205  0.0649
20118TIP3    H281846   1.976   1.007   0.471  1.0442  1.1152  2.1033
20119TIP3   OH281847   2.854   0.629  15.311 -0.7858  0.3430 -0.0659
20119TIP3    H181848   2.834   0.719  15.337  0.2528  0.4204  0.5059
20119TIP3    H281849   2.938   0.635  15.265 -0.6652 -0.3397  0.0518
20120TIP3   OH281850   2.295   1.131   2.497  0.7848 -0.3686 -0.2671
20120TIP3    H181851   2.342   1.110   2.577 -0.3595 -2.4536 -0.0742
20120TIP3    H281852   2.205   1.103   2.514  0.2947  0.0882 -1.9212
20121TIP3   OH281853   2.921   5.236  14.114 -0.1936 -0.6578  0.0730
20121TIP3    H181854   2.982   5.250  14.041 -0.7654 -0.3032 -0.3412
20121TIP3    H281855   2.967   5.175  14.171  1.0175  0.4308  0.3065
20122TIP3   OH281856   6.643   2.294   5.740 -1.1003  0.0504 -0.5655
20122TIP3    H181857   6.724   2.266   5.781 -1.5643 -1.5634 -0.6633
20122TIP3    H281858   6.635   2.387   5.761 -0.2926 -0.2508  1.2122
20123TIP3   OH281859   6.752   3.343   0.620  0.1334  0.0285 -0.2684
20123TIP3    H181860   6.727   3.435   0.628 -4.4271 -1.1047  1.2311
20123TIP3    H281861   6.804   3.326   0.698  1.0737  1.2807 -0.5809
20124TIP3   OH281862   1.843   1.581  16.923 -0.0428 -0.1734 -0.0087
20124TIP3    H181863   1.930   1.586  16.885  0.9693 -2.5289  1.7420
20124TIP3    H281864   1.784   1.605  16.852  1.8497 -1.8589 -2.3010
20125TIP3   OH281865   0.962   4.975   3.977 -0.7552  0.3130 -0.1297
20125TIP3    H181866   0.896   4.940   4.037  0.7860 -1.2033  0.8101
20125TIP3    H281867   1.010   5.039   4.029 -2.5493  2.7901 -1.3662
20126TIP3   OH281868   3.362   3.683  12.895 -0.4176  0.0484 -0.0267
20126TIP3    H181869   3.276   3.649  12.872 -1.1830  2.0987 -0.3692
20126TIP3    H281870   3.348   3.731  12.977 -0.0472  1.9858 -1.0515
20127TIP3   OH281871   1.131   3.653  16.691  0.0810  0.3085  0.0824
20127TIP3    H181872   1.050   3.672  16.644  0.4155  0.4640 -0.4374
20127TIP3    H281873   1.174   3.738  16.699  0.3544  0.1731  0.0557
20128TIP3   OH281874   2.872   2.317   0.777  0.2641  0.1408  0.2285
20128TIP3    H181875   2.844   2.356   0.860  0.2011 -0.0165  0.2819
20128TIP3    H281876   2.966   2.301   0.789  0.2474  0.0847  0.2814
20129TIP3   OH281877   0.544   3.818  16.608  0.0506  0.1304 -0.6468
20129TIP3    H181878   0.559   3.733  16.566  1.9011 -0.7418  1.5548
20129TIP3    H281879   0.455   3.841  16.584  0.6132 -0.6898 -4.1870
20130TIP3   OH281880   0.802   6.149  15.941 -0.6844 -0.7914 -0.2487
20130TIP3    H181881   0.893   6.141  15.913 -0.0121  1.8893  0.8627
20130TIP3    H281882   0.756   6.183  15.863 -0.4206 -0.7208 -0.3756
20131TIP3   OH281883   6.758   3.353  13.757 -0.1390  0.2799  0.8185
20131TIP3    H181884   6.691   3.355  13.690  0.8456  2.4938 -0.1847
20131TIP3    H281885   6.838   3.328  13.711  0.4399  1.2693  1.2576
20132TIP3   OH281886   4.798   0.361  12.352  0.3737  0.2372  0.1227
20132TIP3    H181887   4.759   0.343  12.266  0.2566 -1.3823  0.4683
20132TIP3    H281888   4.889   0.332  12.343  0.0888 -0.9609  0.8194
20133TIP3   OH281889   2.683   0.401   2.519 -0.4650 -0.4414  0.6797
20133TIP3    H181890   2.734   0.320   2.522 -1.3694 -1.0715 -0.0560
20133TIP3    H281891   2.685   0.428   2.427  0.4004  0.7754  1.0325
20134TIP3   OH281892   6.224   4.594  16.562 -0.0207 -0.4735 -0.2816
20134TIP3    H181893   6.182   4.549  16.635 -1.3080 -0.7042 -1.1287
20134TIP3    H281894   6.242   4.524  16.499 -1.1234  0.0453 -1.1892
20135TIP3   OH281895   1.770   4.265  16.529 -0.0954  0.4091  0.6831
20135TIP3    H181896   1.712   4.249  16.603 -1.0753  0.4574 -0.0481
20135TIP3    H281897   1.818   4.183  16.518 -0.3725  0.2014  1.0066
20136TIP3   OH281898   4.862   1.665   0.836  0.2061  0.4933 -0.2045
20136TIP3    H181899   4.818   1.615   0.905  1.1203  1.5508  1.1924
20136TIP3    H281900   4.792   1.716   0.795 -0.2792  0.2095  0.2556
20137TIP3   OH281901   5.466   4.693   1.684  0.1497 -0.1077  0.2349
20137TIP3    H181902   5.540   4.711   1.743 -0.7579  1.4679  0.9322
20137TIP3    H281903   5.504   4.638   1.615  2.1119  1.1041  0.2772
20138TIP3   OH281904   6.052   3.795   3.931 -0.2299  0.0043 -0.0619
20138TIP3    H181905   6.044   3.790   4.026  0.1292  0.5188 -0.0038
20138TIP3    H281906   5.995   3.724   3.899  0.0102 -0.4765  0.5457
20139TIP3   OH281907   1.572   2.424   3.447  0.0334 -0.5127  0.1576
20139TIP3    H181908   1.497   2.429   3.387 -0.2364 -1.6396  0.3781
20139TIP3    H281909   1.648   2.419   3.390 -0.1074 -0.1274 -0.0714
20140TIP3   OH281910   2.533   3.154   0.360  0.1020  0.6375  0.2803
20140TIP3    H181911   2.571   3.165   0.273 -1.8253 -2.9478 -1.1974
20140TIP3    H281912   2.576   3.076   0.395 -1.3181  0.2384  1.2191
20141TIP3   OH281913   5.324   0.431   5.234 -0.3877  0.0328  0.5436
20141TIP3    H181914   5.417   0.431   5.257 -0.3390  0.3238  0.3488
20141TIP3    H281915   5.286   0.501   5.287 -0.8819 -1.3786  2.1487
20142TIP3   OH281916   5.261   6.539   5.695  0.0519 -0.1050 -0.7944
20142TIP3    H181917   5.281   6.591   5.773 -1.0295  1.0038 -1.2143
20142TIP3    H281918   5.338   6.547   5.640  1.6660 -2.5062  0.9167
20143TIP3   OH281919   4.463   5.662  12.027 -0.3935  0.0757  0.3817
20143TIP3    H181920   4.388   5.653  11.968 -1.0082 -1.9721  1.3634
20143TIP3    H281921   4.527   5.600  11.993  0.6990  1.4569 -0.1620
20144TIP3   OH281922   5.429   6.518  11.272 -0.5403 -0.2800 -0.2022
20144TIP3    H181923   5.423   6.472  11.188 -0.4572 -0.1004 -0.3073
20144TIP3    H281924   5.418   6.610  11.249 -0.4500 -0.2253 -0.0237
20145TIP3   OH281925   3.522   6.652   2.848  0.7063 -0.2408 -0.4326
20145TIP3    H181926   3.472   6.578   2.880  1.6753 -0.6469  0.1804
20145TIP3    H281927   3.465   6.728   2.863 -0.8439 -0.9474 -2.2485
20146TIP3   OH281928   3.409   2.179   4.652 -0.1550  0.0400  0.3444
20146TIP3    H181929   3.418   2.164   4.558  0.4509 -1.0666  0.5637
20146TIP3    H281930   3.345   2.249   4.659 -1.7676 -1.2502 -0.8281
20147TIP3   OH281931   4.837   0.238   4.786 -0.7386  0.1430 -0.8088
20147TIP3    H181932   4.828   0.145   4.810 -0.9262  0.3791  0.0814
20147TIP3    H281933   4.809   0.242   4.695  1.8121 -1.1183 -1.7407
20148TIP3   OH281934   2.977   4.537   3.039 -0.4023 -0.1279  0.1269
20148TIP3    H181935   3.044   4.598   3.069 -0.8284  0.2593  0.3049
20148TIP3    H281936   3.026   4.466   2.997  0.1402 -0.1009  0.6983
20149TIP3   OH281937   4.733   0.753   5.681 -0.0818  0.0695 -0.0292
20149TIP3    H181938   4.753   0.673   5.632  2.3056  0.3554  0.3735
20149TIP3    H281939   4.665   0.797   5.630 -0.5666 -1.6045 -0.8908
20150TIP3   OH281940   2.494   2.045   4.336  0.1782 -0.3564  0.3765
20150TIP3    H181941   2.451   2.030   4.251  1.5156  1.5058 -0.7198
20150TIP3    H281942   2.426   2.025   4.401 -1.3927 -0.3645 -1.1766
20151TIP3   OH281943   2.189   0.783   1.771 -0.4638  0.0402 -0.3570
20151TIP3    H181944   2.275   0.744   1.788  0.7661  2.4099 -0.6495
20151TIP3    H281945   2.175   0.769   1.677 -0.8640 -1.1550 -0.1338
20152TIP3   OH281946   0.146   5.769   4.098 -0.6205  0.2697 -0.3299
20152TIP3    H181947   0.119   5.720   4.020  1.5621 -0.4000 -0.7191
20152TIP3    H281948   0.240   5.755   4.105 -0.7176  0.3911  2.4017
20153TIP3   OH281949   4.294   2.541   3.391 -0.7942 -0.2942 -0.1189
20153TIP3    H181950   4.211   2.589   3.390 -0.9695 -0.5611 -2.4909
20153TIP3    H281951   4.361   2.609   3.397 -1.1087  0.1420 -1.3469
20154TIP3   OH281952   1.549   0.894  14.456 -0.0756  0.2641 -0.3638
20154TIP3    H181953   1.467   0.870  14.499 -0.4718 -0.1428 -1.3298
20154TIP3    H281954   1.526   0.965  14.397  0.7566  1.8691  1.1488
20155TIP3   OH281955   4.928   0.712  14.001  0.1951 -0.6695 -0.6644
20155TIP3    H181956   4.944   0.779  14.068 -1.3418 -0.8033 -0.1365
20155TIP3    H281957   4.981   0.637  14.030 -0.4445 -0.7247  0.4170
20156TIP3   OH281958   5.583   1.807   3.071 -0.6056 -0.0257 -0.7524
20156TIP3    H181959   5.552   1.855   3.147  0.8568 -0.2642  0.0389
20156TIP3    H281960   5.573   1.714   3.095  2.5165 -0.1751  0.4256
20157TIP3   OH281961   2.278   0.254   2.433  0.0245 -0.0991 -0.5487
20157TIP3    H181962   2.322   0.324   2.385  2.4415 -0.2593  1.2809
20157TIP3    H281963   2.301   0.269   2.524 -1.9657 -1.5309  0.2571
20158TIP3   OH281964   3.234   2.012  12.210  0.8314 -0.1273 -0.0088
20158TIP3    H181965   3.166   1.946  12.197  0.6344  0.0559  0.0752
20158TIP3    H281966   3.207   2.085  12.154  2.1633 -0.9136 -1.7444
20159TIP3   OH281967   1.558   4.048  11.265  0.4568 -0.4999  0.2058
20159TIP3    H181968   1.549   4.139  11.296 -1.1978  0.0598 -1.7022
20159TIP3    H281969   1.494   3.999  11.317  0.5775 -0.3637  0.4857
20160TIP3   OH281970   1.254   1.229   4.741  0.1462  0.1536 -0.4781
20160TIP3    H181971   1.342   1.252   4.772 -0.3702  0.2937  0.9293
20160TIP3    H281972   1.225   1.160   4.801 -0.1026 -1.0322 -1.9037
20161TIP3   OH281973   2.700   0.080   0.294 -0.1522  0.0993  0.3544
20161TIP3    H181974   2.690   0.158   0.240  0.7703 -0.3169 -0.4285
20161TIP3    H281975   2.637   0.017   0.259  0.7510 -0.3259 -0.5493
20162TIP3   OH281976   4.937   2.895   4.897 -0.4371 -0.2082  0.1397
20162TIP3    H181977   4.961   2.939   4.979 -0.0302 -0.4793  0.1659
20162TIP3    H281978   4.896   2.813   4.924 -1.1643  0.1290  0.0890
20163TIP3   OH281979   6.244   5.424   0.034 -0.1731 -0.0932  1.2006
20163TIP3    H181980   6.287   5.477   0.101  0.0044  0.7676  0.4264
20163TIP3    H281981   6.213   5.346   0.080 -0.8036  0.8709  2.4503
20164TIP3   OH281982   4.338   6.870   0.575  0.3366 -0.1759 -0.3373
20164TIP3    H181983   4.322   6.789   0.622  0.5811 -0.2002 -0.2918
20164TIP3    H281984   4.400   6.918   0.630 -0.8716  0.6699  0.3198
20165TIP3   OH281985   2.824   1.519   1.002 -0.2680  0.3763 -0.0432
20165TIP3    H181986   2.904   1.559   0.968 -0.2391 -0.6218 -1.2173
20165TIP3    H281987   2.758   1.534   0.934 -1.0107  0.9089  0.7736
20166TIP3   OH281988   2.742   6.808   4.182  0.0093  0.0903  0.6516
20166TIP3    H181989   2.770   6.717   4.193 -0.5479 -0.0491  0.9747
20166TIP3    H281990   2.711   6.813   4.091 -0.0756 -0.0753  0.6707
20167TIP3   OH281991   4.596   3.695  16.465  0.0641 -0.4998 -0.0060
20167TIP3    H181992   4.683   3.725  16.439 -0.1229 -1.2304 -1.5880
20167TIP3    H281993   4.571   3.755  16.536  0.8960  1.2131 -1.0801
20168TIP3   OH281994   0.605   5.511   1.669  0.1211  0.3597  0.5644
20168TIP3    H181995   0.655   5.581   1.626 -1.2282 -0.4582 -2.6167
20168TIP3    H281996   0.513   5.531   1.650 -0.4534 -1.0461  1.6324
20169TIP3   OH281997   2.976   6.653   6.317 -0.2393 -0.0153 -0.1617
20169TIP3    H181998   2.928   6.573   6.342  1.5735 -0.9133  0.5968
20169TIP3    H281999   3.067   6.626   6.313  0.3713  1.9407 -0.3430
20170TIP3   OH282000   0.705   5.830   5.437  0.6005 -0.0316 -0.0511
20170TIP3    H182001   0.752   5.768   5.493 -0.2052 -0.0953  0.5854
20170TIP3    H282002   0.772   5.872   5.385  1.4024  0.1921  1.1355
20171TIP3   OH282003   3.274   5.460   3.172  0.2652  0.3051 -0.4590
20171TIP3    H182004   3.296   5.552   3.188 -1.7911  0.4061  2.7607
20171TIP3    H282005   3.356   5.420   3.142  1.9089  2.6696  0.5982
20172TIP3   OH282006   3.653   2.474  12.307  0.5408 -0.1324 -0.0677
20172TIP3    H182007   3.655   2.391  12.355 -3.7632 -0.0143  0.7670
20172TIP3    H282008   3.705   2.534  12.360  1.7408 -1.6988  0.6051
20173TIP3   OH282009   1.467   3.219  16.635  0.4996 -0.7003 -0.4926
20173TIP3    H182010   1.444   3.238  16.544  0.9638 -0.9061 -0.6578
20173TIP3    H282011   1.422   3.137  16.654 -1.0252  0.2195  0.0331
20174TIP3   OH282012   6.726   3.299  15.034  0.6968 -0.3575 -0.5072
20174TIP3    H182013   6.753   3.230  15.094 -0.0779 -0.1362  0.1226
20174TIP3    H282014   6.791   3.368  15.046  0.4457 -0.2351  0.2440
20175TIP3   OH282015   4.753   0.494   1.098  0.0771 -0.1716 -0.3100
20175TIP3    H182016   4.801   0.487   1.180  1.3711 -0.2876 -1.0557
20175TIP3    H282017   4.820   0.514   1.032 -1.0407  0.7940 -1.2101
20176TIP3   OH282018   4.690   5.767  10.111 -0.2327  0.1250 -0.2931
20176TIP3    H182019   4.623   5.729  10.055 -0.0874  1.1002 -1.1617
20176TIP3    H282020   4.666   5.740  10.200  0.2066 -2.4724 -0.8996
20177TIP3   OH282021   1.085   4.330   3.937 -0.1576  0.3625 -0.3113
20177TIP3    H182022   1.075   4.266   3.866  0.3126 -0.4729  0.3426
20177TIP3    H282023   1.067   4.280   4.017  0.7409  0.9082  0.2564
20178TIP3   OH282024   2.289   6.139  10.467 -0.0865  0.5060 -0.3902
20178TIP3    H182025   2.367   6.098  10.505  0.3134 -0.0555 -1.7467
20178TIP3    H282026   2.320   6.221  10.429 -0.0937  0.1882 -1.1080
20179TIP3   OH282027   6.749   3.332   3.789  0.2219 -0.6590  0.5561
20179TIP3    H182028   6.763   3.244   3.755  1.8043 -0.3638  0.3706
20179TIP3    H282029   6.782   3.330   3.879  2.7782  0.3474 -0.2579
20180TIP3   OH282030   4.614   5.402  16.102 -0.4344  0.4355 -0.0666
20180TIP3    H182031   4.534   5.429  16.148 -0.6039  0.2412 -0.2439
20180TIP3    H282032   4.586   5.386  16.012 -0.0109  1.2700 -0.3578
20181TIP3   OH282033   5.966   0.319   1.047 -0.1492  0.3959  0.7155
20181TIP3    H182034   5.999   0.354   1.130 -1.2365  2.7344  0.2581
20181TIP3    H282035   5.881   0.363   1.035 -1.7243 -2.5676  0.0648
20182TIP3   OH282036   5.963   6.356  11.188  0.1692 -0.0825  0.4432
20182TIP3    H182037   5.872   6.367  11.158  0.8370 -0.0113 -1.7920
20182TIP3    H282038   5.999   6.445  11.187  0.2622 -0.1072  1.3379
20183TIP3   OH282039   6.216   6.511  16.521 -0.4131 -0.0401  0.0967
20183TIP3    H182040   6.124   6.486  16.529 -0.6494  0.4349 -0.9289
20183TIP3    H282041   6.222   6.551  16.434  1.4363 -2.9434 -1.2522
20184TIP3   OH282042   0.657   6.537  15.964 -0.4343  0.1473 -0.1809
20184TIP3    H182043   0.744   6.544  15.926  0.7986 -1.5616  2.0504
20184TIP3    H282044   0.616   6.463  15.919  0.3751 -0.7976  0.5793
20185TIP3   OH282045   6.406   3.184   3.753 -0.4428 -0.1965 -0.4762
20185TIP3    H182046   6.501   3.196   3.741 -0.6832  1.6627 -0.8149
20185TIP3    H282047   6.390   3.093   3.725  1.3714 -0.9093  0.5817
20186TIP3   OH282048   0.767   3.941   0.734  0.1061  0.1007  0.2039
20186TIP3    H182049   0.819   4.019   0.717  0.8203 -0.5665 -0.7782
20186TIP3    H282050   0.683   3.974   0.767 -0.2752  1.3803 -1.8823
20187TIP3   OH282051   2.751   2.102  15.126  0.2531  0.0840  0.0570
20187TIP3    H182052   2.776   2.136  15.040  1.5918  1.6722  1.0165
20187TIP3    H282053   2.707   2.175  15.169  1.2581 -0.0537  1.3803
20188TIP3   OH282054   4.966   4.970   5.393  0.3499 -0.4143 -0.4933
20188TIP3    H182055   4.925   4.885   5.410 -1.3691  0.2901 -0.9251
20188TIP3    H282056   4.962   5.016   5.476  2.2045 -1.0695  0.0182
20189TIP3   OH282057   2.047   6.503   3.898 -0.2876 -0.1159 -0.0026
20189TIP3    H182058   2.079   6.427   3.850 -0.5259 -0.2395  0.0379
20189TIP3    H282059   1.968   6.530   3.851  0.0868  0.4345 -0.3448
20190TIP3   OH282060   4.892   5.627   3.107  0.0509  0.4321  0.0288
20190TIP3    H182061   4.929   5.559   3.050  1.0458  0.8545  0.1523
20190TIP3    H282062   4.955   5.634   3.179 -1.9981 -1.2825  2.1057
20191TIP3   OH282063   6.113   5.294  13.580  0.0315 -0.0349 -0.7181
20191TIP3    H182064   6.131   5.228  13.647 -0.7973  1.4146  1.0487
20191TIP3    H282065   6.191   5.349  13.579  0.5862 -0.8026 -1.9498
20192TIP3   OH282066   0.877   6.093   0.590 -0.0362  0.0062 -0.6024
20192TIP3    H182067   0.830   6.015   0.619 -1.2302  0.4541 -1.3034
20192TIP3    H282068   0.839   6.115   0.505 -0.3442  1.8522 -0.0349
20193TIP3   OH282069   3.001   2.509   2.236  0.4156  0.2285  0.3562
20193TIP3    H182070   3.034   2.449   2.170  1.0762  1.1245 -0.1530
20193TIP3    H282071   3.013   2.463   2.319  2.1353  0.1641  0.1005
20194TIP3   OH282072   1.241   6.268   4.342  0.2851  0.2524 -0.8973
20194TIP3    H182073   1.210   6.306   4.259 -3.0149  1.4096  0.7037
20194TIP3    H282074   1.259   6.176   4.321 -2.2977  0.0200 -2.5876
20195TIP3   OH282075   2.551   4.375  15.214 -0.0318 -0.0566  0.7046
20195TIP3    H182076   2.519   4.440  15.152 -0.0764 -0.7547 -0.0173
20195TIP3    H282077   2.608   4.425  15.273 -0.9739  0.8473  0.8851
20196TIP3   OH282078   5.923   3.342  14.099 -0.4128 -0.3483  0.1231
20196TIP3    H182079   6.001   3.344  14.043 -1.3828  0.4324 -1.2557
20196TIP3    H282080   5.857   3.296  14.047 -2.0150  2.3126 -0.3698
20197TIP3   OH282081   5.599   1.084   3.939 -0.4033  0.2957 -0.0588
20197TIP3    H182082   5.532   1.091   3.871 -0.1917  0.6019 -0.2366
20197TIP3    H282083   5.623   0.992   3.940 -0.7197  0.2108 -0.0984
20198TIP3   OH282084   1.904   6.050  11.255 -0.1898 -0.1010  0.8814
20198TIP3    H182085   1.868   6.080  11.339  0.5141  0.8604  0.8525
20198TIP3    H282086   1.908   6.129  11.201  0.4310 -0.5044  0.3290
20199TIP3   OH282087   6.525   0.152  15.813  0.3479 -0.5176 -0.2199
20199TIP3    H182088   6.599   0.097  15.788  0.1733 -1.0927  0.4603
20199TIP3    H282089   6.561   0.241  15.818  1.1152 -0.8469  0.5307
20200TIP3   OH282090   4.266   0.248   6.145  0.1389 -0.3121 -0.6888
20200TIP3    H182091   4.207   0.210   6.080 -2.3428  1.3529  0.4419
20200TIP3    H282092   4.273   0.181   6.213 -0.6435 -0.4237 -0.7188
20201TIP3   OH282093   5.282   4.391  11.709  0.2167 -0.3553  0.3207
20201TIP3    H182094   5.238   4.449  11.647  0.0538 -0.9691 -0.1485
20201TIP3    H282095   5.220   4.320  11.724  0.6887 -0.7643  0.3474
20202TIP3   OH282096   0.903   0.340   2.951  0.1013 -0.5884  0.1322
20202TIP3    H182097   0.885   0.393   2.873 -1.6307 -0.7250  0.4095
20202TIP3    H282098   0.865   0.254   2.932  1.6445 -1.3455  0.2556
20203TIP3   OH282099   4.729   3.151  14.725  0.1141  0.0634  0.3469
20203TIP3    H182100   4.741   3.066  14.683  0.4205  0.8285 -1.1816
20203TIP3    H282101   4.635   3.170  14.716  0.4479  1.0267 -1.7067
20204TIP3   OH282102   4.959   5.701   5.609  0.5711 -0.8005 -0.6133
20204TIP3    H182103   5.042   5.747   5.620  0.6047 -0.7323 -1.1389
20204TIP3    H282104   4.950   5.650   5.690  0.6225 -0.0273 -0.0996
20205TIP3   OH282105   6.588   4.443  13.303 -0.0726 -0.2823 -0.6136
20205TIP3    H182106   6.630   4.365  13.267 -1.3972 -0.7145 -1.2905
20205TIP3    H282107   6.499   4.442  13.266 -0.6761  0.6178  0.7153
20206TIP3   OH282108   2.486   5.618   2.089 -0.4793 -0.3198  0.4826
20206TIP3    H182109   2.520   5.652   2.172 -1.3145  0.5414  0.4778
20206TIP3    H282110   2.548   5.549   2.066  0.7908  0.6270  0.9111
20207TIP3   OH282111   3.162   3.380   1.496  0.0445  0.2356  0.4241
20207TIP3    H182112   3.077   3.380   1.540  0.6474 -1.3151  1.7208
20207TIP3    H282113   3.148   3.328   1.417 -1.1758  3.4575 -1.6879
20208TIP3   OH282114   5.385   6.790  16.011  0.9505 -0.2491  0.1695
20208TIP3    H182115   5.408   6.745  16.092  0.1442  0.0181  0.5529
20208TIP3    H282116   5.435   6.744  15.943  1.1132 -0.9070  0.7239
20209TIP3   OH282117   4.394   5.551  10.336  0.1769  0.5683 -0.0942
20209TIP3    H182118   4.310   5.575  10.297 -0.3533 -1.3892 -0.2940
20209TIP3    H282119   4.384   5.458  10.358  3.1855 -0.5004 -2.6096
20210TIP3   OH282120   1.541   6.488  11.289 -0.3043 -0.2065  0.1715
20210TIP3    H182121   1.584   6.465  11.371 -0.8937  0.6552  0.7351
20210TIP3    H282122   1.587   6.437  11.223 -0.3484 -1.5377  1.1338
20211TIP3   OH282123   2.457   1.680   3.493 -0.1752 -0.1116 -0.0937
20211TIP3    H182124   2.376   1.640   3.524  0.5995 -1.1148  0.7416
20211TIP3    H282125   2.430   1.740   3.424 -1.7915  0.7815  1.2515
20212TIP3   OH282126   5.806   3.211   3.510  0.0889 -0.4453  0.4707
20212TIP3    H182127   5.805   3.141   3.575 -0.4437 -0.5840  0.3166
20212TIP3    H282128   5.835   3.167   3.429 -2.9929 -1.1757 -0.3641
20213TIP3   OH282129   2.675   1.257  11.952 -0.1370 -0.3291 -0.5779
20213TIP3    H182130   2.636   1.223  12.032 -2.2221 -1.5242 -1.9859
20213TIP3    H282131   2.763   1.286  11.978 -1.8380  2.5544  2.8384
20214TIP3   OH282132   5.941   4.270   3.271 -0.1508  0.2925 -0.2556
20214TIP3    H182133   5.925   4.176   3.282 -0.0010  0.2149 -0.6539
20214TIP3    H282134   5.902   4.310   3.348  0.9758 -0.2206  0.6059
20215TIP3   OH282135   3.013   6.416  15.085 -0.2735 -0.5357  0.1923
20215TIP3    H182136   2.920   6.406  15.103 -0.4886  1.6766  0.6546
20215TIP3    H282137   3.018   6.429  14.990 -0.6491  0.8068  0.3296
20216TIP3   OH282138   4.510   6.389   1.513 -0.5150  0.1433  0.1332
20216TIP3    H182139   4.460   6.310   1.530  0.0213  0.1820  2.1066
20216TIP3    H282140   4.445   6.459   1.511 -0.9034 -0.2303 -0.8570
20217TIP3   OH282141   5.895   5.273  14.456  0.7072 -0.4808  0.5379
20217TIP3    H182142   5.904   5.366  14.475  0.4504 -0.2287 -0.4975
20217TIP3    H282143   5.977   5.249  14.413  1.4395 -1.1279  2.2423
20218TIP3   OH282144   6.633   5.411   4.248 -0.4691 -0.2936  0.4732
20218TIP3    H182145   6.617   5.491   4.199  0.4771 -0.8024 -0.7114
20218TIP3    H282146   6.550   5.363   4.243 -0.2335 -0.5847 -1.1318
20219TIP3   OH282147   3.874   1.895   3.648  0.2032 -0.8729 -0.0408
20219TIP3    H182148   3.920   1.812   3.662  0.8424 -0.8235 -1.5675
20219TIP3    H282149   3.938   1.962   3.671 -0.0576 -0.8056  0.4846
20220TIP3   OH282150   4.574   6.610   5.412 -0.2787 -0.5453  0.0875
20220TIP3    H182151   4.512   6.653   5.470  0.2053 -2.1326  1.9045
20220TIP3    H282152   4.659   6.650   5.432 -0.4680  0.8234 -1.5769
20221TIP3   OH282153   3.285   1.341  14.688  0.8210  0.3486 -0.0161
20221TIP3    H182154   3.379   1.319  14.687  0.6291 -1.3976  3.5475
20221TIP3    H282155   3.283   1.433  14.715  1.4998  0.3015  0.2335
20222TIP3   OH282156   5.998   3.338   5.366 -0.0407 -0.0565 -0.2924
20222TIP3    H182157   5.935   3.409   5.356 -1.2998 -1.1552 -0.3477
20222TIP3    H282158   5.978   3.278   5.294  0.8619 -0.5778 -0.1214
20223TIP3   OH282159   6.576   1.849   4.682 -0.5539  0.3975 -0.1035
20223TIP3    H182160   6.615   1.873   4.766 -0.3607  1.0328 -0.3664
20223TIP3    H282161   6.495   1.805   4.705  0.7809 -1.9091  0.4812
20224TIP3   OH282162   5.467   5.774   3.602  0.2874 -0.4166 -0.6953
20224TIP3    H182163   5.476   5.691   3.555  0.1079 -0.8918  0.1020
20224TIP3    H282164   5.429   5.834   3.537 -0.1516 -1.1154 -1.0980
20225TIP3   OH282165   2.826   2.251  10.521  0.8728  0.1528  0.2757
20225TIP3    H182166   2.880   2.330  10.510  0.6022  0.3939  0.6262
20225TIP3    H282167   2.766   2.253  10.447  1.5485 -0.2934 -0.3025
20226TIP3   OH282168   5.361   2.987  13.527 -0.1874 -0.6912  0.4525
20226TIP3    H182169   5.267   3.000  13.515 -0.0868  4.1194  2.3071
20226TIP3    H282170   5.368   2.924  13.598 -1.6562 -4.1022 -2.1328
20227TIP3   OH282171   1.159   4.630  12.653  0.3641  0.2856  0.6763
20227TIP3    H182172   1.125   4.546  12.686 -0.3538 -0.3374 -1.4354
20227TIP3    H282173   1.254   4.617  12.648  0.2951 -0.2782  0.7334
20228TIP3   OH282174   5.230   4.864  12.184  0.0090  0.4281 -0.0626
20228TIP3    H182175   5.284   4.889  12.259  1.6508  0.9710 -1.3599
20228TIP3    H282176   5.287   4.878  12.108 -1.7351  0.3047 -1.4536
20229TIP3   OH282177   2.030   0.171  16.555 -0.0514 -0.1136  0.3342
20229TIP3    H182178   2.042   0.080  16.581 -1.9130 -0.5895 -0.2690
20229TIP3    H282179   2.115   0.198  16.522  1.2357 -0.8050  2.8383
20230TIP3   OH282180   1.525   2.482   5.322  0.4398  0.4635 -0.0933
20230TIP3    H182181   1.559   2.433   5.397  0.5046  0.5003 -0.0983
20230TIP3    H282182   1.568   2.568   5.329 -0.5132  0.9030  0.5518
20231TIP3   OH282183   0.472   0.866  13.303  0.2973  0.1112 -0.5569
20231TIP3    H182184   0.491   0.884  13.395 -1.0124  2.3696 -0.6564
20231TIP3    H282185   0.554   0.883  13.257  1.2711 -2.1001  0.2542
20232TIP3   OH282186   5.414   3.167   2.293 -0.2202 -0.1424 -0.3020
20232TIP3    H182187   5.334   3.121   2.269 -0.4955  0.6604 -0.9630
20232TIP3    H282188   5.391   3.260   2.285  0.5509  0.1040  0.2546
20233TIP3   OH282189   1.763   2.271   4.708  0.1966  0.0473  0.3224
20233TIP3    H182190   1.816   2.303   4.634  0.9156 -0.2880  0.6852
20233TIP3    H282191   1.784   2.331   4.779  1.4778 -1.1286  0.9811
20234TIP3   OH282192   5.748   5.551   5.126 -0.1378  0.3370  0.2834
20234TIP3    H182193   5.818   5.547   5.191 -0.3339  0.3192  0.4932
20234TIP3    H282194   5.691   5.622   5.155 -0.7707 -0.3212  0.6841
20235TIP3   OH282195   4.228   1.782  14.178  0.3190  0.1463  0.0688
20235TIP3    H182196   4.283   1.706  14.201  0.1766  0.7185  2.5626
20235TIP3    H282197   4.281   1.858  14.202 -1.0128  0.7279  1.3237
20236TIP3   OH282198   0.346   5.436  16.080  0.5812  0.1581 -0.0334
20236TIP3    H182199   0.414   5.424  16.146  1.3864 -1.2287 -1.0637
20236TIP3    H282200   0.273   5.382  16.111  1.7181 -2.2103 -1.2500
20237TIP3   OH282201   6.733   5.116  12.784  0.1185  0.4096  0.2256
20237TIP3    H182202   6.765   5.192  12.832 -0.7409  1.2527 -0.4971
20237TIP3    H282203   6.808   5.057  12.779  1.8357  2.6049 -2.0227
20238TIP3   OH282204   6.336   5.648   3.594 -0.2293 -0.0523  0.5541
20238TIP3    H182205   6.352   5.739   3.571  2.7242 -0.8360 -0.9251
20238TIP3    H282206   6.282   5.652   3.673 -0.6667  2.9222  0.2014
20239TIP3   OH282207   6.065   5.138   4.380  0.1621  0.3619  0.7234
20239TIP3    H182208   6.074   5.093   4.465  0.6996  2.6640  1.9602
20239TIP3    H282209   6.142   5.111   4.330 -0.9240 -2.2408  0.2787
20240TIP3   OH282210   0.046   1.471  12.648  0.1426 -0.1719 -0.4702
20240TIP3    H182211  -0.013   1.396  12.645 -1.1945  0.8416 -0.2954
20240TIP3    H282212   0.133   1.433  12.632 -0.0733 -2.1754  2.3183
20241TIP3   OH282213   0.657   3.861  16.231  0.3209 -0.0967  0.1533
20241TIP3    H182214   0.704   3.930  16.185  0.6732 -0.2745  0.2450
20241TIP3    H282215   0.718   3.787  16.232  0.2926 -0.1160  0.8558
20242TIP3   OH282216   6.572   6.779   6.073 -0.0290  0.2189  0.3219
20242TIP3    H182217   6.639   6.834   6.114 -0.4864  0.4220  0.8182
20242TIP3    H282218   6.609   6.691   6.073  1.4136  0.7522 -2.0084
20243TIP3   OH282219   2.639   4.253  14.901  0.3407 -0.0272 -0.3258
20243TIP3    H182220   2.610   4.191  14.834  0.1515  1.7608 -1.9665
20243TIP3    H282221   2.562   4.266  14.957  0.4696 -1.4377  0.2405
20244TIP3   OH282222   2.906   1.796  15.905  0.2383 -0.0254  0.1975
20244TIP3    H182223   2.866   1.711  15.924 -1.6574  0.7968  0.1362
20244TIP3    H282224   2.886   1.811  15.813  0.3227  0.5896  0.2776
20245TIP3   OH282225   0.485   2.987   0.753  0.2555  0.3791  0.2649
20245TIP3    H182226   0.530   3.030   0.826  3.6579 -1.0648 -0.7697
20245TIP3    H282227   0.515   2.897   0.756 -1.1828 -0.2380 -1.6786
20246TIP3   OH282228   4.556   6.840   3.914 -0.0781  0.3097  0.1760
20246TIP3    H182229   4.539   6.927   3.948  0.8381  0.6309 -0.1476
20246TIP3    H282230   4.556   6.783   3.991 -0.0691  0.6925  0.4590
20247TIP3   OH282231   2.521   6.237  14.690  0.0192 -0.6096 -0.2723
20247TIP3    H182232   2.541   6.149  14.658  1.1152 -0.4084 -0.1729
20247TIP3    H282233   2.556   6.295  14.623 -2.6272 -0.2296 -1.4511
20248TIP3   OH282234   0.229   3.760  11.124 -0.1578  0.1426 -0.1593
20248TIP3    H182235   0.222   3.854  11.136  0.2642 -0.0430  1.8286
20248TIP3    H282236   0.264   3.750  11.035 -3.0238  1.7001 -1.5887
20249TIP3   OH282237   1.248   3.174   0.697 -0.0881 -0.1665  0.1619
20249TIP3    H182238   1.158   3.185   0.726  0.5275  0.4635  1.9754
20249TIP3    H282239   1.284   3.107   0.755  0.5929 -0.4735 -0.5961
20250TIP3   OH282240   6.270   3.574  15.071  0.1694  0.5596  0.3440
20250TIP3    H182241   6.329   3.537  15.136 -0.5864 -1.7037 -0.1580
20250TIP3    H282242   6.209   3.628  15.121  1.1776  1.0034  1.1388
20251TIP3   OH282243   6.012   6.080   3.005 -0.0159 -0.1640 -0.6027
20251TIP3    H182244   5.951   6.131   2.950 -0.4835 -1.0149 -0.8983
20251TIP3    H282245   5.961   6.003   3.032  0.0141  0.4987  1.5224
20252TIP3   OH282246   2.168   2.452   5.327  0.7022 -0.3109  0.0299
20252TIP3    H182247   2.163   2.539   5.288 -2.2299 -0.3212  0.1795
20252TIP3    H282248   2.138   2.393   5.258 -0.5939 -0.7837  0.9607
20253TIP3   OH282249   3.235   2.315   4.161  0.0089  0.5559 -0.3565
20253TIP3    H182250   3.209   2.403   4.133  1.3094  1.0313 -0.1403
20253TIP3    H282251   3.250   2.323   4.255 -2.1894 -0.5081  0.1741
20254TIP3   OH282252   4.243   2.876   1.419  0.0635  0.2328  0.3939
20254TIP3    H182253   4.176   2.807   1.424  0.7520 -0.4803 -0.0895
20254TIP3    H282254   4.194   2.954   1.393 -0.7484 -0.0334  1.0553
20255TIP3   OH282255   4.495   4.385  16.204  0.5915  0.1855 -0.2212
20255TIP3    H182256   4.482   4.476  16.232  2.5085  0.7887 -1.0900
20255TIP3    H282257   4.411   4.359  16.169  0.3816  2.1648 -1.3469
20256TIP3   OH282258   4.466   2.903  16.508  0.4757 -0.2623 -0.3330
20256TIP3    H182259   4.477   2.825  16.454  0.3440 -0.5755  0.0874
20256TIP3    H282260   4.404   2.957  16.460  0.7799 -0.2875 -0.7638
20257TIP3   OH282261   1.012   4.763  10.956 -0.2711  0.4591 -0.2054
20257TIP3    H182262   0.937   4.764  10.896  0.0983  2.2508 -0.7082
20257TIP3    H282263   1.087   4.787  10.901  0.4389  0.0291  0.5610
20258TIP3   OH282264   0.260   2.908  13.376 -0.4514  0.1900  0.3645
20258TIP3    H182265   0.270   2.919  13.281  1.9272  1.3427  0.6592
20258TIP3    H282266   0.339   2.862  13.403 -0.0459  1.7194  2.0088
20259TIP3   OH282267   5.763   4.164   1.195 -0.2203 -0.8093  0.0416
20259TIP3    H182268   5.821   4.128   1.128 -1.2201 -0.6649 -0.9366
20259TIP3    H282269   5.701   4.218   1.147 -0.4099  0.0457  1.1965
20260TIP3   OH282270   2.988   6.201  15.299  0.2115 -0.3957  0.1523
20260TIP3    H182271   3.003   6.293  15.281  0.1767 -0.0977  1.5831
20260TIP3    H282272   2.892   6.193  15.303  0.1518 -0.7804 -1.2655
20261TIP3   OH282273   0.600   0.830   5.142  0.2206  0.5654  0.2320
20261TIP3    H182274   0.550   0.771   5.086  0.3126  1.9263 -1.3616
20261TIP3    H282275   0.572   0.809   5.231 -0.0769 -1.5308 -0.3021
20262TIP3   OH282276   4.222   0.718   4.091 -0.3262 -0.3552 -0.6832
20262TIP3    H182277   4.143   0.744   4.138  0.4610 -0.0331  0.5284
20262TIP3    H282278   4.229   0.623   4.106 -2.0848 -1.0147 -3.3712
20263TIP3   OH282279   4.377   1.964   4.695 -0.2491  0.3074  0.0581
20263TIP3    H182280   4.325   2.033   4.653 -0.5555 -1.3359 -2.4711
20263TIP3    H282281   4.463   1.970   4.654 -0.1429 -0.5051  0.1458
20264TIP3   OH282282   5.548   2.397  16.350  0.0787  0.1581 -0.2632
20264TIP3    H182283   5.550   2.421  16.442  1.4608 -0.7219 -0.0457
20264TIP3    H282284   5.553   2.480  16.303  0.6498  0.5337  0.4553
20265TIP3   OH282285   6.065   5.750   0.655 -0.0280 -0.3638  0.0332
20265TIP3    H182286   6.122   5.753   0.579 -0.4305 -1.9674 -0.3643
20265TIP3    H282287   5.977   5.761   0.620 -0.0561  1.8939  0.6223
20266TIP3   OH282288   2.212   6.262  12.012 -0.2800 -0.1653 -1.2899
20266TIP3    H182289   2.121   6.276  11.984 -0.4319 -0.2478 -0.8449
20266TIP3    H282290   2.231   6.335  12.070 -0.2043 -0.3858 -1.0378
20267TIP3   OH282291   3.960   3.479   2.362 -0.3552  0.2221 -0.2544
20267TIP3    H182292   4.040   3.426   2.360 -0.6418 -0.2218  0.1250
20267TIP3    H282293   3.910   3.445   2.436 -1.7847 -0.7995 -1.6300
20268TIP3   OH282294   3.674   1.295   6.274  0.4463 -0.0344 -0.2221
20268TIP3    H182295   3.606   1.297   6.206  0.3897 -0.9692 -0.1997
20268TIP3    H282296   3.705   1.386   6.279 -0.6668  0.3718 -0.3605
20269TIP3   OH282297   1.994   0.178   3.013 -0.7420  0.4461  0.6872
20269TIP3    H182298   1.981   0.087   3.039  1.9563 -0.7238 -1.5012
20269TIP3    H282299   2.083   0.199   3.042  0.4069  0.7543 -2.5352
20270TIP3   OH282300   4.856   0.687   5.084  0.0237  0.0000 -0.3339
20270TIP3    H182301   4.916   0.704   5.012  0.1313 -1.5783 -0.6603
20270TIP3    H282302   4.828   0.596   5.071  1.5424 -1.0325  2.6861
20271TIP3   OH282303   4.897   2.820   2.403  0.2953 -0.3721  0.4563
20271TIP3    H182304   4.976   2.793   2.451  1.8244  1.0676 -1.0846
20271TIP3    H282305   4.909   2.914   2.389 -1.1204 -0.3542 -0.8804
20272TIP3   OH282306   5.353   3.100   4.754 -0.1144 -0.3688  0.3557
20272TIP3    H182307   5.408   3.177   4.762 -2.2910  1.5601 -1.7034
20272TIP3    H282308   5.401   3.042   4.694  0.6541  0.2775  0.3336
20273TIP3   OH282309   5.518   2.380   2.588 -0.1965 -0.1104 -0.2670
20273TIP3    H182310   5.486   2.291   2.571 -0.3832  0.0773 -0.8909
20273TIP3    H282311   5.585   2.395   2.521 -0.4301  0.3602 -0.3964
20274TIP3   OH282312   4.187   6.244  16.069 -0.5437  0.1191 -0.7844
20274TIP3    H182313   4.250   6.171  16.064  0.0604  0.6059 -0.3641
20274TIP3    H282314   4.166   6.251  16.163  0.6820  1.5489 -0.5829
20275TIP3   OH282315   6.306   1.901  13.258 -0.0147  0.1855  0.6751
20275TIP3    H182316   6.280   1.993  13.261 -1.2211 -0.0606 -1.0140
20275TIP3    H282317   6.383   1.896  13.315 -0.7537  1.9427  1.9140
20276TIP3   OH282318   3.480   3.912   2.397  0.0247 -0.0724  0.0097
20276TIP3    H182319   3.464   3.942   2.487 -1.0479  0.8782 -0.4758
20276TIP3    H282320   3.526   3.985   2.355  1.2842 -0.8410 -0.0058
20277TIP3   OH282321   6.258   5.933  13.901 -0.4628  0.1203 -0.1536
20277TIP3    H182322   6.223   5.844  13.903 -3.5400  1.1469 -1.6288
20277TIP3    H282323   6.278   5.949  13.809  1.2881  0.5979  0.2670
20278TIP3   OH282324   3.054   4.592  11.470  0.8520 -0.3099  0.2298
20278TIP3    H182325   3.065   4.674  11.422 -0.7528  0.2509  0.7505
20278TIP3    H282326   3.001   4.538  11.412  0.0093 -0.1175  0.8051
20279TIP3   OH282327   3.457   3.442  15.273  0.7166 -0.1334  0.7042
20279TIP3    H182328   3.499   3.358  15.255  1.1387  0.1680  0.2817
20279TIP3    H282329   3.460   3.490  15.191  0.4431  0.2882  0.9315
20280LIG      O82330   3.372   3.348  16.366 -0.3573  0.2396 -0.0403
20280LIG     C182331   3.470   3.254  16.395 -0.5937 -0.0424  0.2689
20280LIG     C282332   3.540   3.307  16.521  0.3176  0.1235 -0.2615
20280LIG     C382333   3.402   3.123  16.422 -0.5511 -0.2147 -0.3831
20280LIG     H182334   3.545   3.247  16.314  0.1743 -0.9902  1.0336
20280LIG     H282335   3.464   3.329  16.598  1.3049  2.1887  0.1729
20280LIG     H382336   3.608   3.392  16.501  2.2551 -0.7134  2.3289
20280LIG     H482337   3.604   3.226  16.563  1.9534  0.0459 -2.6561
20280LIG     H582338   3.475   3.041  16.442 -0.9539  0.2521  3.9931
20280LIG     H682339   3.343   3.095  16.333 -0.3229  1.3003 -1.0470
20280LIG     H782340   3.337   3.130  16.512 -0.8556  3.5387 -0.7180
20280LIG     H882341   3.340   3.319  16.280  2.6462  2.3232 -2.0550
   6.88749   6.88749  16.96240
